Title
82341
    1SAPS     N    1   6.305   0.309  11.064  0.3425  0.0413  0.6520
    1SAPS   HN1    2   6.260   0.215  11.063 -1.0360  0.6773 -0.6788
    1SAPS   HN2    3   6.377   0.301  10.990 -0.6034 -2.5897 -0.1058
    1SAPS   HN3    4   6.340   0.340  11.157 -2.7440 -0.8028  2.2480
    1SAPS   C12    5   6.214   0.404  11.009 -0.6856 -0.5550  0.7570
    1SAPS  H12A    6   6.187   0.359  10.914  2.6772 -4.3874  1.3590
    1SAPS   C13    7   6.078   0.416  11.089  0.1030  0.6450  0.1133
    1SAPS  O13A    8   6.056   0.336  11.185  0.5758  0.2629 -0.0729
    1SAPS  O13B    9   5.994   0.500  11.053 -0.2187 -0.0199  0.2060
    1SAPS   C11   10   6.279   0.543  11.001 -0.8188  0.5677  0.3869
    1SAPS  H11A   11   6.268   0.595  11.099  0.9840  0.8476  0.4777
    1SAPS  H11B   12   6.215   0.585  10.921 -0.6065 -1.5772 -0.9882
    1SAPS     P   13   6.475   0.649  10.870 -0.1429 -0.4486 -0.3140
    1SAPS   O13   14   6.427   0.778  10.924  0.6742  0.2189  0.3305
    1SAPS   O14   15   6.622   0.625  10.853 -0.7253 -0.0197 -0.0729
    1SAPS   O12   16   6.416   0.533  10.962 -0.3064  0.3040  0.0033
    1SAPS   O11   17   6.404   0.610  10.734 -0.4749  0.0536 -0.2048
    1SAPS    C1   18   6.444   0.487  10.670 -0.2761 -0.3174  0.0357
    1SAPS    HA   19   6.505   0.424  10.738 -0.5670  1.0261  1.6212
    1SAPS    HB   20   6.355   0.428  10.641 -1.2365  1.1757 -0.1855
    1SAPS    C2   21   6.534   0.523  10.549 -0.0251 -0.1843  0.1746
    1SAPS    HS   22   6.593   0.614  10.574 -0.0061 -0.3484  0.7382
    1SAPS   O21   23   6.445   0.540  10.442 -0.1035 -0.1752  0.5523
    1SAPS   C21   24   6.467   0.637  10.349  0.5066  0.6252  0.4048
    1SAPS   O22   25   6.558   0.714  10.350  0.0414  0.5211 -0.2709
    1SAPS   C22   26   6.369   0.634  10.230  0.4092  0.5164 -0.2624
    1SAPS   H2R   27   6.278   0.575  10.254 -0.0461  2.6847  4.1631
    1SAPS   H2S   28   6.331   0.737  10.217  1.2943  0.5754 -3.0342
    1SAPS    C3   29   6.633   0.409  10.534  0.3203  0.3617  0.2329
    1SAPS    HX   30   6.590   0.310  10.559  2.1125 -0.0932  1.7255
    1SAPS    HY   31   6.711   0.413  10.612 -0.4521  1.0889  0.9930
    1SAPS   O31   32   6.699   0.412  10.407 -0.2904  0.0931  0.3629
    1SAPS   C31   33   6.804   0.491  10.397 -0.0396 -0.2516 -0.7499
    1SAPS   O32   34   6.844   0.566  10.485 -0.4453 -0.5742  0.4695
    1SAPS   C32   35   6.868   0.473  10.255 -0.5977 -0.1551 -0.1770
    1SAPS   H2X   36   6.824   0.379  10.215 -1.6192 -2.4093  5.3141
    1SAPS   H2Y   37   6.976   0.452  10.273 -0.8423 -1.4947 -0.1447
    1SAPS   C23   38   6.429   0.609  10.088  0.1668 -0.2409  0.2118
    1SAPS   H3R   39   6.534   0.646  10.085  0.7806 -1.7805  1.4135
    1SAPS   H3S   40   6.366   0.653  10.008  0.8664  1.0031  0.3155
    1SAPS   C24   41   6.425   0.459  10.054 -0.4743  0.3562 -0.9968
    1SAPS   H4R   42   6.358   0.450   9.965 -1.4698  1.3900 -0.3800
    1SAPS   H4S   43   6.373   0.397  10.130  1.3302  0.1290  0.1045
    1SAPS   C25   44   6.558   0.396  10.021 -0.1806 -0.8575  0.3171
    1SAPS   H5R   45   6.601   0.322  10.090  0.4266 -1.6864 -0.9239
    1SAPS   C26   46   6.604   0.398   9.893  0.0608 -0.1135 -0.2441
    1SAPS   H6R   47   6.699   0.356   9.858 -0.9571  0.0719 -3.6218
    1SAPS   C27   48   6.543   0.465   9.769  0.0971  0.6808 -0.0964
    1SAPS   H7R   49   6.507   0.564   9.805  0.1303  0.5953  0.1811
    1SAPS   H7S   50   6.455   0.403   9.741  1.4386 -0.8760 -1.0080
    1SAPS   C28   51   6.627   0.494   9.649 -0.5146  0.0183  0.4634
    1SAPS   H8R   52   6.730   0.455   9.650 -0.2266  0.5663 -1.7189
    1SAPS   C29   53   6.587   0.574   9.548 -0.5976  0.8789 -0.5957
    1SAPS   H9R   54   6.651   0.584   9.459 -1.5026  0.0205 -1.3570
    1SAPS  C210   55   6.453   0.633   9.547  0.3270 -0.3951 -0.1465
    1SAPS  H10R   56   6.407   0.651   9.647 -0.8198  1.4251 -0.9668
    1SAPS  H10S   57   6.385   0.558   9.500 -0.9687  0.8447 -0.3256
    1SAPS  C211   58   6.441   0.750   9.455  0.6279 -0.5838 -0.3793
    1SAPS  H11R   59   6.467   0.839   9.514  0.6374 -0.3695 -0.7078
    1SAPS  C212   60   6.403   0.774   9.328 -0.4249  0.2602 -0.2366
    1SAPS  H12R   61   6.420   0.873   9.283 -1.0844  0.0727 -0.9312
    1SAPS  C213   62   6.355   0.668   9.238 -0.6324 -0.0065  0.8387
    1SAPS  H13R   63   6.411   0.575   9.262  1.6540  0.5572 -1.7503
    1SAPS  H13S   64   6.387   0.696   9.135  0.7739 -0.1874  1.2059
    1SAPS  C214   65   6.206   0.649   9.241  0.0009 -0.4001  0.4911
    1SAPS  H14R   66   6.151   0.713   9.312  0.3441  1.9275 -1.2177
    1SAPS  C215   67   6.141   0.557   9.164  0.8042 -0.2550 -0.8381
    1SAPS  H15R   68   6.031   0.557   9.159  0.7990  1.8862 -1.3952
    1SAPS  C216   69   6.209   0.448   9.082  0.2957 -0.2752 -0.3239
    1SAPS  H16R   70   6.204   0.346   9.125 -1.9637  0.2922  0.9480
    1SAPS  H16S   71   6.318   0.460   9.069  0.0672  1.6682 -0.8082
    1SAPS  C217   72   6.154   0.444   8.946 -0.4083  0.3200  0.6111
    1SAPS  H17R   73   6.163   0.540   8.890  0.4416  0.2149  0.5608
    1SAPS  H17S   74   6.048   0.410   8.948 -0.6104  0.6791 -1.4340
    1SAPS  C218   75   6.225   0.334   8.860 -0.4785  0.7790 -0.0164
    1SAPS  H18R   76   6.196   0.237   8.905 -1.1864  1.1591  0.3757
    1SAPS  H18S   77   6.335   0.343   8.870 -0.4031  0.1782 -0.3012
    1SAPS  C219   78   6.198   0.318   8.709  0.2786  0.6121 -0.3919
    1SAPS  H19R   79   6.288   0.280   8.658 -0.1238 -0.9136 -0.0216
    1SAPS  H19S   80   6.171   0.416   8.666  0.3775  0.8820  0.1488
    1SAPS  C220   81   6.083   0.213   8.681 -0.4341 -0.0453  0.5057
    1SAPS  H20R   82   6.124   0.113   8.659 -0.1353  0.1533  0.1450
    1SAPS  H20S   83   6.031   0.262   8.595  2.2845  0.6314 -0.8619
    1SAPS  H20T   84   6.016   0.208   8.769  1.1161 -2.7067  1.6496
    1SAPS   C33   85   6.862   0.604  10.169 -0.5323  0.2154  0.4766
    1SAPS   H3X   86   6.902   0.692  10.223  1.3832 -1.2501  1.5692
    1SAPS   H3Y   87   6.753   0.616  10.151 -0.7275  0.0626  1.5021
    1SAPS   C34   88   6.934   0.601  10.028  0.6858 -1.3022  1.1007
    1SAPS   H4X   89   6.894   0.518   9.966 -2.4521  0.9524 -0.1897
    1SAPS   H4Y   90   7.045   0.600  10.038  0.7789 -0.3255  0.3064
    1SAPS   C35   91   6.896   0.724   9.947  0.3454 -0.0305 -0.2171
    1SAPS   H5X   92   6.917   0.823   9.993 -0.9008  0.6726 -1.1127
    1SAPS   H5Y   93   6.785   0.721   9.943  0.2437  1.6845  0.6397
    1SAPS   C36   94   6.944   0.715   9.798 -0.1274 -0.0242 -0.0036
    1SAPS   H6X   95   6.943   0.616   9.748 -0.0706  0.8141 -1.7293
    1SAPS   H6Y   96   7.049   0.752   9.795 -0.3285  0.6567  0.7186
    1SAPS   C37   97   6.860   0.809   9.713  0.3134 -0.1032  0.2254
    1SAPS   H7X   98   6.895   0.910   9.744  1.6235  0.0496 -1.6171
    1SAPS   H7Y   99   6.752   0.793   9.735  0.4699 -2.9718 -0.6759
    1SAPS   C38  100   6.887   0.783   9.565 -0.2183 -0.1493  0.2044
    1SAPS   H8X  101   6.876   0.674   9.542  2.9429 -0.2360 -1.4729
    1SAPS   H8Y  102   6.997   0.797   9.554 -0.4365  0.6446 -1.2408
    1SAPS   C39  103   6.821   0.872   9.454  0.5651 -0.2536 -0.9646
    1SAPS   H9X  104   6.867   0.973   9.455  1.7617 -0.7255  1.3792
    1SAPS   H9Y  105   6.716   0.890   9.485  0.7877 -1.5527  0.7541
    1SAPS  C310  106   6.815   0.808   9.316 -0.3962 -0.2000  0.1187
    1SAPS  H10X  107   6.757   0.713   9.323 -0.7735 -0.0494 -0.7606
    1SAPS  H10Y  108   6.919   0.789   9.283 -0.6042  0.5731 -1.0497
    1SAPS  C311  109   6.743   0.903   9.216  0.5801  0.2718 -0.6269
    1SAPS  H11X  110   6.642   0.927   9.257  1.1123 -0.3677  1.1466
    1SAPS  H11Y  111   6.732   0.846   9.122 -0.4111  0.4504 -0.6279
    1SAPS  C312  112   6.819   1.029   9.175  0.6146 -0.5757  0.1200
    1SAPS  H12X  113   6.914   0.994   9.128  1.0294  0.6322  0.0185
    1SAPS  H12Y  114   6.833   1.095   9.264 -1.0913 -1.6916  1.2663
    1SAPS  C313  115   6.732   1.125   9.079 -0.3903  0.5750  0.3704
    1SAPS  H13X  116   6.636   1.159   9.123 -0.6746  0.4451 -0.1434
    1SAPS  H13Y  117   6.703   1.067   8.988  0.3602 -1.7541  1.5438
    1SAPS  C314  118   6.808   1.260   9.039  0.6103  0.0691 -0.1282
    1SAPS  H14X  119   6.818   1.331   9.124 -2.4801  0.8070 -0.2388
    1SAPS  H14Y  120   6.731   1.315   8.980 -1.8609 -0.5700  2.2609
    1SAPS  C315  121   6.940   1.231   8.970  0.1237 -0.9419 -0.2884
    1SAPS  H15X  122   7.002   1.194   9.054  0.1199  2.5324  1.4147
    1SAPS  H15Y  123   6.971   1.335   8.943 -1.4780 -0.5614 -0.7781
    1SAPS  C316  124   6.948   1.141   8.850 -0.1219 -0.2736  0.2559
    1SAPS  H16X  125   6.924   1.037   8.879  2.5867 -1.8967 -2.6142
    1SAPS  H16Y  126   7.052   1.139   8.809  0.0800  6.0958 -0.6568
    1SAPS  C317  127   6.857   1.167   8.734  0.3792  0.3045 -0.0678
    1SAPS  H17X  128   6.896   1.263   8.695  1.8407 -0.3594 -0.3239
    1SAPS  H17Y  129   6.752   1.191   8.760  0.8772  0.3082  2.1992
    1SAPS  C318  130   6.858   1.052   8.634 -0.3038  0.4676  0.5951
    1SAPS  H18X  131   6.964   1.030   8.612 -0.8154  0.5028 -2.2388
    1SAPS  H18Y  132   6.818   1.079   8.534  1.5296 -0.3367 -0.4029
    1SAPS  H18Z  133   6.810   0.961   8.678  0.6083 -0.3479 -0.0709
    2SAPS     N  134   4.483   0.715  11.000 -0.5855  0.3875 -0.0947
    2SAPS   HN1  135   4.434   0.776  11.068 -1.0462 -1.4509  1.2817
    2SAPS   HN2  136   4.450   0.743  10.905 -0.1536 -1.6022 -0.8777
    2SAPS   HN3  137   4.443   0.619  11.002  1.7132 -0.6540 -0.1213
    2SAPS   C12  138   4.630   0.711  10.994  0.3320  0.2586  0.3998
    2SAPS  H12A  139   4.667   0.810  11.017  0.8472  0.2580 -0.3653
    2SAPS   C13  140   4.691   0.619  11.101 -0.1671  0.5491  0.7487
    2SAPS  O13A  141   4.630   0.575  11.201  0.6555  0.7223 -0.3117
    2SAPS  O13B  142   4.815   0.631  11.105  0.5500  0.4894  0.0067
    2SAPS   C11  143   4.670   0.658  10.859 -0.1593  0.2495 -0.5379
    2SAPS  H11A  144   4.626   0.556  10.849  0.2944 -0.4198  3.1081
    2SAPS  H11B  145   4.781   0.650  10.859 -0.2075 -0.4965 -0.2132
    2SAPS     P  146   4.654   0.708  10.605 -0.0979 -0.2339  0.0095
    2SAPS   O13  147   4.626   0.562  10.592  0.7537 -0.4700  0.4466
    2SAPS   O14  148   4.580   0.798  10.517  0.0762  0.4439 -0.2033
    2SAPS   O12  149   4.629   0.748  10.758 -0.3545 -0.1216 -0.2823
    2SAPS   O11  150   4.804   0.732  10.593 -0.1856  0.1432 -0.3228
    2SAPS    C1  151   4.871   0.859  10.627 -0.0681  0.4623  0.3709
    2SAPS    HA  152   4.806   0.949  10.628 -0.5756  0.1037  1.2523
    2SAPS    HB  153   4.907   0.851  10.732  0.9499  0.7256  0.0521
    2SAPS    C2  154   4.994   0.892  10.533  0.0164  0.2244 -0.1414
    2SAPS    HS  155   4.969   0.984  10.476 -2.0713 -1.3444 -1.9058
    2SAPS   O21  156   5.037   0.781  10.440  0.3688 -0.6481 -0.0740
    2SAPS   C21  157   4.950   0.768  10.340 -0.6021  0.0762  0.7919
    2SAPS   O22  158   4.858   0.847  10.317  0.2610  0.6425 -0.2408
    2SAPS   C22  159   4.989   0.651  10.255 -0.0387 -0.3062  0.0024
    2SAPS   H2R  160   5.026   0.569  10.321  1.3630  0.6121  0.3900
    2SAPS   H2S  161   4.915   0.614  10.181  1.5350 -1.3651 -1.1163
    2SAPS    C3  162   5.114   0.949  10.613  0.1891 -0.2705  0.5600
    2SAPS    HX  163   5.150   0.871  10.682 -2.1869 -1.3836  0.6550
    2SAPS    HY  164   5.081   1.016  10.695  0.1286  0.9296 -0.4022
    2SAPS   O31  165   5.219   1.015  10.539  0.6098 -0.0529  0.1821
    2SAPS   C31  166   5.327   0.947  10.512 -0.5169  0.1804  0.0993
    2SAPS   O32  167   5.348   0.834  10.545  0.6731  0.1767  0.5446
    2SAPS   C32  168   5.428   1.037  10.448  0.0251 -0.5906 -0.4776
    2SAPS   H2X  169   5.439   1.130  10.508 -1.3812 -0.1499 -0.8536
    2SAPS   H2Y  170   5.392   1.072  10.349 -0.8512 -0.1965 -0.0324
    2SAPS   C23  171   5.116   0.681  10.174  0.7986  0.1690 -0.6273
    2SAPS   H3R  172   5.198   0.718  10.239  1.2885 -0.6515 -0.7608
    2SAPS   H3S  173   5.098   0.753  10.091 -0.5106  1.3074  0.6152
    2SAPS   C24  174   5.175   0.548  10.118  0.8320 -0.2725 -0.2510
    2SAPS   H4R  175   5.193   0.474  10.199  2.4421  0.5677  0.2079
    2SAPS   H4S  176   5.279   0.569  10.085  0.8697  1.1133  0.6752
    2SAPS   C25  177   5.084   0.505   9.999 -0.0129  0.0396  0.0905
    2SAPS   H5R  178   4.983   0.470  10.023  0.1446  0.7121  1.8377
    2SAPS   C26  179   5.098   0.535   9.870 -0.0807 -0.0297  0.0801
    2SAPS   H6R  180   5.027   0.492   9.798 -1.5357 -0.2974  1.6152
    2SAPS   C27  181   5.209   0.613   9.807  0.0267  0.6862 -0.0560
    2SAPS   H7R  182   5.271   0.663   9.884 -2.2114  1.0672  1.6285
    2SAPS   H7S  183   5.165   0.688   9.737 -2.3445 -1.2284 -0.7707
    2SAPS   C28  184   5.281   0.517   9.722  0.2215 -0.2535  0.5677
    2SAPS   H8R  185   5.349   0.449   9.775 -0.0592 -1.6508 -0.7774
    2SAPS   C29  186   5.272   0.492   9.586 -0.5062  0.0151  0.1129
    2SAPS   H9R  187   5.332   0.407   9.549 -0.6301 -0.1689  0.3361
    2SAPS  C210  188   5.190   0.571   9.487  0.0791 -0.3176 -0.1012
    2SAPS  H10R  189   5.092   0.605   9.528  0.3013 -0.4944  0.5952
    2SAPS  H10S  190   5.149   0.511   9.404  0.4896 -0.5888 -0.1099
    2SAPS  C211  191   5.260   0.695   9.434 -0.1443 -0.8461 -0.3599
    2SAPS  H11R  192   5.338   0.735   9.500 -0.2338  0.3850 -0.9652
    2SAPS  C212  193   5.224   0.768   9.322  0.3543 -0.6459 -0.0237
    2SAPS  H12R  194   5.292   0.846   9.284  0.0142 -0.3464 -0.0298
    2SAPS  C213  195   5.117   0.734   9.219  0.2651 -0.1005 -0.5325
    2SAPS  H13R  196   5.033   0.681   9.269  0.2714  1.0881  0.8199
    2SAPS  H13S  197   5.160   0.658   9.152 -1.0881 -0.2446 -1.2769
    2SAPS  C214  198   5.066   0.856   9.144  0.0143 -0.1569 -0.6151
    2SAPS  H14R  199   5.078   0.947   9.204  1.0985 -0.5927 -0.1467
    2SAPS  C215  200   5.008   0.853   9.015 -0.0469  0.2118 -0.4861
    2SAPS  H15R  201   4.974   0.947   8.970 -0.1995  0.2970 -0.1946
    2SAPS  C216  202   4.988   0.728   8.940  0.5440  0.6522 -0.0317
    2SAPS  H16R  203   4.882   0.699   8.956  1.4016 -2.7616  0.0634
    2SAPS  H16S  204   5.059   0.648   8.968 -0.9726 -1.5922 -2.1853
    2SAPS  C217  205   5.010   0.758   8.785  0.2094 -0.6625 -0.4527
    2SAPS  H17R  206   4.940   0.840   8.759  1.5169  0.3823 -0.7808
    2SAPS  H17S  207   4.982   0.663   8.733 -0.8574  0.8457 -2.8168
    2SAPS  C218  208   5.150   0.786   8.739  0.5331 -0.0470  0.9331
    2SAPS  H18R  209   5.209   0.697   8.769 -0.7443 -0.8648  1.0854
    2SAPS  H18S  210   5.192   0.876   8.791  2.3788 -0.8110  0.8396
    2SAPS  C219  211   5.163   0.817   8.580 -0.4230 -0.5822  0.0311
    2SAPS  H19R  212   5.112   0.911   8.548  1.2225  0.4122  0.2200
    2SAPS  H19S  213   5.118   0.733   8.524 -1.0558 -0.7396  0.7589
    2SAPS  C220  214   5.311   0.820   8.539 -0.9393  0.3906 -0.6553
    2SAPS  H20R  215   5.356   0.904   8.597 -0.4182  1.3470 -2.3722
    2SAPS  H20S  216   5.328   0.830   8.430 -0.6832 -0.0913 -0.6619
    2SAPS  H20T  217   5.370   0.731   8.567 -0.3175  1.6625  2.4893
    2SAPS   C33  218   5.562   0.973  10.409 -0.1136 -0.2056 -0.4850
    2SAPS   H3X  219   5.609   0.937  10.503 -2.0726 -0.6758  0.3617
    2SAPS   H3Y  220   5.623   1.055  10.364  0.6889 -2.1589 -3.1877
    2SAPS   C34  221   5.570   0.854  10.315 -0.0090 -0.4013 -1.1171
    2SAPS   H4X  222   5.475   0.796  10.314 -0.3351  0.0990  0.1522
    2SAPS   H4Y  223   5.647   0.785  10.354  1.6070  0.3441 -2.8135
    2SAPS   C35  224   5.599   0.906  10.175 -0.6520 -0.8360 -0.2553
    2SAPS   H5X  225   5.706   0.933  10.177 -0.7220 -0.5683  0.1626
    2SAPS   H5Y  226   5.533   0.993  10.153 -0.5613 -0.7781 -0.2969
    2SAPS   C36  227   5.568   0.797  10.067 -0.7857 -0.2987 -0.0427
    2SAPS   H6X  228   5.462   0.766  10.076 -0.9079 -0.1308 -0.8208
    2SAPS   H6Y  229   5.626   0.706  10.092 -3.8994 -2.5285 -0.4554
    2SAPS   C37  230   5.604   0.837   9.927 -0.8631 -0.2701  0.0443
    2SAPS   H7X  231   5.706   0.882   9.931 -0.7537 -0.4065 -0.9956
    2SAPS   H7Y  232   5.536   0.919   9.899 -1.5366 -0.4696  1.0614
    2SAPS   C38  233   5.605   0.721   9.824 -0.0067 -0.7565  1.3122
    2SAPS   H8X  234   5.503   0.676   9.815  0.7799 -2.2539 -1.2587
    2SAPS   H8Y  235   5.677   0.644   9.861  0.3455 -0.1198  1.9682
    2SAPS   C39  236   5.651   0.771   9.682  0.1644  0.7999  0.6757
    2SAPS   H9X  237   5.748   0.827   9.688  0.4017  0.2649  2.9998
    2SAPS   H9Y  238   5.578   0.848   9.649 -0.3376  0.4697  1.0012
    2SAPS  C310  239   5.671   0.659   9.578  0.4195  0.0504  0.0956
    2SAPS  H10X  240   5.570   0.612   9.579  0.8665 -0.9485 -0.6712
    2SAPS  H10Y  241   5.753   0.588   9.597  0.0155 -0.6569 -0.7216
    2SAPS  C311  242   5.708   0.717   9.442  0.1322 -0.0540  0.3010
    2SAPS  H11X  243   5.811   0.757   9.439  0.6294 -1.0669  2.3746
    2SAPS  H11Y  244   5.646   0.799   9.400 -1.1154 -1.1367 -0.0487
    2SAPS  C312  245   5.713   0.602   9.336  0.0878 -0.4116  0.0825
    2SAPS  H12X  246   5.778   0.518   9.368  0.7650 -0.2154 -0.7351
    2SAPS  H12Y  247   5.772   0.641   9.250  0.6395 -1.2099  0.0901
    2SAPS  C313  248   5.584   0.528   9.301 -0.0427  0.2130  0.0567
    2SAPS  H13X  249   5.496   0.597   9.306 -0.9197 -0.6659 -2.1903
    2SAPS  H13Y  250   5.558   0.460   9.385 -0.0703 -0.0205 -0.1426
    2SAPS  C314  251   5.583   0.460   9.167  0.2073 -0.1466  0.2479
    2SAPS  H14X  252   5.662   0.382   9.175  0.3589 -0.1029 -0.7602
    2SAPS  H14Y  253   5.590   0.536   9.086 -1.8835 -0.6429 -0.4659
    2SAPS  C315  254   5.441   0.398   9.149  0.5264 -0.2686  1.1099
    2SAPS  H15X  255   5.372   0.475   9.108  2.5359  0.5230 -1.0213
    2SAPS  H15Y  256   5.400   0.369   9.248  0.9756 -1.9086  0.8527
    2SAPS  C316  257   5.416   0.276   9.057  0.2355 -0.0608  0.2840
    2SAPS  H16X  258   5.307   0.259   9.064 -0.1652  2.3034  0.5472
    2SAPS  H16Y  259   5.464   0.187   9.103  1.0936  0.3390  0.1836
    2SAPS  C317  260   5.450   0.297   8.913  0.5437  0.1670  0.1431
    2SAPS  H17X  261   5.482   0.403   8.907 -2.4582  1.0755 -2.0030
    2SAPS  H17Y  262   5.362   0.295   8.845  1.5168  0.9460 -1.1940
    2SAPS  C318  263   5.568   0.210   8.858 -0.4090 -0.5527  0.4287
    2SAPS  H18X  264   5.604   0.135   8.932  1.2599 -0.1479  0.0749
    2SAPS  H18Y  265   5.657   0.277   8.846 -1.1688  0.4594  0.3317
    2SAPS  H18Z  266   5.533   0.165   8.763  1.2010  2.9884 -2.0537
    3SAPS     N  267   0.313   2.736  11.152 -0.0997  0.2665  0.5671
    3SAPS   HN1  268   0.219   2.705  11.120  1.6101 -1.3066 -3.6143
    3SAPS   HN2  269   0.375   2.713  11.071 -1.3858 -0.1433 -0.3433
    3SAPS   HN3  270   0.349   2.684  11.234  2.5301 -0.2584 -0.8035
    3SAPS   C12  271   0.313   2.877  11.184 -0.7021  0.1988 -0.3550
    3SAPS  H12A  272   0.244   2.886  11.266 -0.7952 -2.4297 -0.0398
    3SAPS   C13  273   0.448   2.931  11.232 -0.3592  0.1156  0.5706
    3SAPS  O13A  274   0.549   2.865  11.215 -0.8587 -0.3654  0.4904
    3SAPS  O13B  275   0.443   3.016  11.326  0.1408 -1.2081 -0.1479
    3SAPS   C11  276   0.265   2.951  11.054 -0.0532 -0.3765  0.5536
    3SAPS  H11A  277   0.346   2.940  10.979 -0.6884  1.5004 -0.4812
    3SAPS  H11B  278   0.273   3.061  11.061  1.0704 -0.5476  2.8040
    3SAPS     P  279   0.057   2.982  10.897  0.1840  0.4394  0.5160
    3SAPS   O13  280  -0.073   2.919  10.888 -0.0863 -0.2115 -0.0909
    3SAPS   O14  281   0.060   3.127  10.928 -0.3602 -0.7431  0.0422
    3SAPS   O12  282   0.140   2.903  11.005  0.1201  0.3820  0.0617
    3SAPS   O11  283   0.144   2.965  10.768  0.2097  0.5457 -0.3778
    3SAPS    C1  284   0.195   2.834  10.731  0.3380 -0.3377 -0.2247
    3SAPS    HA  285   0.274   2.799  10.801 -0.2030 -3.1918 -0.9243
    3SAPS    HB  286   0.113   2.759  10.734  0.2342 -0.1852  1.5340
    3SAPS    C2  287   0.240   2.848  10.586  0.0369  0.5039  0.3105
    3SAPS    HS  288   0.326   2.918  10.575 -0.0958  0.9915  2.0091
    3SAPS   O21  289   0.120   2.881  10.498 -0.6745  0.1853  0.0623
    3SAPS   C21  290   0.160   2.953  10.391 -0.1021  0.4441  0.0998
    3SAPS   O22  291   0.262   3.018  10.383  0.2503 -0.6711 -0.4817
    3SAPS   C22  292   0.053   2.948  10.283 -0.7179 -0.1808  0.7346
    3SAPS   H2R  293   0.103   2.899  10.197 -1.6831 -0.7470  0.4854
    3SAPS   H2S  294  -0.030   2.883  10.318 -0.3443 -1.0281  0.0856
    3SAPS    C3  295   0.308   2.713  10.543 -0.1607 -0.4384 -0.0989
    3SAPS    HX  296   0.229   2.637  10.524  0.5899 -1.3412  0.3106
    3SAPS    HY  297   0.382   2.692  10.623 -0.2569 -0.8008 -0.1064
    3SAPS   O31  298   0.370   2.729  10.414 -0.1170  0.0303  0.1591
    3SAPS   C31  299   0.500   2.707  10.401  0.1420 -0.4595  1.2173
    3SAPS   O32  300   0.575   2.680  10.487  0.4107  0.4137  0.2319
    3SAPS   C32  301   0.546   2.734  10.254  0.3650  0.4695 -0.1375
    3SAPS   H2X  302   0.604   2.642  10.231  0.8723  0.6447  0.4054
    3SAPS   H2Y  303   0.622   2.815  10.261  0.8908  0.1359 -1.5620
    3SAPS   C23  304  -0.013   3.077  10.243  0.1790 -0.1694 -0.4848
    3SAPS   H3R  305   0.070   3.145  10.215 -0.5510 -0.4868 -3.8219
    3SAPS   H3S  306  -0.068   3.115  10.331  0.2406 -0.7279 -0.1979
    3SAPS   C24  307  -0.101   3.081  10.112  0.1541 -0.2353 -0.2608
    3SAPS   H4R  308  -0.173   2.997  10.125  0.4464 -0.1176  2.8408
    3SAPS   H4S  309  -0.038   3.056  10.024  1.3080  0.7386  0.2607
    3SAPS   C25  310  -0.162   3.217  10.089  0.5890 -0.1234  0.5348
    3SAPS   H5R  311  -0.214   3.261  10.175  0.3086  0.4005  0.0991
    3SAPS   C26  312  -0.162   3.293   9.974  0.1071  0.5749  0.6567
    3SAPS   H6R  313  -0.222   3.384   9.965 -1.4539 -0.3794  1.1322
    3SAPS   C27  314  -0.097   3.255   9.844  0.1651 -1.0757  0.0640
    3SAPS   H7R  315  -0.175   3.227   9.770  0.1369 -0.0070 -0.3232
    3SAPS   H7S  316  -0.037   3.162   9.859  1.0960 -0.2155  1.9900
    3SAPS   C28  317  -0.010   3.364   9.793  0.4887 -0.2331  0.0082
    3SAPS   H8R  318   0.036   3.435   9.863 -2.4949  0.4314  1.4530
    3SAPS   C29  319   0.016   3.383   9.667  0.2937  0.2355 -0.1956
    3SAPS   H9R  320   0.076   3.472   9.646  2.0874 -1.0165 -0.6101
    3SAPS  C210  321  -0.028   3.291   9.549  0.7609  0.8369 -0.6567
    3SAPS  H10R  322  -0.125   3.332   9.513 -1.4411 -1.9988  1.5517
    3SAPS  H10S  323  -0.051   3.189   9.587  3.7251  0.8584  1.5474
    3SAPS  C211  324   0.081   3.290   9.445 -0.4362 -0.6046 -0.3992
    3SAPS  H11R  325   0.182   3.277   9.487 -1.2916 -0.7240  1.7520
    3SAPS  C212  326   0.065   3.303   9.311 -0.1751  0.6125 -0.5971
    3SAPS  H12R  327   0.151   3.301   9.243 -0.1955 -3.4410 -0.7171
    3SAPS  C213  328  -0.059   3.313   9.237  0.4002  0.4799  0.0987
    3SAPS  H13R  329  -0.028   3.334   9.132 -2.4555 -1.7424 -1.3577
    3SAPS  H13S  330  -0.106   3.400   9.287  0.0026 -1.4820  3.4856
    3SAPS  C214  331  -0.156   3.191   9.249  0.9151  0.1437 -0.4337
    3SAPS  H14R  332  -0.184   3.176   9.355  2.2694 -2.8363 -0.3879
    3SAPS  C215  333  -0.213   3.112   9.154 -0.2466 -0.2620  0.7537
    3SAPS  H15R  334  -0.292   3.038   9.170 -0.2200 -0.5592 -0.3993
    3SAPS  C216  335  -0.176   3.140   9.007 -0.4347 -0.4336  0.4139
    3SAPS  H16R  336  -0.112   3.228   8.983 -1.7461  1.4178  3.1246
    3SAPS  H16S  337  -0.263   3.143   8.938 -0.4018 -1.6098  0.3057
    3SAPS  C217  338  -0.089   3.021   8.967 -0.1633  0.4311  1.3718
    3SAPS  H17R  339  -0.151   2.931   8.986  0.2717  0.0758  1.1105
    3SAPS  H17S  340  -0.001   3.014   9.035 -0.5163 -0.9831  1.7201
    3SAPS  C218  341  -0.048   3.029   8.811 -0.4166  0.5944 -0.3350
    3SAPS  H18R  342   0.028   3.109   8.799  0.1315  0.2327  0.5947
    3SAPS  H18S  343  -0.133   3.062   8.749 -0.5356  0.7426 -0.0944
    3SAPS  C219  344   0.006   2.900   8.755 -0.7252  0.2882  0.2022
    3SAPS  H19R  345  -0.072   2.820   8.757 -0.1032 -0.4611 -1.9770
    3SAPS  H19S  346   0.091   2.866   8.818 -1.5936 -0.3901  1.0517
    3SAPS  C220  347   0.051   2.906   8.608  0.9216  0.1367 -0.3248
    3SAPS  H20R  348   0.063   2.806   8.561 -0.8920  0.7157 -2.1106
    3SAPS  H20S  349   0.138   2.976   8.603  1.1901 -0.0977  0.7655
    3SAPS  H20T  350  -0.024   2.954   8.542  0.4118  0.2753  0.3449
    3SAPS   C33  351   0.435   2.753  10.148 -0.1557 -0.1718 -0.3004
    3SAPS   H3X  352   0.448   2.851  10.097  1.9202 -0.5377 -0.5367
    3SAPS   H3Y  353   0.334   2.726  10.188 -0.6838  0.4237 -1.2023
    3SAPS   C34  354   0.472   2.656  10.034  1.2044 -0.2718  0.8648
    3SAPS   H4X  355   0.391   2.672   9.960 -0.3710  0.6038  2.6866
    3SAPS   H4Y  356   0.462   2.553  10.073  1.3246 -0.2839  0.8633
    3SAPS   C35  357   0.613   2.666   9.974  0.4713 -0.0784 -0.3222
    3SAPS   H5X  358   0.688   2.657  10.056  0.1763  0.1698 -0.0245
    3SAPS   H5Y  359   0.621   2.760   9.916 -0.0728  0.4831  0.5008
    3SAPS   C36  360   0.653   2.551   9.887  0.2153  0.5288 -0.2788
    3SAPS   H6X  361   0.658   2.451   9.934  0.3720  0.8418  0.3874
    3SAPS   H6Y  362   0.745   2.577   9.831  1.1564 -2.0842 -0.0542
    3SAPS   C37  363   0.545   2.534   9.779 -0.2469 -0.2123 -0.0925
    3SAPS   H7X  364   0.496   2.630   9.751 -0.1903  0.0536  0.7000
    3SAPS   H7Y  365   0.464   2.465   9.809 -1.5868  1.0900 -0.5735
    3SAPS   C38  366   0.598   2.472   9.648  0.1027  0.1595 -0.5753
    3SAPS   H8X  367   0.635   2.367   9.654 -0.5293 -0.0310  0.1127
    3SAPS   H8Y  368   0.691   2.527   9.621  1.8184 -2.6245 -0.7329
    3SAPS   C39  369   0.511   2.495   9.522 -0.3107 -0.2086  0.2267
    3SAPS   H9X  370   0.484   2.603   9.524 -1.8100 -0.5433 -0.5801
    3SAPS   H9Y  371   0.412   2.444   9.523 -0.2339 -0.4001 -0.9957
    3SAPS  C310  372   0.582   2.450   9.387  0.0026 -0.6394  0.0666
    3SAPS  H10X  373   0.580   2.339   9.389 -0.8162 -0.7031 -1.8485
    3SAPS  H10Y  374   0.689   2.481   9.383 -0.6209  2.4761  3.0198
    3SAPS  C311  375   0.516   2.504   9.260 -0.4853 -0.3346 -0.1064
    3SAPS  H11X  376   0.501   2.613   9.275 -0.6095 -0.2324 -0.9676
    3SAPS  H11Y  377   0.416   2.458   9.256  0.1867 -2.1945  2.1461
    3SAPS  C312  378   0.591   2.462   9.134 -0.0552 -0.7845 -0.3408
    3SAPS  H12X  379   0.601   2.355   9.104 -1.5327 -0.4065 -2.4355
    3SAPS  H12Y  380   0.693   2.505   9.132 -1.0361  1.7839 -2.7343
    3SAPS  C313  381   0.528   2.534   9.018  0.1445 -0.8517 -0.4062
    3SAPS  H13X  382   0.605   2.561   8.943 -0.4310  1.2073 -0.3186
    3SAPS  H13Y  383   0.496   2.638   9.041  2.2122 -0.1342 -0.6537
    3SAPS  C314  384   0.420   2.439   8.950 -0.3396 -0.1276 -0.2039
    3SAPS  H14X  385   0.326   2.436   9.009 -0.4210  0.2384 -0.3127
    3SAPS  H14Y  386   0.469   2.340   8.946 -0.7794 -0.5300  2.4330
    3SAPS  C315  387   0.362   2.490   8.821  1.2689 -0.4911  0.2244
    3SAPS  H15X  388   0.451   2.518   8.760  0.0751 -1.1261 -1.9222
    3SAPS  H15Y  389   0.305   2.583   8.843  1.5254 -0.5243  1.0444
    3SAPS  C316  390   0.254   2.403   8.759 -0.5311  1.4698  0.4293
    3SAPS  H16X  391   0.227   2.435   8.656 -0.6255 -1.5113 -0.5621
    3SAPS  H16Y  392   0.159   2.417   8.816 -0.0363  2.9157  0.9501
    3SAPS  C317  393   0.284   2.249   8.742  0.1770  0.6410  0.0186
    3SAPS  H17X  394   0.311   2.206   8.841 -0.7380  2.0455  0.9279
    3SAPS  H17Y  395   0.370   2.228   8.675  1.1325 -1.2707  1.7165
    3SAPS  C318  396   0.167   2.176   8.672  0.3057 -0.1703  0.8043
    3SAPS  H18X  397   0.141   2.231   8.579  1.6762  0.5230  0.8016
    3SAPS  H18Y  398   0.075   2.164   8.733  0.6616  1.4136  1.7025
    3SAPS  H18Z  399   0.199   2.080   8.626  0.8778  0.3560  0.0807
    4SAPS     N  400   1.436   3.750  10.894 -0.0251  0.6354 -0.5675
    4SAPS   HN1  401   1.499   3.667  10.906  1.1653  1.6080  0.1327
    4SAPS   HN2  402   1.493   3.837  10.893 -0.0384  0.6609  0.4302
    4SAPS   HN3  403   1.370   3.752  10.974  0.0885 -0.9189 -0.4040
    4SAPS   C12  404   1.355   3.733  10.768  0.4488  0.0328 -0.0994
    4SAPS  H12A  405   1.312   3.634  10.768 -1.4240  0.7637  1.7280
    4SAPS   C13  406   1.249   3.842  10.747 -0.0051  0.2682 -0.4547
    4SAPS  O13A  407   1.255   3.942  10.818  0.1676 -0.1130 -0.3254
    4SAPS  O13B  408   1.150   3.804  10.678  0.6578 -0.0646 -0.3593
    4SAPS   C11  409   1.443   3.742  10.642 -0.2117  0.0527  0.1389
    4SAPS  H11A  410   1.497   3.839  10.639  2.8405 -1.4320  1.8852
    4SAPS  H11B  411   1.383   3.732  10.549  0.4242 -0.3079 -0.2453
    4SAPS     P  412   1.509   3.495  10.565 -0.1970 -0.2868 -0.0017
    4SAPS   O13  413   1.589   3.486  10.440  0.6089 -0.5125 -0.1989
    4SAPS   O14  414   1.533   3.385  10.657 -0.4342 -0.1117 -0.4840
    4SAPS   O12  415   1.530   3.627  10.650 -0.1220 -0.0429  0.6309
    4SAPS   O11  416   1.357   3.504  10.528 -0.6704 -0.6360  0.7501
    4SAPS    C1  417   1.304   3.400  10.444  0.1168  0.9495 -0.1916
    4SAPS    HA  418   1.380   3.324  10.416  1.0073  0.8990  2.2039
    4SAPS    HB  419   1.224   3.346  10.498 -0.0641  0.9123 -0.4959
    4SAPS    C2  420   1.247   3.464  10.317 -0.6181 -0.1811  0.4635
    4SAPS    HS  421   1.197   3.555  10.359 -0.1923  0.3520 -0.1718
    4SAPS   O21  422   1.159   3.373  10.258 -0.2072  0.2417  0.3418
    4SAPS   C21  423   1.033   3.377  10.310 -1.1586  0.0108  0.0302
    4SAPS   O22  424   0.998   3.457  10.395  0.5540 -0.0505 -0.0258
    4SAPS   C22  425   0.950   3.269  10.232 -0.3431 -0.1917  0.7257
    4SAPS   H2R  426   0.985   3.259  10.127  0.3893 -0.7411  1.0157
    4SAPS   H2S  427   0.968   3.172  10.283  0.8349 -0.4111 -0.0807
    4SAPS    C3  428   1.355   3.515  10.213 -0.4797  0.8069 -0.1610
    4SAPS    HX  429   1.424   3.431  10.188  0.1917  1.3784 -0.2727
    4SAPS    HY  430   1.418   3.592  10.263  2.2944  0.6620 -3.0878
    4SAPS   O31  431   1.297   3.565  10.100 -0.5491 -0.5381  0.2678
    4SAPS   C31  432   1.389   3.610  10.013 -0.3106 -0.2002  0.3408
    4SAPS   O32  433   1.509   3.614  10.030 -0.1610 -0.3623  0.0798
    4SAPS   C32  434   1.310   3.650   9.891  0.7350  1.0101 -0.7524
    4SAPS   H2X  435   1.203   3.664   9.918  0.4222  1.0627 -1.9634
    4SAPS   H2Y  436   1.317   3.563   9.822  0.4402  1.7181 -1.6912
    4SAPS   C23  437   0.796   3.292  10.223  0.7623  0.1001  0.0792
    4SAPS   H3R  438   0.768   3.400  10.213  1.6470  0.6776  3.0161
    4SAPS   H3S  439   0.759   3.273  10.326  3.1358 -1.2269  0.7442
    4SAPS   C24  440   0.720   3.210  10.111  0.2523  0.1746  0.7940
    4SAPS   H4R  441   0.748   3.255  10.013 -0.9856  3.1988  1.7111
    4SAPS   H4S  442   0.614   3.240  10.121  0.5642  2.2820 -1.3357
    4SAPS   C25  443   0.719   3.063  10.117 -0.1339 -0.6384 -0.3407
    4SAPS   H5R  444   0.645   3.021  10.187 -0.5350 -0.2829 -0.5395
    4SAPS   C26  445   0.802   2.979  10.056 -0.1887 -0.2584 -0.8940
    4SAPS   H6R  446   0.809   2.874  10.089  1.2741 -0.4955 -1.8807
    4SAPS   C27  447   0.908   3.024   9.952 -0.6111  0.1177  0.1557
    4SAPS   H7R  448   1.010   3.033   9.996  0.1279 -0.7705 -1.2969
    4SAPS   H7S  449   0.887   3.127   9.916  1.8765  0.0125 -1.9164
    4SAPS   C28  450   0.912   2.927   9.841 -0.6235  0.5563  0.0544
    4SAPS   H8R  451   0.989   2.849   9.849  0.1628  1.3716  0.6024
    4SAPS   C29  452   0.825   2.927   9.737 -0.6980 -0.9086  0.2136
    4SAPS   H9R  453   0.822   2.838   9.674  0.8481 -0.3300 -0.7212
    4SAPS  C210  454   0.709   3.031   9.717  0.3689  1.0554  0.8565
    4SAPS  H10R  455   0.682   3.100   9.800 -0.3949 -1.3898  2.7418
    4SAPS  H10S  456   0.613   2.980   9.696  1.4302 -0.4774 -0.5120
    4SAPS  C211  457   0.742   3.119   9.600  0.0350 -0.0657  0.0674
    4SAPS  H11R  458   0.815   3.198   9.625  0.0379 -0.2271  0.5800
    4SAPS  C212  459   0.704   3.099   9.476  0.5268 -0.1341  0.2526
    4SAPS  H12R  460   0.744   3.171   9.404 -0.2558  1.4469  1.3321
    4SAPS  C213  461   0.614   2.995   9.411 -0.5706  0.5540 -0.3890
    4SAPS  H13R  462   0.628   2.897   9.463  2.5810  0.4825 -1.1906
    4SAPS  H13S  463   0.656   2.970   9.312  4.5867 -1.1840  1.8833
    4SAPS  C214  464   0.466   3.038   9.410 -0.2692  0.3190 -0.8828
    4SAPS  H14R  465   0.433   3.077   9.508  0.7817 -2.0957  0.5101
    4SAPS  C215  466   0.383   3.030   9.303  0.5762  0.2663  0.6695
    4SAPS  H15R  467   0.280   3.063   9.322  0.8510  2.0480 -0.6605
    4SAPS  C216  468   0.415   2.993   9.154 -0.3019  0.2250  0.2676
    4SAPS  H16R  469   0.430   2.883   9.158 -0.9897  0.0331 -1.3946
    4SAPS  H16S  470   0.516   3.029   9.128  0.4723 -0.3590  2.2883
    4SAPS  C217  471   0.310   3.054   9.051 -0.7147  0.1149  0.4052
    4SAPS  H17R  472   0.207   3.033   9.087 -1.1030 -0.0108 -0.7216
    4SAPS  H17S  473   0.323   3.004   8.952 -0.5275  0.1703  0.4015
    4SAPS  C218  474   0.322   3.202   9.021 -0.2127  0.6940  0.6065
    4SAPS  H18R  475   0.412   3.225   8.960 -1.9330  2.9185 -1.2618
    4SAPS  H18S  476   0.347   3.254   9.116  1.2794 -0.5236  0.9286
    4SAPS  C219  477   0.202   3.275   8.955  0.0418 -0.1320  0.2080
    4SAPS  H19R  478   0.101   3.247   8.991  0.3724 -1.1539  0.3746
    4SAPS  H19S  479   0.209   3.250   8.847 -1.8425  1.7987 -0.4460
    4SAPS  C220  480   0.218   3.425   8.966 -0.2812 -0.7155  0.0784
    4SAPS  H20R  481   0.123   3.474   8.936  0.8990  1.0132 -1.0444
    4SAPS  H20S  482   0.299   3.470   8.904  0.4697 -0.0893  1.4779
    4SAPS  H20T  483   0.246   3.457   9.069  0.6105 -0.8286 -0.1221
    4SAPS   C33  484   1.359   3.769   9.820  0.1529 -0.6677  0.7262
    4SAPS   H3X  485   1.464   3.771   9.785 -0.1959  0.6698 -0.3641
    4SAPS   H3Y  486   1.352   3.864   9.877  0.5918  1.9917 -3.2621
    4SAPS   C34  487   1.275   3.800   9.687 -0.7765 -0.7188 -0.2544
    4SAPS   H4X  488   1.281   3.909   9.665  1.5715 -0.7125  0.1375
    4SAPS   H4Y  489   1.167   3.776   9.701 -1.2889  1.2134 -0.5160
    4SAPS   C35  490   1.337   3.736   9.562 -0.5743  0.6957 -0.8473
    4SAPS   H5X  491   1.343   3.627   9.579  1.6459  0.5252 -2.2549
    4SAPS   H5Y  492   1.445   3.764   9.553  0.0205 -1.9026 -3.0185
    4SAPS   C36  493   1.273   3.760   9.424  0.0408  0.3069  0.0797
    4SAPS   H6X  494   1.310   3.860   9.392 -0.4673  0.9488  1.4399
    4SAPS   H6Y  495   1.165   3.760   9.398  0.1685  3.0570 -0.8034
    4SAPS   C37  496   1.329   3.655   9.320  0.0065 -0.0159  0.3976
    4SAPS   H7X  497   1.312   3.546   9.334 -1.7864  0.0011 -1.2469
    4SAPS   H7Y  498   1.440   3.665   9.324  0.1392 -0.4474 -1.3427
    4SAPS   C38  499   1.287   3.698   9.180  0.2684 -0.5681  0.7663
    4SAPS   H8X  500   1.302   3.806   9.161 -1.4046 -0.3886  0.2861
    4SAPS   H8Y  501   1.180   3.675   9.160  0.8446 -2.7596 -0.1413
    4SAPS   C39  502   1.373   3.630   9.068  0.4678 -0.2440 -1.0641
    4SAPS   H9X  503   1.388   3.524   9.098 -1.9758  0.4597  3.4580
    4SAPS   H9Y  504   1.475   3.675   9.061  0.5061 -0.5755 -4.5014
    4SAPS  C310  505   1.323   3.639   8.928 -0.6518  0.8569 -0.0992
    4SAPS  H10X  506   1.340   3.742   8.889 -0.7145  1.0432  0.3595
    4SAPS  H10Y  507   1.214   3.621   8.926 -0.2922 -1.6610 -1.4870
    4SAPS  C311  508   1.400   3.536   8.835  0.1141  0.3647 -0.4207
    4SAPS  H11X  509   1.504   3.527   8.872  0.0011  0.1199 -0.1591
    4SAPS  H11Y  510   1.398   3.577   8.732  0.2157  0.1389 -0.5147
    4SAPS  C312  511   1.319   3.401   8.844  0.2113 -0.1026  0.1086
    4SAPS  H12X  512   1.215   3.438   8.843  0.7842  1.6263  0.1998
    4SAPS  H12Y  513   1.330   3.344   8.939 -1.8606  0.5456  0.7826
    4SAPS  C313  514   1.340   3.291   8.741  0.1652  0.4093 -0.5867
    4SAPS  H13X  515   1.281   3.201   8.766  0.1197  0.8024  0.8241
    4SAPS  H13Y  516   1.447   3.260   8.748  0.3492  0.7833 -1.5539
    4SAPS  C314  517   1.309   3.318   8.599 -0.3439 -0.4034 -0.3844
    4SAPS  H14X  518   1.361   3.410   8.564  1.3343 -1.0719  0.2827
    4SAPS  H14Y  519   1.203   3.344   8.578 -0.3856 -1.3804 -1.5038
    4SAPS  C315  520   1.358   3.215   8.498  0.1085  0.3102 -0.1529
    4SAPS  H15X  521   1.312   3.119   8.529  0.5564  0.3707  0.7165
    4SAPS  H15Y  522   1.468   3.203   8.511  0.1486  0.1236 -0.6404
    4SAPS  C316  523   1.340   3.250   8.354 -0.0262 -0.8646 -0.6483
    4SAPS  H16X  524   1.426   3.219   8.292  0.4535 -1.4426  0.2873
    4SAPS  H16Y  525   1.347   3.361   8.345  1.6796 -1.1034 -3.0119
    4SAPS  C317  526   1.215   3.187   8.295 -0.2130  0.3465 -0.0543
    4SAPS  H17X  527   1.134   3.244   8.345 -1.0158 -0.1293 -0.8083
    4SAPS  H17Y  528   1.214   3.079   8.323  2.5228  0.3810  0.4770
    4SAPS  C318  529   1.207   3.187   8.149  0.0122  0.3704  0.0981
    4SAPS  H18X  530   1.104   3.152   8.126 -0.8527  2.8579 -0.0856
    4SAPS  H18Y  531   1.275   3.108   8.110  0.4699 -0.6955  2.7978
    4SAPS  H18Z  532   1.230   3.281   8.096 -0.0377  0.0626 -0.4788
    5SAPS     N  533   6.304   2.855  11.270  0.0086  0.1410  0.3390
    5SAPS   HN1  534   6.235   2.927  11.298 -0.1717 -0.4301  1.4174
    5SAPS   HN2  535   6.363   2.832  11.353 -2.9457 -1.6415  2.1037
    5SAPS   HN3  536   6.358   2.901  11.194  1.3411  2.5984  2.6033
    5SAPS   C12  537   6.222   2.731  11.218  0.0586  0.4620 -0.2278
    5SAPS  H12A  538   6.294   2.654  11.195 -1.2292 -0.7411 -0.3791
    5SAPS   C13  539   6.115   2.685  11.321 -0.9131  0.1976  0.3240
    5SAPS  O13A  540   6.086   2.756  11.416 -0.4175  0.6548 -0.1955
    5SAPS  O13B  541   6.051   2.583  11.289 -0.5226 -0.0457 -0.1965
    5SAPS   C11  542   6.146   2.761  11.089 -0.6850 -1.2369  0.0753
    5SAPS  H11A  543   6.064   2.836  11.085 -0.8260 -1.3638 -3.9730
    5SAPS  H11B  544   6.088   2.668  11.068 -0.4691 -1.7336  1.5601
    5SAPS     P  545   6.312   2.687  10.896  0.0495 -0.0446  0.2350
    5SAPS   O13  546   6.358   2.737  10.768  0.3559 -0.1662 -0.3270
    5SAPS   O14  547   6.415   2.621  10.989  0.2015 -0.4897  0.0421
    5SAPS   O12  548   6.222   2.796  10.972 -0.0453 -0.4702  0.1955
    5SAPS   O11  549   6.200   2.582  10.848  0.0639 -0.0725  0.0420
    5SAPS    C1  550   6.110   2.606  10.737  1.0581  0.1718 -0.4779
    5SAPS    HA  551   6.018   2.548  10.758  1.3613  0.7554  3.0051
    5SAPS    HB  552   6.077   2.712  10.727 -0.7330  0.0628  2.8793
    5SAPS    C2  553   6.165   2.565  10.598 -0.1336  0.6153  0.1050
    5SAPS    HS  554   6.231   2.649  10.565  1.4449 -1.1219 -1.3844
    5SAPS   O21  555   6.048   2.541  10.521 -0.1576  0.4147 -0.3575
    5SAPS   C21  556   6.029   2.620  10.422 -1.0538  0.5329 -0.4202
    5SAPS   O22  557   6.107   2.705  10.380 -0.0915 -0.0449 -0.5678
    5SAPS   C22  558   5.898   2.572  10.343 -0.6957  0.4551  0.3202
    5SAPS   H2R  559   5.829   2.659  10.349 -0.4890  0.6837 -0.4491
    5SAPS   H2S  560   5.932   2.548  10.240  0.3495  1.9097  0.2756
    5SAPS    C3  561   6.245   2.438  10.617 -0.3974  0.1707  0.9997
    5SAPS    HX  562   6.189   2.379  10.693 -0.0775  2.8318  3.4573
    5SAPS    HY  563   6.344   2.461  10.662  0.7302 -1.7439 -0.3069
    5SAPS   O31  564   6.251   2.360  10.504  0.6514 -0.6076  0.0534
    5SAPS   C31  565   6.371   2.361  10.431 -0.1855  0.3691 -0.3722
    5SAPS   O32  566   6.473   2.419  10.454  0.7425  0.1059 -0.1051
    5SAPS   C32  567   6.358   2.269  10.318  0.4454  0.5424 -0.1010
    5SAPS   H2X  568   6.351   2.160  10.341  0.5052  0.2255 -1.4807
    5SAPS   H2Y  569   6.448   2.273  10.254 -0.0776  0.6477 -0.8366
    5SAPS   C23  570   5.816   2.460  10.410 -0.2922 -0.1043 -0.7655
    5SAPS   H3R  571   5.738   2.512  10.470 -1.1430 -0.6996 -1.3343
    5SAPS   H3S  572   5.867   2.397  10.486 -1.1572  1.1148  0.8895
    5SAPS   C24  573   5.755   2.369  10.303 -0.7033 -0.3495 -0.3730
    5SAPS   H4R  574   5.703   2.428  10.224  1.3127  2.0210 -0.0738
    5SAPS   H4S  575   5.672   2.321  10.358  0.8696 -0.5871  1.9500
    5SAPS   C25  576   5.851   2.269  10.238  0.6852 -0.2500 -0.0102
    5SAPS   H5R  577   5.884   2.195  10.313 -1.9823  0.8908  2.4714
    5SAPS   C26  578   5.895   2.265  10.112  0.1261  0.4779 -0.0004
    5SAPS   H6R  579   5.959   2.186  10.070 -0.9305 -0.3592 -0.0811
    5SAPS   C27  580   5.857   2.374  10.012  0.2721  0.3286  0.7061
    5SAPS   H7R  581   5.763   2.425  10.042  0.5782  1.0991  0.3736
    5SAPS   H7S  582   5.832   2.320   9.918 -1.7190 -0.4083  1.5914
    5SAPS   C28  583   5.967   2.472   9.978  0.1097 -0.3946  0.0069
    5SAPS   H8R  584   6.042   2.504  10.052  1.2052  0.6438 -1.4841
    5SAPS   C29  585   5.992   2.520   9.852 -0.0136  0.0500 -0.5021
    5SAPS   H9R  586   6.075   2.591   9.838  0.8692 -0.9090 -0.3359
    5SAPS  C210  587   5.918   2.492   9.722 -0.7076 -0.2125  0.2087
    5SAPS  H10R  588   5.890   2.580   9.659 -1.7013 -0.4150  0.3414
    5SAPS  H10S  589   5.821   2.439   9.730  0.4039 -2.1330  1.7145
    5SAPS  C211  590   6.013   2.398   9.643 -0.0239  0.0655  0.2100
    5SAPS  H11R  591   6.061   2.318   9.701  0.1639  0.2942  0.3693
    5SAPS  C212  592   6.038   2.399   9.508 -0.5705  0.2095 -0.1170
    5SAPS  H12R  593   6.101   2.318   9.468 -0.8624  0.8413 -1.9522
    5SAPS  C213  594   5.984   2.492   9.406 -0.0977  0.3835  0.7969
    5SAPS  H13R  595   6.053   2.493   9.318 -0.2379  2.2580  0.6560
    5SAPS  H13S  596   5.981   2.600   9.432  0.1626  0.9336 -1.2269
    5SAPS  C214  597   5.853   2.455   9.344  0.1870  0.4126  0.2241
    5SAPS  H14R  598   5.803   2.372   9.397  1.7656  0.2779  1.5900
    5SAPS  C215  599   5.804   2.511   9.226 -0.5322  0.3777 -0.2968
    5SAPS  H15R  600   5.708   2.482   9.182 -0.8566  0.9564  0.0301
    5SAPS  C216  601   5.871   2.617   9.136 -0.4509 -0.6448 -0.3256
    5SAPS  H16R  602   5.975   2.632   9.170 -0.5701  2.4940 -1.0573
    5SAPS  H16S  603   5.827   2.717   9.156  0.0414  0.3705 -3.7551
    5SAPS  C217  604   5.865   2.594   8.987  0.5473 -0.6858  0.8747
    5SAPS  H17R  605   5.912   2.497   8.960  2.1232  0.2901 -0.0398
    5SAPS  H17S  606   5.923   2.668   8.927 -2.2208 -0.7076 -2.1332
    5SAPS  C218  607   5.716   2.605   8.931 -0.7151 -1.2672 -0.1635
    5SAPS  H18R  608   5.661   2.518   8.974 -2.0711  0.6609  2.2313
    5SAPS  H18S  609   5.680   2.704   8.965 -0.7686 -1.1611 -0.5175
    5SAPS  C219  610   5.715   2.598   8.779  0.1633 -0.0482  0.2111
    5SAPS  H19R  611   5.774   2.675   8.726 -1.2066  0.4700 -0.6237
    5SAPS  H19S  612   5.616   2.625   8.736  1.1085  0.2910 -1.8464
    5SAPS  C220  613   5.756   2.457   8.726  0.0829  0.0406 -0.1694
    5SAPS  H20R  614   5.683   2.381   8.760  0.9124 -0.1182  1.3203
    5SAPS  H20S  615   5.856   2.422   8.759 -0.0544 -0.7439 -0.5573
    5SAPS  H20T  616   5.749   2.466   8.615  0.8958 -0.5689 -0.2757
    5SAPS   C33  617   6.235   2.298  10.221  0.0889 -0.2295 -0.2239
    5SAPS   H3X  618   6.228   2.409  10.218  1.5312 -0.1488 -1.7851
    5SAPS   H3Y  619   6.142   2.245  10.252  1.8593 -2.0002  2.4730
    5SAPS   C34  620   6.261   2.263  10.071  0.3823  0.6522 -0.2129
    5SAPS   H4X  621   6.325   2.348  10.039  1.3473 -0.0976 -0.3122
    5SAPS   H4Y  622   6.164   2.269  10.017 -1.7990  0.8330  3.3526
    5SAPS   C35  623   6.326   2.130  10.044  0.9572 -0.4134  0.1614
    5SAPS   H5X  624   6.275   2.046  10.096 -0.4730  0.7040  0.6203
    5SAPS   H5Y  625   6.425   2.137  10.093  1.1570 -0.1015 -0.2798
    5SAPS   C36  626   6.313   2.091   9.895  0.3379 -0.3924  0.3569
    5SAPS   H6X  627   6.212   2.109   9.852  0.3687 -0.8694  0.0833
    5SAPS   H6Y  628   6.338   1.985   9.878 -1.0323 -1.0214  2.0184
    5SAPS   C37  629   6.427   2.160   9.820  0.5922 -0.1584 -0.3581
    5SAPS   H7X  630   6.527   2.140   9.863  0.0824 -3.0141 -0.2935
    5SAPS   H7Y  631   6.417   2.270   9.821  0.8502 -0.1346  0.4739
    5SAPS   C38  632   6.415   2.118   9.669 -0.0832  0.1498  0.1700
    5SAPS   H8X  633   6.310   2.146   9.643  0.0829  0.0287 -0.6641
    5SAPS   H8Y  634   6.438   2.010   9.661  0.7021  0.2754  0.6476
    5SAPS   C39  635   6.512   2.196   9.579  0.5423 -0.0595 -0.6029
    5SAPS   H9X  636   6.613   2.153   9.590  0.3611 -0.3863 -0.2269
    5SAPS   H9Y  637   6.520   2.303   9.608 -1.3991 -0.4648  1.7363
    5SAPS  C310  638   6.482   2.164   9.429  0.1693 -0.0048 -0.2298
    5SAPS  H10X  639   6.374   2.141   9.415 -0.2000  2.3602 -1.7917
    5SAPS  H10Y  640   6.534   2.071   9.399 -1.3657 -0.7063 -0.8107
    5SAPS  C311  641   6.514   2.272   9.337 -0.1673 -0.4446  0.1093
    5SAPS  H11X  642   6.568   2.215   9.259 -0.7561 -0.2035 -0.4891
    5SAPS  H11Y  643   6.590   2.342   9.378  0.0588  1.6579 -3.4860
    5SAPS  C312  644   6.401   2.354   9.267  0.3708 -0.3275  0.4443
    5SAPS  H12X  645   6.367   2.440   9.328 -4.4420 -0.9032 -1.0100
    5SAPS  H12Y  646   6.309   2.293   9.253 -0.0602 -0.6509  3.9266
    5SAPS  C313  647   6.445   2.418   9.131  0.4646 -0.8012 -0.5556
    5SAPS  H13X  648   6.495   2.338   9.072  0.6959 -1.5844  0.6813
    5SAPS  H13Y  649   6.511   2.506   9.143  0.4338 -0.9564  0.9117
    5SAPS  C314  650   6.321   2.478   9.054 -0.0128  0.1738 -0.7358
    5SAPS  H14X  651   6.272   2.555   9.118  1.9943 -0.3214  1.5122
    5SAPS  H14Y  652   6.250   2.392   9.051  1.9588 -1.5657 -0.1316
    5SAPS  C315  653   6.352   2.528   8.918 -0.2993  0.6751  0.6867
    5SAPS  H15X  654   6.411   2.459   8.854  1.1122  4.0262 -1.9107
    5SAPS  H15Y  655   6.423   2.613   8.923  0.7915 -0.2705  2.1195
    5SAPS  C316  656   6.224   2.558   8.834 -0.3352  0.0213  0.1649
    5SAPS  H16X  657   6.174   2.646   8.881 -0.7971 -0.8900  1.4310
    5SAPS  H16Y  658   6.157   2.470   8.837 -0.4668  0.0704 -1.0319
    5SAPS  C317  659   6.251   2.600   8.694  0.0178 -0.4169  0.1080
    5SAPS  H17X  660   6.308   2.520   8.643  1.2483 -1.2867  2.6754
    5SAPS  H17Y  661   6.316   2.690   8.699 -0.1171 -0.3039 -0.1569
    5SAPS  C318  662   6.122   2.633   8.612  0.0060 -0.5671 -0.0758
    5SAPS  H18X  663   6.073   2.722   8.656  0.4782 -0.6846  0.7169
    5SAPS  H18Y  664   6.057   2.544   8.599  0.3714 -0.9408  0.5944
    5SAPS  H18Z  665   6.157   2.678   8.516 -1.2805  3.5234  1.1722
    6SAPS     N  666   3.667   2.841  10.855 -0.4737 -0.4495 -0.5192
    6SAPS   HN1  667   3.730   2.913  10.815  0.9118 -1.1984  0.2258
    6SAPS   HN2  668   3.580   2.849  10.798 -0.5222 -3.7866 -1.1179
    6SAPS   HN3  669   3.646   2.868  10.954 -0.6107 -0.9143 -0.4158
    6SAPS   C12  670   3.721   2.703  10.830 -0.3822  1.0838 -0.1071
    6SAPS  H12A  671   3.802   2.679  10.897 -0.0171 -0.7597 -1.1362
    6SAPS   C13  672   3.610   2.598  10.852 -0.4289  0.4752  0.5742
    6SAPS  O13A  673   3.496   2.623  10.892  0.0241  0.4411 -0.0278
    6SAPS  O13B  674   3.642   2.476  10.814  0.0491  0.6305 -0.3079
    6SAPS   C11  675   3.778   2.686  10.678  0.6420  0.3021  0.0764
    6SAPS  H11A  676   3.701   2.676  10.599  2.0233  0.2765 -1.3227
    6SAPS  H11B  677   3.836   2.592  10.669 -0.6926 -0.3866 -2.1882
    6SAPS     P  678   4.011   2.810  10.655  0.2250  0.2215 -0.3716
    6SAPS   O13  679   4.048   2.937  10.597  0.2594  0.2596  0.2645
    6SAPS   O14  680   4.058   2.777  10.789  0.1598 -0.2733 -0.1622
    6SAPS   O12  681   3.854   2.808  10.649 -0.1238  0.2235  0.6552
    6SAPS   O11  682   4.054   2.694  10.556 -0.0722 -0.2078  0.9001
    6SAPS    C1  683   4.036   2.707  10.409 -0.1470 -0.9903 -0.4990
    6SAPS    HA  684   4.018   2.606  10.368 -1.8736 -1.4384  1.2565
    6SAPS    HB  685   3.946   2.766  10.383 -0.2869 -1.2777 -0.6630
    6SAPS    C2  686   4.161   2.776  10.334 -0.4508 -0.2818 -0.3802
    6SAPS    HS  687   4.167   2.887  10.342  3.9352 -0.1427 -2.4578
    6SAPS   O21  688   4.154   2.732  10.201  0.4163 -0.4184  0.8709
    6SAPS   C21  689   4.188   2.808  10.098 -0.1288  0.0038  0.2399
    6SAPS   O22  690   4.232   2.920  10.112  0.5109 -1.4210  0.0990
    6SAPS   C22  691   4.171   2.717   9.978  0.5521 -0.7732  0.2159
    6SAPS   H2R  692   4.240   2.631   9.991  3.7121  1.5404 -0.2245
    6SAPS   H2S  693   4.066   2.683   9.962  0.8100 -2.7021  2.1135
    6SAPS    C3  694   4.303   2.725  10.399 -0.1898 -0.2040  0.4415
    6SAPS    HX  695   4.312   2.757  10.505 -1.5263  1.0704  0.2029
    6SAPS    HY  696   4.390   2.777  10.353  0.7414 -1.5170  0.6736
    6SAPS   O31  697   4.318   2.575  10.385 -0.0431 -0.1031 -0.5758
    6SAPS   C31  698   4.381   2.532  10.284 -0.0127 -0.2687 -0.1867
    6SAPS   O32  699   4.440   2.602  10.201  0.3144  0.3047  0.0379
    6SAPS   C32  700   4.368   2.381  10.287 -0.1409 -0.9563 -0.2193
    6SAPS   H2X  701   4.303   2.354  10.373 -1.4111  0.5437 -0.6676
    6SAPS   H2Y  702   4.468   2.333  10.296 -0.6623 -1.7133  2.6163
    6SAPS   C23  703   4.229   2.787   9.852  0.0421 -0.1842  0.6837
    6SAPS   H3R  704   4.246   2.716   9.767 -0.2107  1.7038 -1.0171
    6SAPS   H3S  705   4.331   2.829   9.869  0.7684  0.1881 -3.4086
    6SAPS   C24  706   4.142   2.911   9.801 -0.2683 -0.9713 -0.2433
    6SAPS   H4R  707   4.146   2.992   9.877 -0.2769 -1.1373 -0.0652
    6SAPS   H4S  708   4.038   2.877   9.778  0.0907 -1.0241 -1.9501
    6SAPS   C25  709   4.217   2.985   9.692 -0.4878  0.1593 -0.1949
    6SAPS   H5R  710   4.296   3.043   9.742 -2.7096  3.3232 -0.0325
    6SAPS   C26  711   4.204   2.985   9.557  0.7660 -0.3216 -0.4617
    6SAPS   H6R  712   4.272   3.038   9.488 -1.1835  2.0124 -0.7223
    6SAPS   C27  713   4.093   2.902   9.494  0.1573  0.1978  0.5125
    6SAPS   H7R  714   4.005   2.964   9.466  0.0245 -0.0959  0.2676
    6SAPS   H7S  715   4.048   2.827   9.563  1.3250 -1.5319 -0.5369
    6SAPS   C28  716   4.147   2.825   9.375 -0.2313  0.5599 -0.4616
    6SAPS   H8R  717   4.165   2.719   9.396  1.8174  0.9660  0.0112
    6SAPS   C29  718   4.178   2.874   9.250 -0.2720  0.2613  0.3800
    6SAPS   H9R  719   4.194   2.800   9.170 -0.8572 -0.5617  0.9986
    6SAPS  C210  720   4.146   3.013   9.207  0.1779 -0.1124  0.4638
    6SAPS  H10R  721   4.242   3.069   9.206  0.4877 -0.6206 -0.9191
    6SAPS  H10S  722   4.087   3.067   9.284 -0.4922 -0.4239  0.1839
    6SAPS  C211  723   4.064   3.023   9.078  0.1560  0.3558 -0.2201
    6SAPS  H11R  724   3.965   2.975   9.087 -0.1058  0.8651 -0.2980
    6SAPS  C212  725   4.101   3.070   8.954 -0.9602  0.4666 -0.1762
    6SAPS  H12R  726   4.024   3.088   8.878  0.2030 -0.4223 -1.6019
    6SAPS  C213  727   4.237   3.128   8.922  0.7267  0.3218  0.3772
    6SAPS  H13R  728   4.289   3.172   9.010  1.6046 -1.3753  0.7469
    6SAPS  H13S  729   4.230   3.220   8.860  0.9845  1.2057  1.6247
    6SAPS  C214  730   4.334   3.029   8.863  1.3924 -0.6784 -0.3249
    6SAPS  H14R  731   4.308   2.922   8.876 -0.9509 -0.0892  0.4377
    6SAPS  C215  732   4.438   3.067   8.792 -0.1503  0.0843  0.4581
    6SAPS  H15R  733   4.484   2.977   8.748  0.2583 -0.4043  1.8016
    6SAPS  C216  734   4.494   3.204   8.754 -0.0783 -0.5887 -0.1277
    6SAPS  H16R  735   4.590   3.228   8.804  0.5532 -0.4864 -1.3374
    6SAPS  H16S  736   4.429   3.287   8.788  1.9098  1.3028 -0.7177
    6SAPS  C217  737   4.501   3.231   8.600 -0.4281  0.1062 -0.2284
    6SAPS  H17R  738   4.403   3.192   8.567 -0.3323  0.9965 -1.7056
    6SAPS  H17S  739   4.579   3.167   8.554 -1.4410  1.1310 -3.7507
    6SAPS  C218  740   4.527   3.378   8.576 -0.2821 -0.3014 -0.1139
    6SAPS  H18R  741   4.615   3.398   8.640 -0.8940 -0.1028  0.6760
    6SAPS  H18S  742   4.440   3.439   8.606  0.3654  0.1362  0.9157
    6SAPS  C219  743   4.565   3.409   8.430  0.2046 -0.6097  0.1963
    6SAPS  H19R  744   4.601   3.311   8.394  1.4960 -0.0842 -0.0300
    6SAPS  H19S  745   4.651   3.481   8.433 -1.4126  1.4097  0.6399
    6SAPS  C220  746   4.444   3.475   8.352 -0.3663 -0.1433  0.0693
    6SAPS  H20R  747   4.419   3.567   8.409 -0.7785 -1.3297  1.9027
    6SAPS  H20S  748   4.355   3.409   8.366 -1.2669  1.1317  0.5947
    6SAPS  H20T  749   4.464   3.503   8.246  0.6836 -0.5883  0.1431
    6SAPS   C33  750   4.276   2.341  10.168  0.3776 -0.4458 -0.4476
    6SAPS   H3X  751   4.205   2.425  10.155  2.0910  0.9052 -1.3716
    6SAPS   H3Y  752   4.217   2.248  10.185  0.6142 -0.5763 -0.3329
    6SAPS   C34  753   4.357   2.316  10.040  0.1619 -0.2671 -0.2417
    6SAPS   H4X  754   4.434   2.395  10.037  0.4150 -0.3543  2.0528
    6SAPS   H4Y  755   4.285   2.312   9.955  0.2013 -1.7612 -0.2407
    6SAPS   C35  756   4.434   2.183  10.033  0.2412  0.3539 -0.6269
    6SAPS   H5X  757   4.351   2.110  10.045  0.6430 -0.0352 -0.1748
    6SAPS   H5Y  758   4.499   2.183  10.123 -0.0836 -0.8631 -0.3784
    6SAPS   C36  759   4.503   2.158   9.901 -0.5294 -0.4174  0.1414
    6SAPS   H6X  760   4.564   2.066   9.916 -0.1663 -0.0912  0.7147
    6SAPS   H6Y  761   4.563   2.244   9.864 -0.8185  0.4392  1.5787
    6SAPS   C37  762   4.412   2.112   9.786  0.7889 -0.5200  0.2933
    6SAPS   H7X  763   4.314   2.163   9.785  0.0722 -1.4532 -4.9165
    6SAPS   H7Y  764   4.377   2.009   9.812 -1.4894  0.0425 -0.3339
    6SAPS   C38  765   4.483   2.114   9.648  0.7304 -1.0511  0.3909
    6SAPS   H8X  766   4.564   2.043   9.675  0.4629 -1.3266  0.4746
    6SAPS   H8Y  767   4.522   2.217   9.640  0.7169 -1.1157 -0.6025
    6SAPS   C39  768   4.405   2.062   9.528 -0.0390  0.1094  0.0661
    6SAPS   H9X  769   4.322   2.135   9.518  0.2706  0.3689 -0.6470
    6SAPS   H9Y  770   4.367   1.960   9.552 -0.9381  0.3032 -0.5007
    6SAPS  C310  771   4.486   2.058   9.404  0.1393 -0.9492  0.0882
    6SAPS  H10X  772   4.529   1.956   9.405 -0.6793 -1.3013  1.5848
    6SAPS  H10Y  773   4.569   2.132   9.403 -0.1250 -0.5256  2.5642
    6SAPS  C311  774   4.406   2.098   9.279 -0.1780  1.1499 -1.1863
    6SAPS  H11X  775   4.363   2.201   9.279 -1.6359  0.5654 -0.6056
    6SAPS  H11Y  776   4.326   2.022   9.273  0.8759 -0.3247  1.8242
    6SAPS  C312  777   4.494   2.087   9.152  0.0308 -0.1261  0.4638
    6SAPS  H12X  778   4.523   1.982   9.135  2.3651  0.7075 -1.1636
    6SAPS  H12Y  779   4.585   2.150   9.161  1.2639 -1.4069 -2.1857
    6SAPS  C313  780   4.404   2.130   9.038  0.2055 -0.0664 -0.3376
    6SAPS  H13X  781   4.361   2.227   9.071  2.5633  0.2516  2.1365
    6SAPS  H13Y  782   4.324   2.053   9.034  1.0183 -0.9155 -0.4380
    6SAPS  C314  783   4.474   2.136   8.903  0.6811  0.4381 -0.2571
    6SAPS  H14X  784   4.554   2.062   8.884 -0.2749  0.2065 -4.2924
    6SAPS  H14Y  785   4.523   2.236   8.904 -0.0564  0.8158  0.3729
    6SAPS  C315  786   4.372   2.110   8.795  0.0454  0.2062  0.0346
    6SAPS  H15X  787   4.272   2.135   8.838  0.6987 -1.4908  2.8398
    6SAPS  H15Y  788   4.372   2.000   8.785  0.9461  0.3861 -2.3461
    6SAPS  C316  789   4.404   2.181   8.656 -0.9937  0.4572 -0.4881
    6SAPS  H16X  790   4.393   2.291   8.671  0.7895  0.3993  1.6163
    6SAPS  H16Y  791   4.321   2.157   8.586 -0.7736  0.7064 -0.8371
    6SAPS  C317  792   4.538   2.141   8.597 -0.8389 -0.5739  0.9577
    6SAPS  H17X  793   4.619   2.167   8.668  0.3567  0.0854 -0.5943
    6SAPS  H17Y  794   4.542   2.192   8.499 -0.5998 -0.2463  1.1378
    6SAPS  C318  795   4.543   1.988   8.558  0.4298  0.2317  0.2896
    6SAPS  H18X  796   4.446   1.963   8.510  0.5214  0.0227  0.2124
    6SAPS  H18Y  797   4.539   1.924   8.649 -1.1118 -1.1445 -0.6842
    6SAPS  H18Z  798   4.634   1.964   8.499  0.4315  2.3587 -0.6383
    7SAPS     N  799   1.015   4.623  10.826 -0.0299 -0.4216  1.0099
    7SAPS   HN1  800   0.926   4.672  10.847 -0.1750  0.2113 -0.8617
    7SAPS   HN2  801   1.080   4.697  10.860 -1.4469  1.0727  0.5808
    7SAPS   HN3  802   1.023   4.602  10.725 -0.4058  1.2371  0.5949
    7SAPS   C12  803   1.013   4.494  10.902 -0.4743 -0.7487 -0.4934
    7SAPS  H12A  804   1.108   4.444  10.885 -0.2586 -0.1292 -1.1969
    7SAPS   C13  805   0.976   4.507  11.060 -0.0303  0.9005 -0.1597
    7SAPS  O13A  806   0.943   4.613  11.117  0.0079  0.0623 -0.2703
    7SAPS  O13B  807   0.992   4.405  11.129  0.1161 -0.1169  0.4115
    7SAPS   C11  808   0.898   4.406  10.841  0.3172  0.1512 -0.5471
    7SAPS  H11A  809   0.800   4.459  10.845  0.1372 -0.1359 -0.9976
    7SAPS  H11B  810   0.894   4.310  10.897  0.3589  0.7611  0.5275
    7SAPS     P  811   0.831   4.293  10.615 -0.0286  0.0307  0.3112
    7SAPS   O13  812   0.840   4.150  10.625 -0.5228 -0.0158 -0.3531
    7SAPS   O14  813   0.696   4.347  10.631 -0.4832 -0.1643  0.9577
    7SAPS   O12  814   0.929   4.374  10.706 -0.0966  0.3184  0.7843
    7SAPS   O11  815   0.876   4.325  10.470  0.4843 -0.4152 -0.0014
    7SAPS    C1  816   0.912   4.457  10.433 -0.0598  0.0687  0.1030
    7SAPS    HA  817   0.912   4.527  10.519  3.3667  1.6545 -1.0307
    7SAPS    HB  818   1.012   4.465  10.386  0.4153 -0.6189  0.9752
    7SAPS    C2  819   0.815   4.517  10.319 -0.1711 -0.3310  0.2457
    7SAPS    HS  820   0.714   4.493  10.359  0.8610 -1.9762  2.1059
    7SAPS   O21  821   0.837   4.460  10.191  0.1364  0.2227  0.3858
    7SAPS   C21  822   0.736   4.413  10.122 -0.1732 -0.0171 -0.9988
    7SAPS   O22  823   0.623   4.394  10.171  0.2148 -0.1575 -0.2891
    7SAPS   C22  824   0.774   4.380   9.978  0.0666 -0.8208  0.6036
    7SAPS   H2R  825   0.855   4.444   9.938 -0.1081 -1.2804 -0.5125
    7SAPS   H2S  826   0.817   4.278   9.988  2.0618 -0.0944 -0.2106
    7SAPS    C3  827   0.838   4.670  10.310 -0.6860  0.8136 -0.7192
    7SAPS    HX  828   0.942   4.691  10.279 -0.3385  0.3660  0.0998
    7SAPS    HY  829   0.835   4.709  10.414  2.0887  1.5585 -0.8239
    7SAPS   O31  830   0.739   4.740  10.229  0.3691 -0.1190 -0.0986
    7SAPS   C31  831   0.781   4.792  10.108 -0.3402  0.4727  0.3531
    7SAPS   O32  832   0.895   4.780  10.066  0.0767 -0.1310  0.7658
    7SAPS   C32  833   0.676   4.883  10.041 -0.2267 -0.1370  0.0653
    7SAPS   H2X  834   0.703   4.980  10.087  2.9456 -0.1099 -1.5342
    7SAPS   H2Y  835   0.581   4.841  10.080  0.4208 -0.0485  1.8260
    7SAPS   C23  836   0.647   4.378   9.889  0.5726 -0.3942 -0.0770
    7SAPS   H3R  837   0.635   4.479   9.844 -1.0713 -1.3796 -2.0461
    7SAPS   H3S  838   0.558   4.354   9.950  0.0541 -1.6984 -1.2939
    7SAPS   C24  839   0.656   4.275   9.781 -0.5706  0.0445  0.7295
    7SAPS   H4R  840   0.550   4.253   9.756 -0.9801  0.1745  2.2765
    7SAPS   H4S  841   0.698   4.183   9.827 -0.4721 -0.7891 -0.9445
    7SAPS   C25  842   0.736   4.305   9.647 -0.2319 -0.0649  0.3192
    7SAPS   H5R  843   0.747   4.411   9.620  1.9750 -0.3060  0.0658
    7SAPS   C26  844   0.811   4.219   9.581  0.4538  0.3807 -0.6198
    7SAPS   H6R  845   0.855   4.251   9.485  2.6148  0.0556  0.1931
    7SAPS   C27  846   0.839   4.072   9.618  0.1107 -0.0333 -0.1263
    7SAPS   H7R  847   0.842   4.053   9.727  1.0653 -3.0739 -0.5759
    7SAPS   H7S  848   0.929   4.034   9.565  0.3670 -1.7569  1.4582
    7SAPS   C28  849   0.726   3.981   9.587  0.2020  0.3087  0.1750
    7SAPS   H8R  850   0.629   4.015   9.626 -0.4950  0.0831 -1.3081
    7SAPS   C29  851   0.729   3.868   9.516  0.4968 -0.6326 -0.2942
    7SAPS   H9R  852   0.633   3.818   9.497 -0.7478  1.1891  0.8290
    7SAPS  C210  853   0.847   3.816   9.444  0.2159 -0.3272  0.5983
    7SAPS  H10R  854   0.940   3.828   9.504  1.2438 -1.2537 -0.7502
    7SAPS  H10S  855   0.869   3.888   9.362 -0.0541  0.2195  0.9986
    7SAPS  C211  856   0.842   3.670   9.404 -0.4160  0.1985  0.0262
    7SAPS  H11R  857   0.845   3.649   9.296  1.2865  1.0042 -0.1265
    7SAPS  C212  858   0.853   3.571   9.495  0.8296  0.7880 -0.3319
    7SAPS  H12R  859   0.844   3.467   9.459  0.7008  0.0851  1.6536
    7SAPS  C213  860   0.867   3.581   9.647  0.1105  0.0309  1.1082
    7SAPS  H13R  861   0.840   3.682   9.682  3.1207  0.9276  1.1177
    7SAPS  H13S  862   0.977   3.582   9.662  0.0822 -0.1087  1.3188
    7SAPS  C214  863   0.813   3.478   9.744 -0.7972  0.3163  0.0338
    7SAPS  H14R  864   0.888   3.412   9.792 -1.5481 -0.2934  0.3928
    7SAPS  C215  865   0.681   3.471   9.775 -0.8570 -0.2002 -0.6624
    7SAPS  H15R  866   0.644   3.394   9.844  1.0299 -0.8196 -0.2683
    7SAPS  C216  867   0.576   3.560   9.711 -0.0152  0.4306 -0.0246
    7SAPS  H16R  868   0.607   3.667   9.712 -0.1754  0.5637 -2.4894
    7SAPS  H16S  869   0.487   3.556   9.776 -0.5920  1.8184 -0.6871
    7SAPS  C217  870   0.526   3.516   9.573 -0.4659  0.0052  0.2338
    7SAPS  H17R  871   0.506   3.408   9.588  0.7930 -0.2772 -0.0519
    7SAPS  H17S  872   0.603   3.520   9.493 -0.7774 -2.5436 -0.2700
    7SAPS  C218  873   0.391   3.589   9.538 -0.3543  0.1560  0.0462
    7SAPS  H18R  874   0.412   3.698   9.534  1.3397 -0.0966  0.8703
    7SAPS  H18S  875   0.317   3.573   9.619 -0.1861 -0.1296  0.1454
    7SAPS  C219  876   0.333   3.559   9.397  0.6072 -0.5046 -0.0757
    7SAPS  H19R  877   0.322   3.450   9.379  4.3608 -1.3127  1.4217
    7SAPS  H19S  878   0.403   3.600   9.320  1.3926  0.2695  1.0083
    7SAPS  C220  879   0.200   3.638   9.390  0.2195 -0.7286  0.8830
    7SAPS  H20R  880   0.129   3.595   9.463  1.9572 -2.3548  1.7042
    7SAPS  H20S  881   0.144   3.640   9.294  0.3910  0.9706  0.7818
    7SAPS  H20T  882   0.220   3.747   9.402  0.9846 -0.4412 -2.1868
    7SAPS   C33  883   0.682   4.896   9.895  0.2615  0.5319 -0.3037
    7SAPS   H3X  884   0.780   4.938   9.863  0.2398  1.0361  0.2713
    7SAPS   H3Y  885   0.604   4.970   9.868 -0.2066  0.1298 -0.0479
    7SAPS   C34  886   0.645   4.761   9.827 -0.6319 -0.1479 -0.4487
    7SAPS   H4X  887   0.557   4.737   9.890 -0.6697 -0.6844 -0.7084
    7SAPS   H4Y  888   0.718   4.679   9.844  0.6063  0.5207 -2.1939
    7SAPS   C35  889   0.619   4.771   9.678 -0.3802 -0.8164  0.5001
    7SAPS   H5X  890   0.547   4.852   9.654  0.0872 -0.1114  1.3998
    7SAPS   H5Y  891   0.579   4.676   9.638 -0.5249 -0.0636 -1.2379
    7SAPS   C36  892   0.751   4.788   9.598 -0.1145 -0.1513  0.0128
    7SAPS   H6X  893   0.825   4.712   9.633  0.4725 -0.2046 -1.2713
    7SAPS   H6Y  894   0.780   4.891   9.625  1.5830 -0.0854 -1.8415
    7SAPS   C37  895   0.742   4.785   9.449  0.1680 -0.1092  0.0081
    7SAPS   H7X  896   0.672   4.868   9.425  1.1622  1.6825  2.8184
    7SAPS   H7Y  897   0.701   4.691   9.407 -1.1078  0.6384 -0.4872
    7SAPS   C38  898   0.880   4.811   9.371 -0.6612  0.0464 -0.2681
    7SAPS   H8X  899   0.948   4.730   9.405 -0.7456  0.7967  1.8472
    7SAPS   H8Y  900   0.918   4.905   9.416  0.5388 -0.9973  1.0101
    7SAPS   C39  901   0.859   4.828   9.218  0.6073  0.3823 -0.4518
    7SAPS   H9X  902   0.925   4.914   9.195  1.8212  0.3992  2.6394
    7SAPS   H9Y  903   0.753   4.856   9.199  0.2771  1.1350  2.1795
    7SAPS  C310  904   0.905   4.701   9.147  0.0963 -0.5125  0.2732
    7SAPS  H10X  905   0.997   4.656   9.191 -0.7311 -0.5816  2.0600
    7SAPS  H10Y  906   0.930   4.719   9.041 -1.3903 -1.7605 -0.3275
    7SAPS  C311  907   0.791   4.595   9.129  0.5087  0.0582  0.0863
    7SAPS  H11X  908   0.700   4.656   9.109  0.1217 -0.3811  0.4984
    7SAPS  H11Y  909   0.775   4.548   9.228 -0.5259  2.2544  1.0350
    7SAPS  C312  910   0.825   4.477   9.038  0.8328 -0.9049  0.1957
    7SAPS  H12X  911   0.928   4.464   9.078  0.5751 -0.0490  1.1926
    7SAPS  H12Y  912   0.828   4.530   8.941 -2.1460 -1.0182 -0.0494
    7SAPS  C313  913   0.728   4.355   9.036  0.0058 -0.3212 -0.3082
    7SAPS  H13X  914   0.727   4.316   8.932 -1.5872 -0.6648 -0.1800
    7SAPS  H13Y  915   0.627   4.396   9.058 -0.5923 -2.2406  0.7088
    7SAPS  C314  916   0.766   4.247   9.143 -0.3558 -0.4981 -0.2457
    7SAPS  H14X  917   0.759   4.293   9.244  0.2282 -2.2526  0.6255
    7SAPS  H14Y  918   0.876   4.231   9.144  0.0178  1.5771  1.3031
    7SAPS  C315  919   0.702   4.114   9.117 -0.5329  0.2901  0.3205
    7SAPS  H15X  920   0.748   4.038   9.184 -2.3519 -0.4973  0.7377
    7SAPS  H15Y  921   0.718   4.084   9.011 -0.0691  3.3437 -0.5662
    7SAPS  C316  922   0.555   4.115   9.136  0.4462  0.2531  0.3332
    7SAPS  H16X  923   0.502   4.179   9.063  1.3790  0.4804 -0.1630
    7SAPS  H16Y  924   0.528   4.156   9.235  1.3887  1.4871  0.1010
    7SAPS  C317  925   0.491   3.977   9.122 -0.6640  0.1656 -0.2613
    7SAPS  H17X  926   0.528   3.920   9.209 -0.8920  0.5037  0.0596
    7SAPS  H17Y  927   0.522   3.925   9.029  1.1980 -0.4361  0.6454
    7SAPS  C318  928   0.342   3.972   9.109 -0.6042  0.6435 -0.2462
    7SAPS  H18X  929   0.295   3.872   9.120 -3.4447  2.0120  1.4390
    7SAPS  H18Y  930   0.321   4.022   9.012  0.1754 -0.0325 -0.7755
    7SAPS  H18Z  931   0.292   4.026   9.193 -1.3751 -1.5848  0.8220
    8SAPS     N  932   4.413   4.241  11.115 -0.0807 -0.3528 -0.6646
    8SAPS   HN1  933   4.414   4.276  11.017  1.7995  3.9440  0.6372
    8SAPS   HN2  934   4.487   4.305  11.151  0.3431 -1.3682  0.3089
    8SAPS   HN3  935   4.437   4.140  11.117  0.1028 -0.3005  0.4085
    8SAPS   C12  936   4.284   4.271  11.170 -0.4396 -0.4272 -0.4827
    8SAPS  H12A  937   4.217   4.200  11.123 -1.2124 -0.7278  1.0291
    8SAPS   C13  938   4.281   4.249  11.323  0.1185  0.3342  0.3686
    8SAPS  O13A  939   4.378   4.203  11.386 -0.3342 -0.5218  0.1880
    8SAPS  O13B  940   4.172   4.225  11.375 -0.0340 -0.5291 -0.7057
    8SAPS   C11  941   4.243   4.416  11.134  0.4099  0.9217  0.4380
    8SAPS  H11A  942   4.292   4.491  11.200 -0.8256  1.5931  0.6215
    8SAPS  H11B  943   4.133   4.418  11.149 -0.1923 -0.4753 -2.9612
    8SAPS     P  944   4.173   4.383  10.886  0.1627 -0.2480 -0.3709
    8SAPS   O13  945   4.187   4.235  10.881 -0.2200  0.3614  0.3214
    8SAPS   O14  946   4.043   4.451  10.910  0.5162 -0.4659  0.0254
    8SAPS   O12  947   4.270   4.441  10.992 -0.3692 -0.0905  0.4679
    8SAPS   O11  948   4.237   4.443  10.754  0.3193  0.4936 -0.1738
    8SAPS    C1  949   4.235   4.577  10.723 -0.2456  0.3579 -0.6605
    8SAPS    HA  950   4.229   4.639  10.815  0.5147 -0.5683  0.0257
    8SAPS    HB  951   4.329   4.610  10.672 -0.4673 -3.1648 -3.7437
    8SAPS    C2  952   4.113   4.623  10.643 -0.1212  0.2468 -0.8020
    8SAPS    HS  953   4.022   4.577  10.686  0.0042  1.2256  0.5860
    8SAPS   O21  954   4.144   4.584  10.512  0.0265  0.4799 -0.4939
    8SAPS   C21  955   4.104   4.464  10.467 -0.1647  0.5452  0.2983
    8SAPS   O22  956   4.040   4.381  10.535  0.0798 -0.4944 -0.1958
    8SAPS   C22  957   4.147   4.451  10.315  0.7009  1.0003 -0.7755
    8SAPS   H2R  958   4.113   4.541  10.258 -0.6794  1.2424  0.3835
    8SAPS   H2S  959   4.258   4.444  10.315  0.7127  0.0581  1.9709
    8SAPS    C3  960   4.088   4.781  10.648  0.0422 -0.1293  0.3439
    8SAPS    HX  961   4.164   4.833  10.586 -2.3678 -0.6733 -3.4038
    8SAPS    HY  962   4.099   4.805  10.756  1.9676  2.1756 -0.2869
    8SAPS   O31  963   3.958   4.821  10.602  0.6578 -0.0017  0.6536
    8SAPS   C31  964   3.924   4.942  10.634  0.1185 -1.5952  0.5550
    8SAPS   O32  965   3.991   5.037  10.680  0.7742 -0.0011 -0.2884
    8SAPS   C32  966   3.771   4.960  10.594  0.3018 -0.1705  0.2612
    8SAPS   H2X  967   3.718   5.021  10.671  0.5334 -0.0633  0.3359
    8SAPS   H2Y  968   3.733   4.856  10.607  1.2370 -0.4950  0.4584
    8SAPS   C23  969   4.089   4.324  10.256  0.1910 -0.2756 -0.2821
    8SAPS   H3R  970   3.978   4.332  10.247  0.3545  1.2549 -1.4341
    8SAPS   H3S  971   4.129   4.243  10.321  1.1247  1.0529  0.8534
    8SAPS   C24  972   4.155   4.314  10.118 -0.0441 -0.2382  0.0678
    8SAPS   H4R  973   4.266   4.313  10.125 -0.0151 -3.4995  0.9857
    8SAPS   H4S  974   4.114   4.404  10.070  3.3505  0.7381 -1.3154
    8SAPS   C25  975   4.110   4.176  10.057 -0.2459 -0.1687 -0.3652
    8SAPS   H5R  976   4.112   4.092  10.129 -2.0422 -0.2712 -0.3918
    8SAPS   C26  977   4.074   4.157   9.931  0.0482 -0.2512 -0.3679
    8SAPS   H6R  978   4.061   4.053   9.898  1.3439  0.0590 -1.9705
    8SAPS   C27  979   4.061   4.268   9.832 -0.1224 -0.2166 -0.6572
    8SAPS   H7R  980   4.148   4.336   9.834  0.6073 -1.0542  2.6507
    8SAPS   H7S  981   3.982   4.336   9.871 -0.9551 -0.0871 -2.4873
    8SAPS   C28  982   4.017   4.221   9.696 -0.0826 -0.4599  0.1280
    8SAPS   H8R  983   3.915   4.180   9.693  0.3873 -1.7253  0.9396
    8SAPS   C29  984   4.094   4.240   9.583 -0.5914 -0.0933  0.2571
    8SAPS   H9R  985   4.064   4.202   9.484  2.3736  0.2806 -0.8921
    8SAPS  C210  986   4.230   4.295   9.572  0.0846  0.0029  0.1341
    8SAPS  H10R  987   4.299   4.233   9.513  2.9589  0.6872  2.5418
    8SAPS  H10S  988   4.282   4.291   9.670  0.3342 -3.5377 -0.0092
    8SAPS  C211  989   4.228   4.435   9.506  0.0405 -0.2809  0.1828
    8SAPS  H11R  990   4.230   4.516   9.580 -0.0116  0.5490 -0.7090
    8SAPS  C212  991   4.245   4.474   9.380  0.0801 -0.5559  0.2801
    8SAPS  H12R  992   4.238   4.581   9.358 -1.3634 -0.7982 -0.5671
    8SAPS  C213  993   4.253   4.384   9.257  0.5193 -0.4419  0.2210
    8SAPS  H13R  994   4.278   4.280   9.284 -0.8642 -0.8373  0.0830
    8SAPS  H13S  995   4.340   4.420   9.197 -0.7605 -0.0660 -1.5063
    8SAPS  C214  996   4.121   4.390   9.190 -0.3874 -0.5921 -0.2252
    8SAPS  H14R  997   4.031   4.416   9.248  0.2379  1.1053  0.0561
    8SAPS  C215  998   4.105   4.364   9.054  0.4382 -0.4951  0.0384
    8SAPS  H15R  999   4.005   4.394   9.019  0.5161 -0.5733 -0.2496
    8SAPS  C216 1000   4.218   4.333   8.962 -0.0125  0.4040 -0.2996
    8SAPS  H16R 1001   4.314   4.343   9.017 -1.3127  2.9423  1.7511
    8SAPS  H16S 1002   4.210   4.403   8.876  0.7085 -0.5312 -1.1476
    8SAPS  C217 1003   4.207   4.192   8.904 -0.0027  0.1272 -0.3697
    8SAPS  H17R 1004   4.175   4.116   8.978 -0.5549 -0.9553 -1.6714
    8SAPS  H17S 1005   4.305   4.161   8.861  0.7464  1.2689  0.4789
    8SAPS  C218 1006   4.113   4.175   8.782  1.1178 -0.1992  0.7557
    8SAPS  H18R 1007   4.014   4.214   8.815  0.1254 -2.4363  0.5831
    8SAPS  H18S 1008   4.085   4.071   8.758 -1.5502  1.0176 -1.9801
    8SAPS  C219 1009   4.168   4.230   8.645  0.7494 -0.4355 -0.1163
    8SAPS  H19R 1010   4.262   4.172   8.633  2.0096  1.3283  0.8006
    8SAPS  H19S 1011   4.196   4.337   8.656  1.4014 -0.1495 -3.4088
    8SAPS  C220 1012   4.066   4.218   8.529 -0.3002 -0.2869  0.1821
    8SAPS  H20R 1013   4.107   4.259   8.433  0.5869  1.8347  1.3832
    8SAPS  H20S 1014   3.968   4.266   8.551 -1.7252 -1.3093 -3.2715
    8SAPS  H20T 1015   4.029   4.117   8.504 -2.1307  1.1800 -4.1201
    8SAPS   C33 1016   3.744   5.007  10.456  0.0422 -0.6072 -0.6409
    8SAPS   H3X 1017   3.638   4.993  10.429  0.4004  0.5748 -2.8611
    8SAPS   H3Y 1018   3.778   4.931  10.383  0.7760 -0.5058 -0.4147
    8SAPS   C34 1019   3.767   5.155  10.425  0.2398 -0.0997 -0.4884
    8SAPS   H4X 1020   3.875   5.176  10.441  0.4402 -0.0223 -1.8408
    8SAPS   H4Y 1021   3.692   5.217  10.480 -0.2901  0.2865 -1.6246
    8SAPS   C35 1022   3.716   5.181  10.286  1.1995 -0.1488  0.4056
    8SAPS   H5X 1023   3.707   5.292  10.287  1.5251 -0.1255  1.1366
    8SAPS   H5Y 1024   3.617   5.134  10.266  1.1018 -0.1207  0.8150
    8SAPS   C36 1025   3.810   5.134  10.173 -0.1135 -0.4014 -0.0569
    8SAPS   H6X 1026   3.780   5.030  10.149 -0.0214  0.0070 -2.1163
    8SAPS   H6Y 1027   3.912   5.139  10.218 -0.9717 -0.1954  2.0069
    8SAPS   C37 1028   3.802   5.223  10.054 -0.0310 -0.7036 -0.4389
    8SAPS   H7X 1029   3.820   5.327  10.090  0.3125 -0.4403 -1.3362
    8SAPS   H7Y 1030   3.696   5.212  10.022  0.5502 -2.6074 -1.9663
    8SAPS   C38 1031   3.886   5.196   9.926 -0.1829 -0.2813 -0.1872
    8SAPS   H8X 1032   3.874   5.093   9.888  1.5679 -1.1646  1.4715
    8SAPS   H8Y 1033   3.995   5.210   9.946 -0.1772  0.7384 -0.8557
    8SAPS   C39 1034   3.837   5.280   9.810  0.2168  0.2377  0.4194
    8SAPS   H9X 1035   3.813   5.384   9.841  0.4311 -0.6528  4.0277
    8SAPS   H9Y 1036   3.740   5.230   9.790 -0.2574  0.9176  0.9874
    8SAPS  C310 1037   3.927   5.294   9.685  0.2474 -0.7079  0.1938
    8SAPS  H10X 1038   3.864   5.328   9.601  0.6749 -1.4066 -0.4175
    8SAPS  H10Y 1039   3.968   5.194   9.660 -1.4860 -1.6486  0.9475
    8SAPS  C311 1040   4.030   5.403   9.699 -0.1451 -0.3767  0.2500
    8SAPS  H11X 1041   4.064   5.394   9.805  0.7636 -2.8316 -0.1817
    8SAPS  H11Y 1042   3.979   5.501   9.692 -1.3193 -1.0524 -1.0640
    8SAPS  C312 1043   4.155   5.387   9.607  0.4136  0.3460 -0.0871
    8SAPS  H12X 1044   4.215   5.296   9.626 -1.5990 -1.0735 -0.1844
    8SAPS  H12Y 1045   4.213   5.480   9.624 -1.0988  1.9558 -2.9179
    8SAPS  C313 1046   4.118   5.394   9.457 -0.2903  0.1644  0.1465
    8SAPS  H13X 1047   4.064   5.490   9.442 -2.6528 -0.8504  1.6645
    8SAPS  H13Y 1048   4.046   5.313   9.433 -2.6166  2.0444  0.3597
    8SAPS  C314 1049   4.243   5.393   9.372  0.2924 -0.6892 -0.5724
    8SAPS  H14X 1050   4.284   5.290   9.382 -2.3732 -1.7588  0.1111
    8SAPS  H14Y 1051   4.315   5.467   9.412 -0.1917 -0.7925  0.5026
    8SAPS  C315 1052   4.214   5.393   9.225  0.4424 -0.0122 -0.1615
    8SAPS  H15X 1053   4.194   5.500   9.201  0.5342 -0.0935 -0.6095
    8SAPS  H15Y 1054   4.129   5.323   9.210  1.5629 -1.5655  0.4669
    8SAPS  C316 1055   4.337   5.352   9.143 -0.1895 -0.1462  0.4021
    8SAPS  H16X 1056   4.390   5.258   9.169  0.2241 -0.0852 -0.2045
    8SAPS  H16Y 1057   4.399   5.444   9.148  0.2670 -0.4937  1.4996
    8SAPS  C317 1058   4.301   5.329   8.990 -0.2327  0.1552  0.2982
    8SAPS  H17X 1059   4.253   5.421   8.951 -1.5578 -0.0012  1.5122
    8SAPS  H17Y 1060   4.234   5.240   8.982  1.7867 -1.4181 -0.2519
    8SAPS  C318 1061   4.423   5.309   8.900  0.2058 -0.2196  0.1469
    8SAPS  H18X 1062   4.387   5.259   8.808  0.5573  1.2950 -0.8598
    8SAPS  H18Y 1063   4.505   5.251   8.947  0.9498  0.2148 -0.5854
    8SAPS  H18Z 1064   4.476   5.394   8.852  1.2918 -0.8250  0.2409
    9SAPS     N 1065   1.415   2.062   6.162 -0.3825 -0.2511 -0.0647
    9SAPS   HN1 1066   1.349   2.141   6.170  0.3430  0.5328 -1.3814
    9SAPS   HN2 1067   1.451   2.038   6.257 -1.2079  0.0291  0.3199
    9SAPS   HN3 1068   1.491   2.096   6.099  0.3489 -2.2357 -0.3357
    9SAPS   C12 1069   1.343   1.944   6.117 -0.4581  0.1751 -0.6543
    9SAPS  H12A 1070   1.290   1.967   6.026 -1.6918 -1.0575 -0.2685
    9SAPS   C13 1071   1.434   1.820   6.100 -0.0781 -0.4245 -0.2089
    9SAPS  O13A 1072   1.559   1.836   6.111  0.0763  0.2766  0.5823
    9SAPS  O13B 1073   1.382   1.732   6.030  0.2889  0.5058 -0.2201
    9SAPS   C11 1074   1.239   1.906   6.221 -0.4958 -0.5265  0.5700
    9SAPS  H11A 1075   1.293   1.853   6.303  3.0159 -1.4200 -2.0559
    9SAPS  H11B 1076   1.171   1.840   6.163 -1.1109  1.1004 -0.6299
    9SAPS     P 1077   1.012   2.017   6.307  0.3000  0.1031  0.0169
    9SAPS   O13 1078   0.995   2.126   6.406 -0.3509 -0.3402  0.1795
    9SAPS   O14 1079   0.955   2.042   6.175  0.5582  0.0297 -0.1335
    9SAPS   O12 1080   1.162   2.010   6.275  0.5561 -0.3277  0.7932
    9SAPS   O11 1081   0.974   1.872   6.349 -0.0479 -0.9927  0.0306
    9SAPS    C1 1082   1.022   1.821   6.478 -0.6533  0.3157  0.0659
    9SAPS    HA 1083   1.118   1.869   6.508 -2.4141  3.7690  0.6841
    9SAPS    HB 1084   0.941   1.862   6.542 -0.2044  2.9359 -0.9457
    9SAPS    C2 1085   1.027   1.672   6.497  0.4823 -0.2087  0.4562
    9SAPS    HS 1086   0.924   1.638   6.473 -0.5600  2.6201  0.6429
    9SAPS   O21 1087   1.048   1.646   6.638  0.4937  0.1302  0.4349
    9SAPS   C21 1088   1.021   1.520   6.674  0.0064 -0.4111  0.9270
    9SAPS   O22 1089   0.962   1.438   6.606  0.5759 -0.5805 -0.0190
    9SAPS   C22 1090   1.050   1.502   6.816 -0.6013 -0.4139 -1.0776
    9SAPS   H2R 1091   1.156   1.470   6.805  0.8767  3.6490 -0.2418
    9SAPS   H2S 1092   1.047   1.600   6.868  0.1054 -0.5734 -0.7265
    9SAPS    C3 1093   1.130   1.593   6.406 -0.2314 -0.2981 -0.8761
    9SAPS    HX 1094   1.114   1.632   6.303 -2.0579  1.1166 -0.0978
    9SAPS    HY 1095   1.098   1.486   6.404  0.9844 -0.7413  1.0592
    9SAPS   O31 1096   1.270   1.615   6.438 -0.0035 -0.8039  0.0504
    9SAPS   C31 1097   1.325   1.530   6.522 -0.4360 -0.3517  0.2872
    9SAPS   O32 1098   1.267   1.439   6.578 -0.2608  0.1690  0.3353
    9SAPS   C32 1099   1.475   1.560   6.518 -0.8685  0.0491 -0.7181
    9SAPS   H2X 1100   1.507   1.485   6.443 -2.2312 -0.0586 -1.2093
    9SAPS   H2Y 1101   1.516   1.525   6.616 -0.1845  1.2674 -0.5531
    9SAPS   C23 1102   0.969   1.399   6.890 -0.3430 -0.2596  0.0767
    9SAPS   H3R 1103   0.981   1.300   6.842  1.4374 -0.5980  1.1460
    9SAPS   H3S 1104   0.862   1.429   6.889  0.2201  1.9106 -0.2658
    9SAPS   C24 1105   1.024   1.393   7.043  0.2699 -0.1932  0.4868
    9SAPS   H4R 1106   1.012   1.495   7.085 -1.0886  0.9767 -2.4474
    9SAPS   H4S 1107   1.133   1.369   7.045  0.6757  1.5651  1.4200
    9SAPS   C25 1108   0.957   1.287   7.124  0.5031 -0.3356 -0.0556
    9SAPS   H5R 1109   0.904   1.209   7.067  0.3720 -2.2597  2.4977
    9SAPS   C26 1110   0.926   1.270   7.252 -0.6121 -0.1831  0.4452
    9SAPS   H6R 1111   0.867   1.180   7.275  0.5178 -1.1380 -0.2960
    9SAPS   C27 1112   0.959   1.351   7.375 -0.2524 -0.1876 -0.0740
    9SAPS   H7R 1113   1.031   1.433   7.353  1.7254 -2.3109 -2.0048
    9SAPS   H7S 1114   1.007   1.302   7.462 -2.8079 -0.4329  1.3124
    9SAPS   C28 1115   0.838   1.414   7.436 -0.2238 -0.2250 -0.5389
    9SAPS   H8R 1116   0.758   1.463   7.377  0.7378  0.0204 -1.6708
    9SAPS   C29 1117   0.832   1.437   7.568  0.6416 -0.5794  0.5488
    9SAPS   H9R 1118   0.749   1.501   7.603  0.5646 -0.4007  0.0562
    9SAPS  C210 1119   0.927   1.406   7.681 -0.2661  0.7812  0.0784
    9SAPS  H10R 1120   1.023   1.460   7.671  1.4512 -2.2853 -1.2005
    9SAPS  H10S 1121   0.943   1.298   7.662 -2.9382 -0.0882  2.1089
    9SAPS  C211 1122   0.868   1.412   7.817 -0.0255 -0.6140  0.1845
    9SAPS  H11R 1123   0.770   1.365   7.834 -0.3434 -0.5326 -1.3400
    9SAPS  C212 1124   0.932   1.458   7.925  0.5473  0.7799  0.1748
    9SAPS  H12R 1125   0.869   1.453   8.015  0.2036  1.0148 -0.0500
    9SAPS  C213 1126   1.073   1.516   7.953  0.7264  0.3399 -0.7756
    9SAPS  H13R 1127   1.141   1.488   7.869  0.0478  0.1387 -1.2648
    9SAPS  H13S 1128   1.106   1.478   8.052 -3.5024  1.6851  1.3646
    9SAPS  C214 1129   1.062   1.667   7.949 -0.1734 -0.0759  0.0130
    9SAPS  H14R 1130   0.980   1.716   7.893  0.8913  3.7296  1.4638
    9SAPS  C215 1131   1.142   1.759   8.008 -0.7266 -0.1349 -0.6861
    9SAPS  H15R 1132   1.125   1.866   7.990  1.0169 -0.1776 -2.9609
    9SAPS  C216 1133   1.262   1.731   8.096 -0.1238  0.4072 -0.2722
    9SAPS  H16R 1134   1.346   1.796   8.065 -0.4134  1.0772  0.3227
    9SAPS  H16S 1135   1.303   1.628   8.097  4.8530  2.0464  3.1869
    9SAPS  C217 1136   1.221   1.765   8.244 -0.5736 -0.4171 -0.0683
    9SAPS  H17R 1137   1.187   1.869   8.261 -1.2019 -0.7560  0.7884
    9SAPS  H17S 1138   1.315   1.751   8.303 -0.7734  0.7751  0.5584
    9SAPS  C218 1139   1.130   1.659   8.299  0.3560 -0.0118 -0.3951
    9SAPS  H18R 1140   1.187   1.569   8.269 -0.4085  0.0943 -2.2927
    9SAPS  H18S 1141   1.025   1.663   8.263  1.0442  2.6826 -2.4315
    9SAPS  C219 1142   1.135   1.642   8.455 -0.5482  0.0409  0.4964
    9SAPS  H19R 1143   1.240   1.639   8.491 -0.6389 -0.2892  0.7371
    9SAPS  H19S 1144   1.089   1.547   8.488  0.3609 -1.1612 -1.4908
    9SAPS  C220 1145   1.050   1.749   8.514 -0.4904 -0.1937 -0.1366
    9SAPS  H20R 1146   1.050   1.721   8.622  2.7664 -0.4117 -0.0967
    9SAPS  H20S 1147   0.944   1.755   8.480 -1.4749  1.2277  2.8122
    9SAPS  H20T 1148   1.104   1.845   8.504 -1.3298  0.2959 -0.0948
    9SAPS   C33 1149   1.530   1.691   6.468 -0.3149  0.0715 -0.1195
    9SAPS   H3X 1150   1.498   1.773   6.536 -1.9541 -0.2973 -0.4108
    9SAPS   H3Y 1151   1.488   1.710   6.367 -2.4323  2.0220  1.0288
    9SAPS   C34 1152   1.690   1.698   6.472 -0.0861  0.1222  0.3459
    9SAPS   H4X 1153   1.716   1.788   6.411 -1.8732 -0.8263 -1.9602
    9SAPS   H4Y 1154   1.716   1.598   6.432 -2.0713 -1.2343  2.2244
    9SAPS   C35 1155   1.768   1.699   6.604  0.2255 -0.4516  0.5844
    9SAPS   H5X 1156   1.702   1.732   6.687 -0.7698  3.0328 -1.3900
    9SAPS   H5Y 1157   1.846   1.778   6.606  0.0890 -0.2780 -0.5163
    9SAPS   C36 1158   1.839   1.559   6.631 -0.2339 -0.7775 -0.8839
    9SAPS   H6X 1159   1.903   1.534   6.544  0.3747  0.2006 -0.7280
    9SAPS   H6Y 1160   1.755   1.487   6.627 -0.8322 -0.2991  1.6770
    9SAPS   C37 1161   1.931   1.555   6.760  0.0365 -0.8240 -0.3058
    9SAPS   H7X 1162   2.005   1.472   6.751  1.7895  0.7359 -1.0517
    9SAPS   H7Y 1163   1.860   1.523   6.839 -1.1138 -1.0349 -1.3897
    9SAPS   C38 1164   1.997   1.689   6.803  0.0263 -0.3409  0.4590
    9SAPS   H8X 1165   1.926   1.766   6.840  1.2910  0.2356  1.7541
    9SAPS   H8Y 1166   2.051   1.736   6.718 -0.7048 -1.7914 -0.8758
    9SAPS   C39 1167   2.092   1.673   6.926 -0.5195  0.0456  0.4153
    9SAPS   H9X 1168   2.035   1.626   7.009 -1.2750 -1.8363 -1.0792
    9SAPS   H9Y 1169   2.132   1.773   6.952 -0.3123  0.1721 -0.3392
    9SAPS  C310 1170   2.221   1.596   6.898  0.7448 -0.0560 -0.7926
    9SAPS  H10X 1171   2.280   1.650   6.821 -0.7666 -2.3620 -3.7476
    9SAPS  H10Y 1172   2.212   1.497   6.849  1.5245  0.9569 -3.1118
    9SAPS  C311 1173   2.297   1.571   7.029 -0.5135 -0.2079 -0.3650
    9SAPS  H11X 1174   2.218   1.545   7.102 -0.0120 -0.6184  0.0332
    9SAPS  H11Y 1175   2.334   1.668   7.070 -1.4904  0.9354 -2.0522
    9SAPS  C312 1176   2.407   1.464   7.027 -0.3664 -0.2757 -0.1624
    9SAPS  H12X 1177   2.484   1.470   6.948  0.2400 -1.0383  0.3563
    9SAPS  H12Y 1178   2.354   1.372   6.994 -0.8863  0.1884 -0.6331
    9SAPS  C313 1179   2.482   1.442   7.166 -0.7394 -0.4492  0.5458
    9SAPS  H13X 1180   2.523   1.338   7.166  2.4478  0.7028  0.5248
    9SAPS  H13Y 1181   2.411   1.461   7.249  0.7648  1.3982  1.4530
    9SAPS  C314 1182   2.589   1.544   7.192 -0.2631  0.0944  0.4409
    9SAPS  H14X 1183   2.535   1.640   7.210 -1.8270 -0.6481 -0.1366
    9SAPS  H14Y 1184   2.647   1.563   7.099 -2.2732 -1.7068 -1.2911
    9SAPS  C315 1185   2.675   1.512   7.310  0.0792  0.0510 -0.0688
    9SAPS  H15X 1186   2.779   1.544   7.287 -0.0308  0.2438 -0.3117
    9SAPS  H15Y 1187   2.668   1.401   7.313 -0.7690  0.1282  1.6374
    9SAPS  C316 1188   2.647   1.577   7.443  0.3572  0.2630 -0.2733
    9SAPS  H16X 1189   2.544   1.560   7.479  0.5461  1.7364  1.0685
    9SAPS  H16Y 1190   2.670   1.685   7.438 -1.0369  0.6361  0.8680
    9SAPS  C317 1191   2.750   1.521   7.547 -0.1166 -0.2324  0.3264
    9SAPS  H17X 1192   2.844   1.577   7.532 -0.0576  0.4020  2.7051
    9SAPS  H17Y 1193   2.792   1.420   7.528  0.6069  0.2133 -0.5064
    9SAPS  C318 1194   2.700   1.535   7.694  0.3278  0.3775  0.0358
    9SAPS  H18X 1195   2.683   1.643   7.716  0.7782  0.5748 -0.5403
    9SAPS  H18Y 1196   2.790   1.514   7.755  1.1618  0.2417 -1.2098
    9SAPS  H18Z 1197   2.616   1.470   7.725  0.7558 -0.2198 -0.0414
   10SAPS     N 1198   6.751   1.355   6.393 -0.2514 -0.0348  0.3472
   10SAPS   HN1 1199   6.781   1.452   6.374 -0.6275 -0.1216 -0.7943
   10SAPS   HN2 1200   6.647   1.344   6.398 -0.0979 -1.4412  0.8896
   10SAPS   HN3 1201   6.788   1.335   6.488 -1.0988 -0.4886  0.5958
   10SAPS   C12 1202   6.809   1.263   6.287  0.5851  0.6380  0.7817
   10SAPS  H12A 1203   6.751   1.268   6.197 -0.4177  0.9216  1.4280
   10SAPS   C13 1204   6.959   1.297   6.247  0.3922  0.0057 -0.3530
   10SAPS  O13A 1205   7.014   1.385   6.324 -0.1801  0.1267  0.0175
   10SAPS  O13B 1206   7.030   1.208   6.188  0.3335  0.1404  0.6749
   10SAPS   C11 1207   6.807   1.116   6.340  0.4494  0.0514 -0.2203
   10SAPS  H11A 1208   6.867   1.117   6.433  0.6621 -1.2921 -0.3228
   10SAPS  H11B 1209   6.860   1.038   6.281  0.0507 -0.5237  0.1680
   10SAPS     P 1210   6.629   0.936   6.408  0.2495 -0.0093 -0.3928
   10SAPS   O13 1211   6.488   0.915   6.364 -0.1019 -0.0893  0.0883
   10SAPS   O14 1212   6.729   0.829   6.375  0.5581 -0.3757  0.0100
   10SAPS   O12 1213   6.671   1.082   6.361  0.4041 -0.1472 -0.3913
   10SAPS   O11 1214   6.634   0.953   6.565  0.0808 -0.4229  0.1992
   10SAPS    C1 1215   6.573   1.060   6.628 -0.2675 -0.5378 -0.7501
   10SAPS    HA 1216   6.636   1.150   6.610 -0.0290  0.0740  2.5624
   10SAPS    HB 1217   6.466   1.069   6.599 -1.8885  2.0908  4.6260
   10SAPS    C2 1218   6.576   1.046   6.783 -0.0479 -0.7791  0.7282
   10SAPS    HS 1219   6.579   1.145   6.832 -1.1391  0.4699 -1.5797
   10SAPS   O21 1220   6.693   0.974   6.829  0.1356 -0.0006 -0.1730
   10SAPS   C21 1221   6.799   1.047   6.843 -0.3150 -0.0704  0.3292
   10SAPS   O22 1222   6.815   1.168   6.839  0.2618  0.7534  0.5083
   10SAPS   C22 1223   6.913   0.941   6.865  0.7801  0.1793  0.0181
   10SAPS   H2R 1224   6.895   0.858   6.793  2.8446 -0.7806  0.5169
   10SAPS   H2S 1225   7.011   0.994   6.856  0.5484  0.9373  1.6375
   10SAPS    C3 1226   6.441   0.974   6.821  0.4213 -0.4184 -0.2987
   10SAPS    HX 1227   6.428   0.872   6.778 -1.3862 -0.5565  0.4806
   10SAPS    HY 1228   6.356   1.035   6.784  0.6681 -1.0045 -1.9417
   10SAPS   O31 1229   6.414   0.966   6.963 -0.2122 -0.3836  0.0725
   10SAPS   C31 1230   6.451   0.858   7.033  0.1009 -0.5422 -0.0369
   10SAPS   O32 1231   6.506   0.759   6.985 -0.3783 -0.2541 -0.0306
   10SAPS   C32 1232   6.410   0.870   7.175  0.6266  1.3568 -0.2065
   10SAPS   H2X 1233   6.376   0.772   7.213  2.1480  0.7894 -0.2699
   10SAPS   H2Y 1234   6.332   0.949   7.179  1.4338  2.1312  0.6813
   10SAPS   C23 1235   6.892   0.884   7.008  0.6047  0.1490 -0.1725
   10SAPS   H3R 1236   6.794   0.832   7.021  1.3438 -1.8945 -2.1560
   10SAPS   H3S 1237   6.903   0.964   7.084 -0.9273  0.1309  0.1147
   10SAPS   C24 1238   7.001   0.772   7.021 -0.6010  0.2351 -0.6383
   10SAPS   H4R 1239   6.974   0.699   6.942 -0.1265 -1.8548  1.0350
   10SAPS   H4S 1240   6.990   0.718   7.118  0.9605  1.7340  0.4378
   10SAPS   C25 1241   7.144   0.820   7.005  0.3757 -0.0735  0.2485
   10SAPS   H5R 1242   7.184   0.835   6.903 -0.2044  3.2991  0.3968
   10SAPS   C26 1243   7.220   0.868   7.102  0.1378 -0.3275  0.8504
   10SAPS   H6R 1244   7.326   0.894   7.084 -0.0940  0.7739  0.9950
   10SAPS   C27 1245   7.177   0.884   7.244 -0.4079  0.5207 -0.1080
   10SAPS   H7R 1246   7.254   0.824   7.297  0.3394 -0.0546 -1.7540
   10SAPS   H7S 1247   7.078   0.838   7.265  0.2647 -0.2478  1.5238
   10SAPS   C28 1248   7.179   1.023   7.300 -0.2464 -0.4347  0.2345
   10SAPS   H8R 1249   7.165   1.103   7.225  2.6227 -0.4727 -0.4447
   10SAPS   C29 1250   7.199   1.055   7.427  0.0888  0.6345 -0.4084
   10SAPS   H9R 1251   7.199   1.161   7.458  1.5977  0.3558  0.7067
   10SAPS  C210 1252   7.225   0.967   7.541  0.0785 -0.0962  0.3538
   10SAPS  H10R 1253   7.241   0.859   7.522  0.2633  0.1604 -1.0684
   10SAPS  H10S 1254   7.129   0.970   7.596 -1.6581 -2.7823 -2.2389
   10SAPS  C211 1255   7.345   1.010   7.620  0.2524  0.2810 -0.1821
   10SAPS  H11R 1256   7.420   1.075   7.573  1.1211 -0.4367  0.1702
   10SAPS  C212 1257   7.363   0.974   7.745  0.3725 -0.5107 -0.0294
   10SAPS  H12R 1258   7.460   1.003   7.789  1.0708 -0.8223 -1.3114
   10SAPS  C213 1259   7.267   0.890   7.826  0.4015 -0.8605 -0.3777
   10SAPS  H13R 1260   7.315   0.857   7.920 -0.4954 -1.0484  0.0212
   10SAPS  H13S 1261   7.240   0.791   7.783 -0.7316 -1.8840  2.4959
   10SAPS  C214 1262   7.146   0.966   7.874  0.6303 -0.4953  0.0890
   10SAPS  H14R 1263   7.095   1.029   7.800 -0.0525  0.0941  1.0390
   10SAPS  C215 1264   7.106   0.992   7.997 -0.0212 -0.1544  0.6050
   10SAPS  H15R 1265   7.012   1.043   8.023 -0.2563 -0.2247 -0.0831
   10SAPS  C216 1266   7.168   0.943   8.121  0.4967  0.1138  0.1130
   10SAPS  H16R 1267   7.278   0.930   8.111  0.1574 -1.3610 -2.5980
   10SAPS  H16S 1268   7.126   0.842   8.133 -0.6699  0.3312 -1.7223
   10SAPS  C217 1269   7.143   1.032   8.241  0.4302 -0.3792 -0.3121
   10SAPS  H17R 1270   7.035   1.055   8.260  0.6038  0.6691 -0.5111
   10SAPS  H17S 1271   7.187   1.132   8.219  0.1261 -0.0676  0.4543
   10SAPS  C218 1272   7.219   0.990   8.366  0.2152 -0.1739 -0.4348
   10SAPS  H18R 1273   7.322   0.955   8.342 -0.3828 -1.2172 -1.6349
   10SAPS  H18S 1274   7.160   0.902   8.401  0.2228 -0.5633 -1.3687
   10SAPS  C219 1275   7.210   1.096   8.478  0.4069 -0.4743  0.0292
   10SAPS  H19R 1276   7.107   1.137   8.483  0.5420 -0.1239 -0.0504
   10SAPS  H19S 1277   7.270   1.180   8.437 -0.1117 -1.0301 -1.9420
   10SAPS  C220 1278   7.261   1.053   8.609 -0.5225  0.0881 -0.5203
   10SAPS  H20R 1279   7.369   1.028   8.600 -0.8678 -1.1165 -1.5866
   10SAPS  H20S 1280   7.222   0.955   8.642  1.7664 -0.3899  1.0233
   10SAPS  H20T 1281   7.257   1.123   8.695 -0.3628 -0.7500  0.1902
   10SAPS   C33 1282   6.531   0.920   7.263 -0.1074 -0.0136  0.0147
   10SAPS   H3X 1283   6.619   0.859   7.235  1.5930  0.7518  3.1311
   10SAPS   H3Y 1284   6.510   0.884   7.366 -0.0223  0.2428  0.1243
   10SAPS   C34 1285   6.556   1.074   7.255 -0.0998 -0.4800  0.3152
   10SAPS   H4X 1286   6.459   1.124   7.234 -1.7835 -2.9399  1.7022
   10SAPS   H4Y 1287   6.636   1.106   7.185 -1.0900  1.1706 -0.1099
   10SAPS   C35 1288   6.594   1.139   7.389 -0.9215  0.2111  0.2646
   10SAPS   H5X 1289   6.521   1.136   7.473  2.5652  1.4787  3.6471
   10SAPS   H5Y 1290   6.609   1.247   7.369  1.2716  0.0850  0.9685
   10SAPS   C36 1291   6.727   1.078   7.453  0.8409 -0.4049 -0.5165
   10SAPS   H6X 1292   6.801   1.076   7.370 -0.6909 -0.5736 -1.9295
   10SAPS   H6Y 1293   6.689   0.979   7.485 -0.7716  0.1589 -0.6162
   10SAPS   C37 1294   6.773   1.165   7.566  0.3719 -0.3351 -0.2440
   10SAPS   H7X 1295   6.786   1.266   7.521 -0.1452 -0.5424 -0.8630
   10SAPS   H7Y 1296   6.869   1.122   7.602  0.3625  0.5240  0.8947
   10SAPS   C38 1297   6.671   1.178   7.680 -0.3285  0.2401 -0.2589
   10SAPS   H8X 1298   6.625   1.078   7.691  1.4619 -0.5691  0.1258
   10SAPS   H8Y 1299   6.589   1.244   7.643 -4.2370 -4.3666 -0.8332
   10SAPS   C39 1300   6.731   1.242   7.807 -0.0460 -0.6233  0.0351
   10SAPS   H9X 1301   6.762   1.348   7.794 -1.1961 -0.2387  0.3035
   10SAPS   H9Y 1302   6.812   1.176   7.846  0.9401 -0.4224 -1.5538
   10SAPS  C310 1303   6.626   1.243   7.918  0.5639 -0.4149  0.2221
   10SAPS  H10X 1304   6.533   1.282   7.872  1.8385  1.0244 -1.2584
   10SAPS  H10Y 1305   6.663   1.315   7.993 -0.3747  0.4296 -0.1070
   10SAPS  C311 1306   6.598   1.100   7.968 -0.1244  1.3284  0.1082
   10SAPS  H11X 1307   6.700   1.057   7.982 -0.5749 -0.5544 -1.7344
   10SAPS  H11Y 1308   6.547   1.034   7.894 -0.4743  0.6671  0.9262
   10SAPS  C312 1309   6.519   1.095   8.098  1.2140  0.3404  0.3795
   10SAPS  H12X 1310   6.412   1.064   8.088  1.0025  0.2839  2.3406
   10SAPS  H12Y 1311   6.516   1.197   8.142  0.4220  0.0623  1.0082
   10SAPS  C313 1312   6.587   0.999   8.204 -0.0636  0.0929  0.3487
   10SAPS  H13X 1313   6.689   1.040   8.223 -1.0607  2.2389  1.5162
   10SAPS  H13Y 1314   6.602   0.896   8.167  1.4143  0.9235 -1.5377
   10SAPS  C314 1315   6.494   1.004   8.325 -0.3540  0.1590  0.0351
   10SAPS  H14X 1316   6.398   0.954   8.299 -0.3406  0.7707 -1.2995
   10SAPS  H14Y 1317   6.481   1.109   8.359  0.9700  0.5648 -0.6489
   10SAPS  C315 1318   6.536   0.922   8.448  0.3285 -0.1013 -0.3389
   10SAPS  H15X 1319   6.618   0.969   8.505 -2.1444  2.0437  1.7173
   10SAPS  H15Y 1320   6.569   0.818   8.433  0.8968 -0.2807  1.8981
   10SAPS  C316 1321   6.424   0.920   8.551  0.3018  0.7106 -0.3400
   10SAPS  H16X 1322   6.343   0.865   8.498 -0.0480 -1.1460  1.9801
   10SAPS  H16Y 1323   6.390   1.023   8.574  0.4265  0.2280  2.2413
   10SAPS  C317 1324   6.462   0.853   8.690 -0.2376 -0.0551 -0.9239
   10SAPS  H17X 1325   6.539   0.911   8.746 -1.5276 -0.8180  1.8258
   10SAPS  H17Y 1326   6.503   0.752   8.667 -0.5792 -0.5493  0.4711
   10SAPS  C318 1327   6.336   0.844   8.773 -0.1197 -0.0204  0.4782
   10SAPS  H18X 1328   6.291   0.946   8.771  0.4727  0.2926  1.9160
   10SAPS  H18Y 1329   6.372   0.820   8.876 -2.8993 -0.4877  1.4247
   10SAPS  H18Z 1330   6.261   0.767   8.745 -0.2345  0.1052  0.4379
   11SAPS     N 1331   2.319   2.114   6.000 -0.2915  0.2483 -0.2078
   11SAPS   HN1 1332   2.238   2.083   6.058  0.8679 -1.5422  0.5696
   11SAPS   HN2 1333   2.394   2.100   6.071 -0.7547 -2.0949 -0.0818
   11SAPS   HN3 1334   2.312   2.216   5.982  1.2084  0.4331  0.0623
   11SAPS   C12 1335   2.350   2.044   5.874  0.0223 -0.4227  0.2860
   11SAPS  H12A 1336   2.360   1.937   5.887  0.5736 -0.4946 -0.6239
   11SAPS   C13 1337   2.245   2.056   5.762  0.0735  0.0682  0.5315
   11SAPS  O13A 1338   2.124   2.088   5.786  0.2407  0.9818 -0.6112
   11SAPS  O13B 1339   2.268   1.999   5.651  0.2731  0.0934  0.2613
   11SAPS   C11 1340   2.487   2.089   5.818  0.3021 -0.5129 -0.0760
   11SAPS  H11A 1341   2.486   2.200   5.805 -0.8649 -0.0714  2.8598
   11SAPS  H11B 1342   2.503   2.041   5.719  0.5730  2.2858 -1.4927
   11SAPS     P 1343   2.713   2.132   5.940  0.2698 -0.1342  0.0871
   11SAPS   O13 1344   2.817   2.037   5.976  0.0511 -0.3656  0.2680
   11SAPS   O14 1345   2.742   2.225   5.830  0.3628  0.4062 -0.0416
   11SAPS   O12 1346   2.592   2.041   5.900 -0.4291  0.0608 -0.7848
   11SAPS   O11 1347   2.662   2.193   6.075 -0.1978 -0.2873  0.5346
   11SAPS    C1 1348   2.711   2.320   6.114  0.0683 -0.0948 -0.0882
   11SAPS    HA 1349   2.779   2.365   6.039 -0.6004  0.2460 -0.4945
   11SAPS    HB 1350   2.623   2.387   6.123 -1.2939 -1.6208 -1.3768
   11SAPS    C2 1351   2.788   2.316   6.255  0.6573 -1.1959  0.2660
   11SAPS    HS 1352   2.874   2.249   6.234  0.9109 -1.9378  3.3274
   11SAPS   O21 1353   2.706   2.248   6.346  0.0341  0.4775 -0.1993
   11SAPS   C21 1354   2.765   2.214   6.457 -0.1865  0.6246 -0.8255
   11SAPS   O22 1355   2.883   2.215   6.484 -0.4922  0.5074 -0.8555
   11SAPS   C22 1356   2.663   2.167   6.555  0.1716  0.4601 -0.6193
   11SAPS   H2R 1357   2.603   2.094   6.495  1.9361  0.9254 -3.0915
   11SAPS   H2S 1358   2.723   2.109   6.628 -0.7295 -0.1134 -0.3184
   11SAPS    C3 1359   2.842   2.461   6.297 -0.1256  1.1940 -0.5836
   11SAPS    HX 1360   2.892   2.499   6.205  1.4728 -2.3375 -1.3821
   11SAPS    HY 1361   2.922   2.448   6.373  0.8285  2.6038 -1.2866
   11SAPS   O31 1362   2.737   2.537   6.360 -0.3643 -0.2543 -0.3282
   11SAPS   C31 1363   2.736   2.668   6.326 -1.2040 -0.3909  0.1192
   11SAPS   O32 1364   2.814   2.718   6.248 -0.5969  0.2302  0.2135
   11SAPS   C32 1365   2.628   2.744   6.398 -0.1452 -0.0772  0.8216
   11SAPS   H2X 1366   2.666   2.756   6.502 -3.1391 -0.0081  2.0150
   11SAPS   H2Y 1367   2.541   2.676   6.411  0.5991 -0.9023  1.6724
   11SAPS   C23 1368   2.574   2.271   6.633 -0.1554 -0.1976 -0.2217
   11SAPS   H3R 1369   2.518   2.219   6.714 -1.5421  0.1245 -0.9284
   11SAPS   H3S 1370   2.508   2.313   6.553  0.0107 -0.0248 -0.2685
   11SAPS   C24 1371   2.649   2.390   6.691  0.3435 -0.6998  0.0172
   11SAPS   H4R 1372   2.708   2.437   6.610 -1.5100  3.2072  0.7301
   11SAPS   H4S 1373   2.734   2.349   6.750  2.0508 -1.2625 -2.6604
   11SAPS   C25 1374   2.568   2.497   6.769 -0.2684 -0.2849 -0.0256
   11SAPS   H5R 1375   2.492   2.548   6.708  0.0243  0.7668  0.4636
   11SAPS   C26 1376   2.577   2.517   6.905  0.6354 -0.4746  0.0797
   11SAPS   H6R 1377   2.510   2.596   6.942  1.7326 -0.4341  2.0813
   11SAPS   C27 1378   2.654   2.446   7.009 -0.3414 -0.2781  0.8084
   11SAPS   H7R 1379   2.716   2.522   7.061  2.0266 -0.8815 -0.9667
   11SAPS   H7S 1380   2.727   2.377   6.964  0.7606  0.9737  0.6235
   11SAPS   C28 1381   2.568   2.373   7.108 -0.2805  0.0197  0.0663
   11SAPS   H8R 1382   2.468   2.416   7.128 -0.2977  0.9966 -1.9249
   11SAPS   C29 1383   2.588   2.246   7.143  0.0524 -0.2332 -0.0519
   11SAPS   H9R 1384   2.516   2.200   7.213 -2.4011 -3.2265 -4.1049
   11SAPS  C210 1385   2.696   2.156   7.107 -0.4245  0.1171 -0.0137
   11SAPS  H10R 1386   2.723   2.103   7.201  1.3489  1.4827  0.2971
   11SAPS  H10S 1387   2.787   2.219   7.098 -0.2129  0.2426  2.4706
   11SAPS  C211 1388   2.682   2.075   6.975  0.1047 -0.2843 -0.0806
   11SAPS  H11R 1389   2.613   2.122   6.904 -0.9530  0.0178  1.1067
   11SAPS  C212 1390   2.748   1.960   6.946  0.5503 -0.1811  0.1926
   11SAPS  H12R 1391   2.738   1.916   6.845 -0.6701 -1.4951  0.8453
   11SAPS  C213 1392   2.843   1.891   7.036 -0.0293 -0.2155 -0.0563
   11SAPS  H13R 1393   2.800   1.790   7.053 -0.6083  0.0281 -0.0724
   11SAPS  H13S 1394   2.842   1.938   7.137  0.4291 -0.7027  0.1766
   11SAPS  C214 1395   2.987   1.888   6.990 -0.3177 -0.4228  0.4608
   11SAPS  H14R 1396   3.007   1.916   6.886  0.2167  0.2127  0.7269
   11SAPS  C215 1397   3.083   1.827   7.059 -0.4910 -0.5000 -0.2249
   11SAPS  H15R 1398   3.174   1.809   7.001  0.0324  1.2661 -0.0153
   11SAPS  C216 1399   3.076   1.760   7.191  0.4934  0.2088  0.1455
   11SAPS  H16R 1400   3.144   1.672   7.197 -2.0257 -1.8119  0.4343
   11SAPS  H16S 1401   2.981   1.703   7.188  1.4672 -1.5948  1.5684
   11SAPS  C217 1402   3.085   1.842   7.318  0.2544  0.0264 -0.2690
   11SAPS  H17R 1403   3.041   1.775   7.395 -1.2107  0.4084 -0.7355
   11SAPS  H17S 1404   3.029   1.938   7.331  1.3848  0.7174 -0.3227
   11SAPS  C218 1405   3.227   1.892   7.366  0.4070  0.3753 -0.1160
   11SAPS  H18R 1406   3.224   1.935   7.469  0.9389 -0.4854  0.2724
   11SAPS  H18S 1407   3.269   1.972   7.302  3.7269 -0.8685  0.3091
   11SAPS  C219 1408   3.324   1.776   7.357  0.2134 -0.5122  0.1690
   11SAPS  H19R 1409   3.335   1.763   7.247  1.3823 -1.2922  0.3584
   11SAPS  H19S 1410   3.271   1.687   7.398  0.5093 -0.5438  0.4847
   11SAPS  C220 1411   3.458   1.787   7.424  0.0626 -0.1743  0.2273
   11SAPS  H20R 1412   3.522   1.696   7.416 -0.0252 -0.1060 -1.6986
   11SAPS  H20S 1413   3.455   1.805   7.533  0.1137  0.5940  0.1019
   11SAPS  H20T 1414   3.519   1.866   7.376  1.6236 -1.0808  0.6410
   11SAPS   C33 1415   2.593   2.886   6.335 -0.3903  0.7927 -0.0377
   11SAPS   H3X 1416   2.586   2.873   6.224 -2.5444  1.6074 -0.0579
   11SAPS   H3Y 1417   2.676   2.958   6.352 -1.4577  1.6726  1.7234
   11SAPS   C34 1418   2.470   2.960   6.382  0.3094  0.1110 -0.0215
   11SAPS   H4X 1419   2.372   2.921   6.348  2.0223 -3.1506 -1.7702
   11SAPS   H4Y 1420   2.463   3.066   6.350 -1.1791 -0.3762 -1.4439
   11SAPS   C35 1421   2.473   2.970   6.534 -0.1280  0.2874  0.0313
   11SAPS   H5X 1422   2.571   3.013   6.564 -1.3466  3.8595 -0.6589
   11SAPS   H5Y 1423   2.460   2.876   6.591 -0.0026  0.2799  0.0492
   11SAPS   C36 1424   2.360   3.059   6.594 -0.0095 -1.1393  0.0760
   11SAPS   H6X 1425   2.269   3.018   6.546  1.1639 -1.3441 -2.0646
   11SAPS   H6Y 1426   2.379   3.155   6.541 -0.5595 -0.4487  1.0811
   11SAPS   C37 1427   2.359   3.075   6.743 -0.1204 -0.6157  0.1316
   11SAPS   H7X 1428   2.287   3.152   6.777  1.3705  1.2327 -0.7609
   11SAPS   H7Y 1429   2.456   3.111   6.785 -2.3720  3.6155  2.2663
   11SAPS   C38 1430   2.328   2.941   6.822  0.0492  0.2573 -0.2365
   11SAPS   H8X 1431   2.420   2.884   6.798  0.3558  0.8952 -0.6024
   11SAPS   H8Y 1432   2.243   2.889   6.773  0.4761  1.0354 -1.8798
   11SAPS   C39 1433   2.316   2.976   6.977 -0.1632  0.0817  0.1537
   11SAPS   H9X 1434   2.219   3.022   7.005 -1.0216 -0.7692 -1.3248
   11SAPS   H9Y 1435   2.393   3.053   7.000  0.3650 -0.4506  0.2267
   11SAPS  C310 1436   2.343   2.848   7.063 -0.4203  0.2299 -0.1535
   11SAPS  H10X 1437   2.440   2.804   7.031 -2.0762 -3.4206 -0.7425
   11SAPS  H10Y 1438   2.254   2.782   7.051  0.8569 -1.9771  1.7180
   11SAPS  C311 1439   2.377   2.887   7.209  0.6629 -0.7170  0.5921
   11SAPS  H11X 1440   2.456   2.965   7.217 -1.6052  1.7969 -0.1509
   11SAPS  H11Y 1441   2.419   2.799   7.263  0.0286 -0.2968  1.8145
   11SAPS  C312 1442   2.252   2.926   7.289 -0.1251 -0.0013  0.6297
   11SAPS  H12X 1443   2.163   2.863   7.272 -1.0543  1.1939  0.9272
   11SAPS  H12Y 1444   2.224   3.031   7.264 -3.6348 -1.0032 -0.1085
   11SAPS  C313 1445   2.276   2.932   7.445 -0.4048 -0.0737 -0.7508
   11SAPS  H13X 1446   2.351   3.013   7.458 -0.5673  0.4865 -2.9028
   11SAPS  H13Y 1447   2.318   2.832   7.469  2.0831  1.4298  1.7757
   11SAPS  C314 1448   2.153   2.961   7.530 -0.3502  0.0685 -0.4416
   11SAPS  H14X 1449   2.085   2.879   7.500  0.6183 -1.0553  0.3373
   11SAPS  H14Y 1450   2.108   3.062   7.522  0.6158  0.5611  0.1491
   11SAPS  C315 1451   2.178   2.932   7.680  0.0099  0.2058 -0.0445
   11SAPS  H15X 1452   2.182   2.821   7.676  3.2473  0.1914  0.9404
   11SAPS  H15Y 1453   2.083   2.960   7.730 -0.1757 -0.8615  0.2231
   11SAPS  C316 1454   2.303   2.982   7.752 -0.4450  0.7011  0.0555
   11SAPS  H16X 1455   2.317   3.092   7.745 -0.8436  0.8422  1.2087
   11SAPS  H16Y 1456   2.383   2.933   7.693 -2.0916  2.0647 -3.6763
   11SAPS  C317 1457   2.310   2.952   7.902 -0.4518 -0.8868 -0.3524
   11SAPS  H17X 1458   2.288   2.844   7.917  2.9039 -1.6106  0.1644
   11SAPS  H17Y 1459   2.239   3.021   7.952  0.2338 -0.3784 -0.0642
   11SAPS  C318 1460   2.449   2.972   7.969  0.1476  0.5492  0.1634
   11SAPS  H18X 1461   2.519   2.907   7.912 -0.8182 -0.3461 -0.0367
   11SAPS  H18Y 1462   2.452   2.938   8.075  1.7211 -1.8429 -0.5685
   11SAPS  H18Z 1463   2.484   3.076   7.953  0.0289  0.2809 -2.1349
   12SAPS     N 1464   3.756   5.273   6.060  0.2165  0.3082  0.0544
   12SAPS   HN1 1465   3.806   5.324   6.135 -0.8680 -0.5037  1.3745
   12SAPS   HN2 1466   3.661   5.317   6.060 -0.3149 -0.7855  0.3208
   12SAPS   HN3 1467   3.739   5.176   6.093 -0.9119  0.1845 -0.8100
   12SAPS   C12 1468   3.817   5.278   5.924 -0.2743 -0.4867  0.6033
   12SAPS  H12A 1469   3.819   5.176   5.890 -0.5223 -0.8730  1.7039
   12SAPS   C13 1470   3.755   5.365   5.805 -0.1210 -0.3172 -0.4761
   12SAPS  O13A 1471   3.643   5.423   5.824  0.4705  0.4643  0.5260
   12SAPS  O13B 1472   3.805   5.356   5.689  0.5476 -0.4929  0.4393
   12SAPS   C11 1473   3.959   5.339   5.947  0.3094  0.9501  0.4328
   12SAPS  H11A 1474   3.958   5.449   5.956  0.0692  0.8215  2.3429
   12SAPS  H11B 1475   4.016   5.315   5.855  0.8014 -2.8516  1.5329
   12SAPS     P 1476   4.135   5.152   6.023 -0.5432 -0.1400  0.2992
   12SAPS   O13 1477   4.108   5.079   5.900 -0.6407  0.4632  0.3246
   12SAPS   O14 1478   4.276   5.211   6.025  0.5554 -0.0403  0.6387
   12SAPS   O12 1479   4.022   5.265   6.051 -0.2108  0.2743 -0.4741
   12SAPS   O11 1480   4.126   5.056   6.142 -0.1750  0.5456  0.0250
   12SAPS    C1 1481   4.037   5.079   6.246  0.6142 -0.1790 -1.1244
   12SAPS    HA 1482   4.055   5.180   6.289  2.2979 -1.1106  0.5345
   12SAPS    HB 1483   3.932   5.051   6.219  0.3136  0.4977 -0.6824
   12SAPS    C2 1484   4.071   5.002   6.372 -0.4144  0.3746 -0.4498
   12SAPS    HS 1485   4.173   5.035   6.400 -1.1489  1.4970  1.0113
   12SAPS   O21 1486   4.070   4.861   6.345 -0.3771  0.4022  0.0430
   12SAPS   C21 1487   4.155   4.788   6.416 -1.0135 -0.5270  1.1628
   12SAPS   O22 1488   4.253   4.832   6.473  0.5500 -0.5951 -0.7712
   12SAPS   C22 1489   4.100   4.645   6.413  0.2949 -0.3887 -0.0176
   12SAPS   H2R 1490   3.989   4.654   6.414  0.2401 -0.7800  1.7070
   12SAPS   H2S 1491   4.125   4.592   6.319  1.3324 -1.5044  0.8653
   12SAPS    C3 1492   3.973   5.027   6.491  0.1075 -0.4544  0.4672
   12SAPS    HX 1493   3.878   4.977   6.466 -1.5951  2.7372 -0.0525
   12SAPS    HY 1494   3.942   5.128   6.526 -0.2085 -0.7437  1.0186
   12SAPS   O31 1495   4.022   4.956   6.606 -0.4667 -0.4049  0.2219
   12SAPS   C31 1496   4.112   5.030   6.678 -0.4724  0.2491 -0.0896
   12SAPS   O32 1497   4.139   5.143   6.656 -0.3494 -0.8926  0.0548
   12SAPS   C32 1498   4.150   4.949   6.798 -0.4098  0.2281  0.7905
   12SAPS   H2X 1499   4.230   5.008   6.847 -0.1320  1.2151 -0.7832
   12SAPS   H2Y 1500   4.201   4.860   6.754  1.3865  1.6091 -0.0742
   12SAPS   C23 1501   4.142   4.569   6.547 -0.6440  0.3027  0.1998
   12SAPS   H3R 1502   4.072   4.484   6.560 -1.0713  0.7043  0.5980
   12SAPS   H3S 1503   4.120   4.633   6.635 -2.5872  0.1708 -0.1555
   12SAPS   C24 1504   4.290   4.516   6.548  0.1675 -0.1141 -0.5621
   12SAPS   H4R 1505   4.348   4.609   6.568 -0.6790  0.8967 -2.4882
   12SAPS   H4S 1506   4.326   4.478   6.450 -1.0485 -3.8373  0.2706
   12SAPS   C25 1507   4.290   4.414   6.654 -0.3718  0.4100 -0.5594
   12SAPS   H5R 1508   4.275   4.310   6.620 -0.2103 -0.8580  2.7885
   12SAPS   C26 1509   4.301   4.437   6.784 -0.3416  0.1647  1.2444
   12SAPS   H6R 1510   4.293   4.341   6.838 -1.9660 -1.2817 -1.4028
   12SAPS   C27 1511   4.299   4.567   6.854  0.1533  0.5222 -0.2866
   12SAPS   H7R 1512   4.210   4.594   6.915  0.6048  0.3187  0.4677
   12SAPS   H7S 1513   4.307   4.646   6.776 -1.9095  0.4800 -0.5916
   12SAPS   C28 1514   4.412   4.570   6.961  0.9341 -0.0776 -1.0569
   12SAPS   H8R 1515   4.498   4.627   6.923  0.3689 -0.3134 -2.7297
   12SAPS   C29 1516   4.410   4.530   7.089  0.0156  0.3486 -0.1162
   12SAPS   H9R 1517   4.499   4.557   7.149 -0.0079  3.6746 -1.3869
   12SAPS  C210 1518   4.298   4.466   7.158  0.3611  0.3723  0.3797
   12SAPS  H10R 1519   4.201   4.466   7.103  1.2215 -1.5537 -1.2693
   12SAPS  H10S 1520   4.280   4.516   7.255  3.7711  0.5706  1.0464
   12SAPS  C211 1521   4.329   4.324   7.165  0.1485  0.1023  0.0127
   12SAPS  H11R 1522   4.378   4.290   7.071 -0.6499  1.1562 -0.8046
   12SAPS  C212 1523   4.310   4.244   7.272  0.4941  0.2470  0.0873
   12SAPS  H12R 1524   4.344   4.141   7.260 -0.2689  0.0637 -0.5575
   12SAPS  C213 1525   4.255   4.279   7.414  0.3122 -0.1602  0.2704
   12SAPS  H13R 1526   4.201   4.191   7.455  0.2798 -1.1499 -1.7932
   12SAPS  H13S 1527   4.180   4.359   7.396  0.6109  0.4608  1.6878
   12SAPS  C214 1528   4.359   4.330   7.513  0.2885  0.1292 -0.4241
   12SAPS  H14R 1529   4.450   4.373   7.471  0.1825  2.5718  1.5662
   12SAPS  C215 1530   4.348   4.324   7.641  0.1437  0.0651  0.0462
   12SAPS  H15R 1531   4.435   4.357   7.700  1.6287 -2.1548 -0.7919
   12SAPS  C216 1532   4.227   4.252   7.713 -0.3746  0.0373  0.0545
   12SAPS  H16R 1533   4.274   4.159   7.752  0.0377  0.4668  0.6007
   12SAPS  H16S 1534   4.140   4.221   7.651 -0.8711  2.6836 -0.6569
   12SAPS  C217 1535   4.186   4.328   7.834  0.1642  0.8301  0.5836
   12SAPS  H17R 1536   4.085   4.301   7.872 -0.2290 -0.0540 -1.0150
   12SAPS  H17S 1537   4.198   4.437   7.818  1.4970  0.6731  0.3958
   12SAPS  C218 1538   4.275   4.293   7.959  0.2269 -0.3130 -0.3495
   12SAPS  H18R 1539   4.382   4.305   7.932  0.5066 -0.8284  0.4982
   12SAPS  H18S 1540   4.263   4.184   7.974 -2.3694 -0.0732 -0.2977
   12SAPS  C219 1541   4.233   4.369   8.087  0.1626 -0.1836  0.6673
   12SAPS  H19R 1542   4.128   4.346   8.116 -0.0221 -0.1162  0.0640
   12SAPS  H19S 1543   4.235   4.478   8.069 -1.2675 -0.0997  0.8753
   12SAPS  C220 1544   4.308   4.323   8.206 -0.7273 -0.2355 -0.9485
   12SAPS  H20R 1545   4.417   4.341   8.197 -0.3743 -2.2692 -1.2285
   12SAPS  H20S 1546   4.298   4.213   8.220  3.3047 -0.6384  0.0428
   12SAPS  H20T 1547   4.284   4.374   8.302 -0.1471 -0.4265 -0.6939
   12SAPS   C33 1548   4.031   4.915   6.885 -0.4280 -0.1854 -0.5750
   12SAPS   H3X 1549   3.964   4.850   6.824 -1.1974  1.2009 -1.2655
   12SAPS   H3Y 1550   3.977   5.008   6.911 -2.2541 -1.8896  2.2740
   12SAPS   C34 1551   4.072   4.856   7.026  0.2485  0.2014  0.4943
   12SAPS   H4X 1552   4.126   4.762   7.005  0.4951  0.3336  0.5320
   12SAPS   H4Y 1553   3.979   4.831   7.082  0.5741  1.3120  1.5766
   12SAPS   C35 1554   4.168   4.951   7.115  0.0094  0.5674  0.2628
   12SAPS   H5X 1555   4.122   5.051   7.129 -0.2160  0.5685 -0.4171
   12SAPS   H5Y 1556   4.267   4.966   7.067  0.3490  0.6016  0.9646
   12SAPS   C36 1557   4.197   4.889   7.251 -0.2636 -0.6495 -0.4538
   12SAPS   H6X 1558   4.262   4.963   7.303 -1.3037 -0.7803  1.1244
   12SAPS   H6Y 1559   4.247   4.790   7.251  2.0133  0.4230  0.6092
   12SAPS   C37 1560   4.073   4.875   7.342  0.0060 -0.2717  0.0928
   12SAPS   H7X 1561   3.998   4.814   7.287 -0.6411  1.1737 -0.6797
   12SAPS   H7Y 1562   4.023   4.968   7.373  0.1641 -0.1282 -0.0772
   12SAPS   C38 1563   4.101   4.802   7.478  0.0533 -0.0777  0.2111
   12SAPS   H8X 1564   4.194   4.853   7.511 -0.7635  1.4438  0.2573
   12SAPS   H8Y 1565   4.133   4.698   7.457 -0.3876 -0.1184 -0.3050
   12SAPS   C39 1566   3.978   4.822   7.572  1.0215  0.1191  0.1800
   12SAPS   H9X 1567   3.884   4.792   7.522  1.7853  1.6858 -2.3984
   12SAPS   H9Y 1568   3.968   4.931   7.589 -1.3890  0.0659 -0.5398
   12SAPS  C310 1569   4.005   4.757   7.705  0.1135 -0.4432 -0.3532
   12SAPS  H10X 1570   4.109   4.795   7.718  1.9185 -4.4858 -1.3485
   12SAPS  H10Y 1571   4.018   4.649   7.682  1.3161  0.2455 -3.4006
   12SAPS  C311 1572   3.911   4.796   7.821  0.0142  0.3321 -0.4229
   12SAPS  H11X 1573   3.812   4.759   7.784  0.3903  1.2691 -2.5711
   12SAPS  H11Y 1574   3.900   4.904   7.844 -0.5375  0.0799  0.5566
   12SAPS  C312 1575   3.958   4.734   7.955  0.1939  0.4801  0.2941
   12SAPS  H12X 1576   3.996   4.630   7.952 -0.4091  0.2081  1.7285
   12SAPS  H12Y 1577   3.871   4.724   8.024 -0.3264 -2.4994 -0.6383
   12SAPS  C313 1578   4.065   4.818   8.017  0.0991 -0.1703  0.0596
   12SAPS  H13X 1579   4.025   4.921   8.017  0.5723  0.0181 -0.3919
   12SAPS  H13Y 1580   4.160   4.816   7.959  0.3591 -2.3442  0.4631
   12SAPS  C314 1581   4.094   4.785   8.162 -0.2432 -0.3054  0.2606
   12SAPS  H14X 1582   4.110   4.675   8.163  0.3580 -0.2177  0.2899
   12SAPS  H14Y 1583   4.003   4.792   8.227  0.3316 -0.3231  1.0822
   12SAPS  C315 1584   4.219   4.844   8.216  0.3037 -0.3419  0.6294
   12SAPS  H15X 1585   4.199   4.948   8.248 -0.7711  0.5761 -2.6399
   12SAPS  H15Y 1586   4.295   4.845   8.135  0.4390 -1.0622  0.7467
   12SAPS  C316 1587   4.270   4.762   8.326  0.5777  0.2790 -0.1296
   12SAPS  H16X 1588   4.287   4.658   8.289 -1.9311 -0.6230  1.0479
   12SAPS  H16Y 1589   4.194   4.743   8.404 -1.0707 -0.2883 -1.8145
   12SAPS  C317 1590   4.398   4.811   8.389 -0.3049  0.4254 -0.1899
   12SAPS  H17X 1591   4.471   4.852   8.315 -0.9410  0.9357 -0.5443
   12SAPS  H17Y 1592   4.427   4.713   8.432  0.7699 -0.4110 -2.5927
   12SAPS  C318 1593   4.363   4.909   8.500 -0.2633 -0.0189 -0.0257
   12SAPS  H18X 1594   4.350   5.015   8.471 -0.1636 -0.8006 -3.3119
   12SAPS  H18Y 1595   4.448   4.915   8.571 -0.1129  0.4658 -0.2468
   12SAPS  H18Z 1596   4.270   4.888   8.559 -1.3253  2.9266 -0.5192
   13SAPS     N 1597   4.512   1.166   6.064  0.0735  0.4892  0.0407
   13SAPS   HN1 1598   4.595   1.107   6.086 -0.4292 -0.4330 -0.4921
   13SAPS   HN2 1599   4.461   1.204   6.146 -0.0314  1.7834 -0.5967
   13SAPS   HN3 1600   4.443   1.106   6.014  1.3631  0.0325 -1.2658
   13SAPS   C12 1601   4.555   1.267   5.961  0.5003  0.2631  0.0718
   13SAPS  H12A 1602   4.644   1.305   6.010  2.0246 -0.6898 -1.8045
   13SAPS   C13 1603   4.615   1.197   5.830  0.3025  0.5424 -0.0746
   13SAPS  O13A 1604   4.634   1.070   5.825 -0.1453 -0.1814  0.5764
   13SAPS  O13B 1605   4.673   1.274   5.746  0.3407 -0.1269 -0.0208
   13SAPS   C11 1606   4.437   1.365   5.929  0.2681 -0.8647  0.3408
   13SAPS  H11A 1607   4.350   1.311   5.886  0.7997 -0.3237 -1.5092
   13SAPS  H11B 1608   4.476   1.436   5.852 -2.2296 -0.9227 -1.0984
   13SAPS     P 1609   4.267   1.419   6.122  0.0026  0.4176 -0.0017
   13SAPS   O13 1610   4.216   1.544   6.181  1.2418 -0.5089 -0.2753
   13SAPS   O14 1611   4.165   1.336   6.046 -0.1336 -0.5104  0.0605
   13SAPS   O12 1612   4.399   1.452   6.040 -0.1509 -0.2540 -0.3038
   13SAPS   O11 1613   4.327   1.327   6.234  0.0399  0.2505 -0.2329
   13SAPS    C1 1614   4.429   1.366   6.324  0.0734 -0.1221 -0.1851
   13SAPS    HA 1615   4.514   1.294   6.317  0.9386  0.8925 -0.4190
   13SAPS    HB 1616   4.476   1.463   6.295  0.5759 -0.4012 -0.3191
   13SAPS    C2 1617   4.373   1.369   6.469  0.1225 -0.2262  0.4344
   13SAPS    HS 1618   4.459   1.405   6.529 -0.4061  0.5584  0.7439
   13SAPS   O21 1619   4.343   1.234   6.505  0.4241 -0.2766  0.0269
   13SAPS   C21 1620   4.443   1.153   6.528 -0.0067 -0.2099 -0.1481
   13SAPS   O22 1621   4.562   1.179   6.542  0.3444 -0.4445  0.1619
   13SAPS   C22 1622   4.394   1.007   6.548 -0.4132  0.2548  0.4574
   13SAPS   H2R 1623   4.379   0.954   6.452 -1.2483 -1.0470  1.2696
   13SAPS   H2S 1624   4.463   0.945   6.609 -0.4257 -0.4490 -0.2305
   13SAPS    C3 1625   4.255   1.467   6.490 -0.3675 -0.5231  0.0887
   13SAPS    HX 1626   4.164   1.422   6.445 -0.6491 -1.3103  1.4007
   13SAPS    HY 1627   4.278   1.566   6.445  1.5601 -0.5908  0.8525
   13SAPS   O31 1628   4.229   1.499   6.629 -0.4375  0.3690 -0.2526
   13SAPS   C31 1629   4.323   1.572   6.688 -0.0869 -0.3746 -0.6767
   13SAPS   O32 1630   4.409   1.636   6.632 -0.1547  0.0585 -0.2086
   13SAPS   C32 1631   4.284   1.577   6.840 -0.3991  0.0131 -0.3446
   13SAPS   H2X 1632   4.322   1.487   6.894 -0.9372  1.6828  3.0146
   13SAPS   H2Y 1633   4.175   1.584   6.857 -1.0460 -2.9360 -2.3789
   13SAPS   C23 1634   4.251   0.993   6.612 -0.2781 -0.7585 -0.4205
   13SAPS   H3R 1635   4.207   0.891   6.607 -2.2839 -0.2512  3.3478
   13SAPS   H3S 1636   4.175   1.062   6.568  1.0064  2.1558  1.5878
   13SAPS   C24 1637   4.229   1.047   6.755 -0.4734  0.1107 -0.4171
   13SAPS   H4R 1638   4.121   1.031   6.776 -0.2102 -0.8176  0.2869
   13SAPS   H4S 1639   4.258   1.154   6.746 -0.5220  0.3844  1.9858
   13SAPS   C25 1640   4.315   0.956   6.832 -1.1238  0.9143 -0.2125
   13SAPS   H5R 1641   4.305   0.848   6.814  1.8571  1.0458 -3.9514
   13SAPS   C26 1642   4.429   0.994   6.887  0.1792  0.2177 -0.3398
   13SAPS   H6R 1643   4.488   0.914   6.933  1.0829  1.0015 -0.0971
   13SAPS   C27 1644   4.479   1.136   6.903  0.4014  0.1325  0.2939
   13SAPS   H7R 1645   4.406   1.188   6.969 -0.4684  0.5475 -0.9662
   13SAPS   H7S 1646   4.498   1.190   6.808  2.4050 -0.4413  0.3161
   13SAPS   C28 1647   4.620   1.139   6.961  0.5456  0.7092 -0.1704
   13SAPS   H8R 1648   4.699   1.140   6.885  2.8722  2.7133  2.0664
   13SAPS   C29 1649   4.661   1.136   7.092 -0.5091 -0.0151 -1.1490
   13SAPS   H9R 1650   4.767   1.158   7.109 -0.3653 -0.6443 -1.2098
   13SAPS  C210 1651   4.585   1.134   7.226  0.1956 -0.3815 -0.0301
   13SAPS  H10R 1652   4.481   1.171   7.221  0.2851  0.7329  3.5549
   13SAPS  H10S 1653   4.626   1.210   7.296  0.7958 -1.3284  0.6763
   13SAPS  C211 1654   4.584   0.999   7.280 -0.4236 -0.6426  0.3266
   13SAPS  H11R 1655   4.584   0.917   7.207  0.1340 -1.0976  0.8304
   13SAPS  C212 1656   4.574   0.970   7.404 -0.6936 -0.6173  0.2446
   13SAPS  H12R 1657   4.580   0.865   7.433  3.0211 -0.3270  1.0980
   13SAPS  C213 1658   4.575   1.074   7.514 -0.1322  0.1526 -0.0736
   13SAPS  H13R 1659   4.549   1.175   7.477 -1.0284  0.5843  1.6421
   13SAPS  H13S 1660   4.675   1.083   7.562 -0.2452  1.2325 -0.0281
   13SAPS  C214 1661   4.474   1.018   7.609  0.2036  0.3805  0.3461
   13SAPS  H14R 1662   4.374   0.997   7.568  0.9686  0.8952 -1.8890
   13SAPS  C215 1663   4.499   1.000   7.738 -0.0297  0.3328  0.3425
   13SAPS  H15R 1664   4.426   0.940   7.794  0.6160 -0.2959  0.5395
   13SAPS  C216 1665   4.629   1.033   7.813 -0.0348 -0.1653 -1.0249
   13SAPS  H16R 1666   4.716   1.061   7.750  0.1635  1.4736 -0.0595
   13SAPS  H16S 1667   4.657   0.949   7.881 -1.1373  0.4947  0.2885
   13SAPS  C217 1668   4.626   1.159   7.907  0.4846 -0.0950 -0.3137
   13SAPS  H17R 1669   4.535   1.141   7.967  0.7483  0.9787  0.4470
   13SAPS  H17S 1670   4.622   1.254   7.848 -2.1874  0.1398  0.1464
   13SAPS  C218 1671   4.746   1.172   7.997 -0.0979 -0.0394  0.4437
   13SAPS  H18R 1672   4.842   1.184   7.942 -0.5481 -1.0954 -0.6200
   13SAPS  H18S 1673   4.763   1.082   8.060 -0.0724  0.3971  1.0679
   13SAPS  C219 1674   4.717   1.294   8.089  0.4424 -0.0519 -0.1445
   13SAPS  H19R 1675   4.621   1.279   8.143  0.7954  1.4232  0.9597
   13SAPS  H19S 1676   4.691   1.380   8.024 -0.3949 -0.3396 -0.1981
   13SAPS  C220 1677   4.821   1.329   8.190 -0.1317 -0.8691 -0.0811
   13SAPS  H20R 1678   4.786   1.388   8.277  0.0555  2.9333 -2.3336
   13SAPS  H20S 1679   4.892   1.399   8.140 -0.3336  0.8407  1.9070
   13SAPS  H20T 1680   4.879   1.239   8.219 -2.0356 -2.2614 -0.4818
   13SAPS   C33 1681   4.343   1.703   6.900 -0.8153 -0.3913 -0.1200
   13SAPS   H3X 1682   4.323   1.789   6.833  0.1183 -0.9655 -1.1569
   13SAPS   H3Y 1683   4.452   1.681   6.904 -0.2205  2.1328 -0.7502
   13SAPS   C34 1684   4.298   1.729   7.044 -0.1967  0.3426 -0.2696
   13SAPS   H4X 1685   4.198   1.778   7.049 -1.5659 -2.2249 -1.1077
   13SAPS   H4Y 1686   4.374   1.798   7.087  1.2318 -1.8607  0.8852
   13SAPS   C35 1687   4.293   1.616   7.155 -0.3339 -0.3522  0.2705
   13SAPS   H5X 1688   4.254   1.525   7.106 -2.5780  1.4844 -1.6023
   13SAPS   H5Y 1689   4.240   1.641   7.249  0.3485 -1.5150  0.9820
   13SAPS   C36 1690   4.435   1.592   7.207  0.8319 -0.4950 -0.7816
   13SAPS   H6X 1691   4.486   1.679   7.253  1.1204 -1.6157  1.1292
   13SAPS   H6Y 1692   4.496   1.570   7.117 -0.4733 -0.8347 -1.6140
   13SAPS   C37 1693   4.449   1.490   7.315  0.2909 -0.0218 -0.2109
   13SAPS   H7X 1694   4.559   1.479   7.329 -0.0525 -2.8030  0.9667
   13SAPS   H7Y 1695   4.413   1.389   7.288  1.5315 -0.3769 -0.5956
   13SAPS   C38 1696   4.372   1.525   7.447  0.4198 -0.1075  0.3372
   13SAPS   H8X 1697   4.263   1.506   7.436  0.4513  0.0612 -0.3203
   13SAPS   H8Y 1698   4.384   1.635   7.451 -1.4724  0.1959 -1.0433
   13SAPS   C39 1699   4.438   1.455   7.569 -0.1918  0.3772  0.0676
   13SAPS   H9X 1700   4.548   1.466   7.557  0.2444 -4.0788 -1.7778
   13SAPS   H9Y 1701   4.407   1.349   7.575  0.5933  0.1296 -0.1940
   13SAPS  C310 1702   4.403   1.540   7.691  0.5866 -0.3797 -0.3974
   13SAPS  H10X 1703   4.293   1.544   7.708  0.6494  0.1257 -0.0735
   13SAPS  H10Y 1704   4.426   1.647   7.670 -1.0955 -0.2275 -1.7093
   13SAPS  C311 1705   4.472   1.497   7.820 -0.1959 -0.1655 -0.1885
   13SAPS  H11X 1706   4.579   1.500   7.788  0.7615 -0.5298  2.6467
   13SAPS  H11Y 1707   4.442   1.393   7.845 -2.9093  0.7942  0.8943
   13SAPS  C312 1708   4.454   1.602   7.933 -0.2560 -0.2519  0.5475
   13SAPS  H12X 1709   4.485   1.562   8.033 -1.2215  0.2039  1.0434
   13SAPS  H12Y 1710   4.348   1.633   7.929  0.2050  1.3320 -0.2539
   13SAPS  C313 1711   4.544   1.727   7.906  0.2075 -0.1481  0.4009
   13SAPS  H13X 1712   4.528   1.780   7.809 -0.2252 -0.3010  0.3875
   13SAPS  H13Y 1713   4.652   1.698   7.900  1.3756  3.5112  1.2078
   13SAPS  C314 1714   4.546   1.850   8.003 -0.1055 -0.6365 -0.2300
   13SAPS  H14X 1715   4.614   1.928   7.961 -0.3449 -0.7957 -0.9258
   13SAPS  H14Y 1716   4.580   1.819   8.104 -2.1375 -1.8792  0.1160
   13SAPS  C315 1717   4.407   1.902   8.018  0.2744  0.4549 -0.3335
   13SAPS  H15X 1718   4.393   1.974   8.101  0.0926 -0.9847  0.9283
   13SAPS  H15Y 1719   4.349   1.817   8.061 -1.1089 -0.0599 -2.9572
   13SAPS  C316 1720   4.334   1.960   7.901  0.0882  1.0511 -0.8257
   13SAPS  H16X 1721   4.322   1.883   7.821  1.6481 -1.7550  1.4316
   13SAPS  H16Y 1722   4.391   2.048   7.864  0.0700  0.9425 -1.1147
   13SAPS  C317 1723   4.189   1.999   7.947 -0.5310 -0.2984  0.4051
   13SAPS  H17X 1724   4.210   2.076   8.025 -1.3432  0.1638  0.1788
   13SAPS  H17Y 1725   4.146   1.917   8.009 -0.3682 -1.2659 -0.7363
   13SAPS  C318 1726   4.089   2.045   7.843  0.3715 -0.2115  0.1648
   13SAPS  H18X 1727   3.993   2.074   7.890  1.2069  2.2784  0.5009
   13SAPS  H18Y 1728   4.069   1.978   7.757  1.4986  1.0955 -1.1800
   13SAPS  H18Z 1729   4.129   2.135   7.790 -0.8043 -0.3213 -0.9877
   14SAPS     N 1730   3.175   3.157   5.760  0.4559  0.0181 -0.5262
   14SAPS   HN1 1731   3.247   3.196   5.825  0.3012  1.2894 -1.0970
   14SAPS   HN2 1732   3.189   3.210   5.672 -1.6086 -1.2713 -1.6861
   14SAPS   HN3 1733   3.080   3.177   5.796 -0.3310 -1.2304 -1.8313
   14SAPS   C12 1734   3.210   3.016   5.728 -0.3302  0.0521  0.2837
   14SAPS  H12A 1735   3.209   2.964   5.823 -0.4575 -1.2417 -0.3919
   14SAPS   C13 1736   3.108   2.937   5.647  0.9591 -0.0474 -0.3664
   14SAPS  O13A 1737   3.006   2.996   5.604  0.3141 -0.1445  0.6507
   14SAPS  O13B 1738   3.137   2.821   5.606  0.9006 -0.2753  0.1876
   14SAPS   C11 1739   3.342   3.008   5.651 -0.3929  0.0726  0.7491
   14SAPS  H11A 1740   3.324   3.046   5.548  1.3276  0.3001  0.5011
   14SAPS  H11B 1741   3.371   2.901   5.655 -0.4454  0.0589  0.7660
   14SAPS     P 1742   3.588   3.072   5.665 -0.0796 -0.2107 -0.0517
   14SAPS   O13 1743   3.590   3.072   5.518 -0.0189 -0.2600  0.2218
   14SAPS   O14 1744   3.672   3.173   5.733 -0.6000  0.3589 -0.4379
   14SAPS   O12 1745   3.440   3.087   5.706 -0.4704  0.2021 -0.2777
   14SAPS   O11 1746   3.646   2.936   5.725  0.3488  0.1260  0.2175
   14SAPS    C1 1747   3.654   2.921   5.867  0.9591 -0.1625 -0.7108
   14SAPS    HA 1748   3.751   2.868   5.878  3.1543  3.3945 -1.4512
   14SAPS    HB 1749   3.672   3.019   5.915  0.4748  0.8782 -2.5746
   14SAPS    C2 1750   3.542   2.842   5.935  0.3074  1.1891  0.1714
   14SAPS    HS 1751   3.452   2.874   5.878 -0.0306  0.6759  0.4034
   14SAPS   O21 1752   3.533   2.899   6.069  0.2408 -0.1394  0.1225
   14SAPS   C21 1753   3.421   2.959   6.100 -0.5274  0.1270  0.1505
   14SAPS   O22 1754   3.323   2.974   6.030 -0.3173  0.1486 -0.6803
   14SAPS   C22 1755   3.439   3.015   6.241 -0.2859 -0.2219 -0.2103
   14SAPS   H2R 1756   3.446   2.927   6.308 -1.4062  1.1322  1.7967
   14SAPS   H2S 1757   3.528   3.082   6.242 -1.0422  0.8124 -0.4565
   14SAPS    C3 1758   3.556   2.690   5.934 -0.5527  0.7327 -0.0701
   14SAPS    HX 1759   3.665   2.676   5.953 -0.8788 -1.8825  0.2765
   14SAPS    HY 1760   3.530   2.637   5.840 -0.7117 -1.3069  1.0548
   14SAPS   O31 1761   3.487   2.630   6.043 -0.1415 -0.7587 -0.6703
   14SAPS   C31 1762   3.357   2.610   6.039  0.2003 -0.0150 -0.2957
   14SAPS   O32 1763   3.283   2.653   5.956  0.7625  0.2448 -0.2713
   14SAPS   C32 1764   3.313   2.513   6.152  0.6237 -0.3624  1.1282
   14SAPS   H2X 1765   3.400   2.462   6.197  1.5772  0.2481  0.0384
   14SAPS   H2Y 1766   3.253   2.439   6.094 -2.3978  2.6048  0.1096
   14SAPS   C23 1767   3.315   3.091   6.293 -0.2565 -0.4808 -0.3004
   14SAPS   H3R 1768   3.236   3.014   6.302 -2.3997  1.8232  4.4088
   14SAPS   H3S 1769   3.294   3.170   6.218  3.0619  0.4640 -0.4095
   14SAPS   C24 1770   3.332   3.152   6.429  0.3818 -0.8327  0.6974
   14SAPS   H4R 1771   3.411   3.226   6.405  0.1012 -0.0337  2.1380
   14SAPS   H4S 1772   3.391   3.088   6.498  2.3416  1.5813  1.4132
   14SAPS   C25 1773   3.209   3.234   6.475 -0.8324 -0.4166  0.4708
   14SAPS   H5R 1774   3.156   3.294   6.400  0.3904 -1.4187 -1.2459
   14SAPS   C26 1775   3.156   3.234   6.596 -0.0227  0.4040  0.5588
   14SAPS   H6R 1776   3.077   3.308   6.616 -0.4865 -0.5698  2.6591
   14SAPS   C27 1777   3.217   3.154   6.710 -0.0660  0.1510 -0.1471
   14SAPS   H7R 1778   3.287   3.071   6.687  0.3011  0.5791 -0.5979
   14SAPS   H7S 1779   3.136   3.097   6.760  1.2121 -2.7765 -1.1541
   14SAPS   C28 1780   3.295   3.244   6.802  0.5839 -0.1086 -0.1574
   14SAPS   H8R 1781   3.393   3.278   6.767  0.9686 -1.5569 -0.5554
   14SAPS   C29 1782   3.241   3.287   6.920 -0.8810  0.4047 -0.5152
   14SAPS   H9R 1783   3.300   3.360   6.976  0.1756 -3.3853  3.9459
   14SAPS  C210 1784   3.114   3.235   6.987 -0.0115 -0.0420 -0.3741
   14SAPS  H10R 1785   3.100   3.126   6.972  1.2748 -0.7306  2.5703
   14SAPS  H10S 1786   3.026   3.280   6.936 -1.3158 -0.7868  1.1286
   14SAPS  C211 1787   3.117   3.274   7.134  0.4836  1.0723 -0.1537
   14SAPS  H11R 1788   3.117   3.382   7.155  2.0270  1.4769 -1.9006
   14SAPS  C212 1789   3.112   3.187   7.234  0.3501 -0.0141 -0.3493
   14SAPS  H12R 1790   3.102   3.230   7.335  0.6759  0.2762 -0.4373
   14SAPS  C213 1791   3.107   3.030   7.234  0.1225  0.3493  0.3595
   14SAPS  H13R 1792   3.096   3.001   7.127 -1.4805 -0.0828  0.6101
   14SAPS  H13S 1793   3.020   2.991   7.291 -1.7003 -0.9063 -2.9926
   14SAPS  C214 1794   3.233   2.973   7.285 -0.1217  0.0450 -0.3811
   14SAPS  H14R 1795   3.276   3.035   7.365 -1.4649  0.9878 -0.3552
   14SAPS  C215 1796   3.276   2.846   7.272 -0.2930  0.0239 -0.2063
   14SAPS  H15R 1797   3.377   2.826   7.312  0.0862 -0.5265 -1.4013
   14SAPS  C216 1798   3.211   2.757   7.173  0.0718  0.5157  0.4728
   14SAPS  H16R 1799   3.133   2.808   7.113  0.0424  0.5445  0.5355
   14SAPS  H16S 1800   3.159   2.676   7.228  0.9679 -0.1402  0.3809
   14SAPS  C217 1801   3.308   2.682   7.073  0.1504  0.3667 -0.0590
   14SAPS  H17R 1802   3.242   2.604   7.029  0.9638  0.6686 -1.9026
   14SAPS  H17S 1803   3.389   2.637   7.134 -1.0869  1.1815  2.2991
   14SAPS  C218 1804   3.341   2.784   6.958  0.0294  0.9791 -0.4452
   14SAPS  H18R 1805   3.381   2.880   7.000  1.5079  0.3036 -0.2352
   14SAPS  H18S 1806   3.255   2.821   6.899  0.4198 -0.6092 -2.0889
   14SAPS  C219 1807   3.445   2.725   6.861 -0.0199 -0.5743 -1.0211
   14SAPS  H19R 1808   3.414   2.626   6.822 -3.7861  0.1090 -0.1324
   14SAPS  H19S 1809   3.534   2.701   6.923 -1.3787 -1.7160  0.5837
   14SAPS  C220 1810   3.467   2.822   6.747  0.0189 -0.3921  0.2580
   14SAPS  H20R 1811   3.529   2.779   6.665 -1.6401 -0.7905 -0.8348
   14SAPS  H20S 1812   3.502   2.923   6.779  0.9430 -1.2130  1.9798
   14SAPS  H20T 1813   3.368   2.845   6.701 -0.0751 -0.8345  0.2338
   14SAPS   C33 1814   3.219   2.571   6.261 -0.1855 -0.0584 -0.1428
   14SAPS   H3X 1815   3.198   2.488   6.332  0.5800  3.1570  4.2073
   14SAPS   H3Y 1816   3.122   2.600   6.213 -0.6874  0.2238  1.0171
   14SAPS   C34 1817   3.285   2.680   6.343 -0.0483 -0.5927 -0.7020
   14SAPS   H4X 1818   3.288   2.773   6.281 -0.1900  0.5393  0.9391
   14SAPS   H4Y 1819   3.391   2.663   6.372 -0.0457  0.5945  0.0257
   14SAPS   C35 1820   3.216   2.738   6.472 -0.2619  0.3493  0.1874
   14SAPS   H5X 1821   3.278   2.815   6.523  1.2962  0.0805 -1.2151
   14SAPS   H5Y 1822   3.216   2.658   6.549  0.7365  1.5938  1.5425
   14SAPS   C36 1823   3.074   2.773   6.447 -0.5290 -0.6519 -0.3709
   14SAPS   H6X 1824   3.019   2.680   6.421  2.8167 -3.2810  1.1377
   14SAPS   H6Y 1825   3.068   2.835   6.355  0.5723  2.1871  1.3101
   14SAPS   C37 1826   3.006   2.845   6.564  0.7259 -0.1821  0.1090
   14SAPS   H7X 1827   2.909   2.885   6.527  0.1017 -1.7360 -0.0158
   14SAPS   H7Y 1828   3.062   2.936   6.595  0.8076  0.3975 -1.6620
   14SAPS   C38 1829   2.968   2.755   6.684 -0.0929  0.3540  0.3055
   14SAPS   H8X 1830   3.062   2.714   6.727 -0.3360 -0.8206 -0.2413
   14SAPS   H8Y 1831   2.916   2.664   6.648 -0.2925 -0.3080  2.1504
   14SAPS   C39 1832   2.901   2.828   6.796  0.4921 -0.7176 -0.2237
   14SAPS   H9X 1833   2.797   2.845   6.761  0.5911  0.3856 -0.0010
   14SAPS   H9Y 1834   2.948   2.927   6.817 -0.9798 -0.1710  0.6153
   14SAPS  C310 1835   2.885   2.749   6.924 -0.3932 -0.7750  0.1521
   14SAPS  H10X 1836   2.986   2.711   6.949 -1.1932 -1.1803  3.1011
   14SAPS  H10Y 1837   2.824   2.658   6.901 -0.0830 -0.4653 -2.2113
   14SAPS  C311 1838   2.825   2.837   7.029  0.2890 -0.1690 -0.7591
   14SAPS  H11X 1839   2.720   2.853   6.994  0.1558  0.6274 -0.0220
   14SAPS  H11Y 1840   2.874   2.936   7.024  0.7249 -0.3912 -0.9042
   14SAPS  C312 1841   2.828   2.775   7.171  0.2302  0.1748 -1.0174
   14SAPS  H12X 1842   2.937   2.766   7.191  0.1311  2.2583  0.7728
   14SAPS  H12Y 1843   2.775   2.677   7.164 -0.3613  0.3534  0.5998
   14SAPS  C313 1844   2.751   2.856   7.267  0.4908 -0.4247 -0.0577
   14SAPS  H13X 1845   2.647   2.852   7.229  0.3546 -3.1225  0.3560
   14SAPS  H13Y 1846   2.798   2.955   7.255 -1.5121  0.3979 -1.7972
   14SAPS  C314 1847   2.750   2.802   7.412 -0.0398  0.4203 -0.7339
   14SAPS  H14X 1848   2.670   2.859   7.465 -1.2520 -0.7287 -1.2824
   14SAPS  H14Y 1849   2.845   2.826   7.464 -1.5055  2.9354  1.0330
   14SAPS  C315 1850   2.719   2.647   7.414 -0.0633 -0.2598 -0.4390
   14SAPS  H15X 1851   2.822   2.607   7.398  0.8845  0.9025  2.1067
   14SAPS  H15Y 1852   2.661   2.626   7.322  0.0147  2.5028 -1.2216
   14SAPS  C316 1853   2.662   2.589   7.536 -0.3966  0.4869 -0.0081
   14SAPS  H16X 1854   2.569   2.637   7.571 -0.5526 -1.3112  2.2012
   14SAPS  H16Y 1855   2.727   2.587   7.626  0.0370 -0.1342 -0.3269
   14SAPS  C317 1856   2.647   2.434   7.513  0.2579 -0.2753 -0.2804
   14SAPS  H17X 1857   2.742   2.389   7.478  0.2923 -1.2177  0.9931
   14SAPS  H17Y 1858   2.575   2.428   7.429  1.2218  1.1224 -1.2640
   14SAPS  C318 1859   2.589   2.359   7.631 -0.0546  0.3501  0.7947
   14SAPS  H18X 1860   2.483   2.385   7.652  0.1893  2.3938 -0.2751
   14SAPS  H18Y 1861   2.634   2.378   7.731  0.4273  3.1417  0.1302
   14SAPS  H18Z 1862   2.594   2.251   7.605  2.6517  0.2450  1.4441
   15SAPS     N 1863   4.388   2.751   5.741 -0.6533  0.0160 -0.3420
   15SAPS   HN1 1864   4.413   2.829   5.676  1.9986 -1.2224 -0.9344
   15SAPS   HN2 1865   4.287   2.728   5.744 -0.7633  0.5327  0.1062
   15SAPS   HN3 1866   4.415   2.784   5.836 -2.1482  1.1542 -0.2721
   15SAPS   C12 1867   4.468   2.635   5.699 -0.8673  0.3028 -0.6100
   15SAPS  H12A 1868   4.440   2.612   5.597  1.2050  2.6078 -1.8052
   15SAPS   C13 1869   4.620   2.663   5.694  0.7200 -0.2689 -0.1434
   15SAPS  O13A 1870   4.655   2.787   5.690 -0.3553  0.5927  0.5329
   15SAPS  O13B 1871   4.704   2.579   5.662  0.7375 -0.5533 -0.2300
   15SAPS   C11 1872   4.452   2.513   5.801  0.4551 -0.8571 -0.3585
   15SAPS  H11A 1873   4.534   2.441   5.781 -1.7236 -3.9261  1.0511
   15SAPS  H11B 1874   4.355   2.465   5.778 -0.1660 -0.4282  1.2064
   15SAPS     P 1875   4.393   2.493   6.058  0.7182 -0.2788 -0.1049
   15SAPS   O13 1876   4.502   2.415   6.122  0.3569 -0.0811 -0.0625
   15SAPS   O14 1877   4.339   2.604   6.146 -0.6895  0.5529 -0.9369
   15SAPS   O12 1878   4.456   2.565   5.937 -1.1131 -0.2327 -0.0364
   15SAPS   O11 1879   4.285   2.398   5.997 -0.2628 -0.0640  0.4641
   15SAPS    C1 1880   4.159   2.455   5.969  0.0459  0.1836 -0.5692
   15SAPS    HA 1881   4.160   2.553   5.916 -2.7657 -0.3551 -1.7791
   15SAPS    HB 1882   4.105   2.391   5.896  0.9438 -1.9776  0.5839
   15SAPS    C2 1883   4.057   2.452   6.091  0.0403 -0.6486 -0.6449
   15SAPS    HS 1884   4.075   2.544   6.151 -3.4387 -0.8927  1.0756
   15SAPS   O21 1885   4.091   2.339   6.176 -0.0910  0.1418 -0.8315
   15SAPS   C21 1886   4.092   2.354   6.305 -0.0876 -0.4449  0.6886
   15SAPS   O22 1887   4.042   2.451   6.361 -0.3034 -0.0313 -0.0241
   15SAPS   C22 1888   4.167   2.241   6.370 -0.0307  0.2859 -1.1143
   15SAPS   H2R 1889   4.108   2.150   6.346 -1.5685  0.4830  1.5795
   15SAPS   H2S 1890   4.272   2.228   6.336  1.4157 -1.7869  3.3603
   15SAPS    C3 1891   3.909   2.451   6.059  0.3309  1.0168  0.2526
   15SAPS    HX 1892   3.875   2.349   6.031 -0.1659  0.8798  1.2867
   15SAPS    HY 1893   3.873   2.512   5.973 -1.7779  1.2911  1.2448
   15SAPS   O31 1894   3.819   2.484   6.161  0.2155 -0.5080  0.1805
   15SAPS   C31 1895   3.819   2.616   6.199  0.1794 -0.4700 -0.3585
   15SAPS   O32 1896   3.900   2.699   6.157  0.2603 -0.5904  0.1107
   15SAPS   C32 1897   3.693   2.654   6.288  0.4754  0.8144 -0.5430
   15SAPS   H2X 1898   3.652   2.559   6.330 -0.9554  1.5302 -0.2838
   15SAPS   H2Y 1899   3.620   2.691   6.214  1.3642  1.1862 -1.2552
   15SAPS   C23 1900   4.171   2.248   6.524  0.7245  0.0613  0.0239
   15SAPS   H3R 1901   4.071   2.255   6.571  0.3292  0.2742 -0.8251
   15SAPS   H3S 1902   4.235   2.334   6.554 -0.1159  0.9318 -0.6220
   15SAPS   C24 1903   4.239   2.127   6.590 -0.7569  0.3970 -0.1472
   15SAPS   H4R 1904   4.226   2.132   6.700 -0.0963 -3.4979  0.2294
   15SAPS   H4S 1905   4.346   2.138   6.563 -1.2240  1.5779 -1.6818
   15SAPS   C25 1906   4.179   1.995   6.547 -0.3221  0.1814 -0.0790
   15SAPS   H5R 1907   4.192   1.978   6.440  0.5471 -1.2463  0.2261
   15SAPS   C26 1908   4.113   1.911   6.620 -0.3066 -0.2993 -0.3456
   15SAPS   H6R 1909   4.089   1.811   6.581  2.5469 -0.4676 -2.0248
   15SAPS   C27 1910   4.073   1.909   6.768 -0.9416  0.3951  0.9217
   15SAPS   H7R 1911   4.145   1.955   6.840  2.3254 -0.0328 -1.8000
   15SAPS   H7S 1912   4.070   1.800   6.787  1.5954 -0.1525 -1.2583
   15SAPS   C28 1913   3.940   1.972   6.792  0.6819  0.4363  0.0061
   15SAPS   H8R 1914   3.914   2.064   6.738  1.6812  0.4457 -0.4953
   15SAPS   C29 1915   3.849   1.934   6.887  0.0463 -0.4825  0.2463
   15SAPS   H9R 1916   3.754   1.989   6.882  0.9766  1.0696 -3.7241
   15SAPS  C210 1917   3.864   1.824   6.984 -0.2056  0.5155 -0.5050
   15SAPS  H10R 1918   3.907   1.733   6.937  0.3402  1.6125 -2.2339
   15SAPS  H10S 1919   3.766   1.792   7.025 -0.7747 -0.0896 -2.2650
   15SAPS  C211 1920   3.956   1.866   7.092  0.5508 -0.3986 -0.1031
   15SAPS  H11R 1921   4.029   1.943   7.063  0.1160  1.1281  2.4680
   15SAPS  C212 1922   3.943   1.845   7.224  0.0188 -0.5092  0.0673
   15SAPS  H12R 1923   4.007   1.912   7.284 -1.1083  1.7246 -1.1023
   15SAPS  C213 1924   3.838   1.762   7.300 -1.2365  0.2540  0.7344
   15SAPS  H13R 1925   3.754   1.731   7.234 -0.7430  0.9383 -0.2456
   15SAPS  H13S 1926   3.794   1.807   7.392 -0.2374  0.8380  0.9475
   15SAPS  C214 1927   3.892   1.615   7.320 -0.4993 -0.5302  0.0574
   15SAPS  H14R 1928   3.929   1.562   7.231  1.3713 -1.8066  1.5140
   15SAPS  C215 1929   3.882   1.538   7.429  0.8123 -0.4860  0.1271
   15SAPS  H15R 1930   3.921   1.435   7.423 -2.7266 -1.9582 -0.3019
   15SAPS  C216 1931   3.819   1.582   7.557  0.0354  0.6348 -0.3341
   15SAPS  H16R 1932   3.766   1.492   7.593 -0.5707  0.8132 -0.7676
   15SAPS  H16S 1933   3.742   1.662   7.549  0.9610  1.5332 -0.5446
   15SAPS  C217 1934   3.927   1.602   7.668 -0.0332 -0.5093  0.4373
   15SAPS  H17R 1935   3.999   1.677   7.627 -0.3209 -0.7876 -0.5985
   15SAPS  H17S 1936   3.979   1.508   7.695 -0.8514 -1.9601 -2.6237
   15SAPS  C218 1937   3.881   1.680   7.789  0.2590  0.3696  0.4885
   15SAPS  H18R 1938   3.788   1.629   7.824 -0.5595  1.4742 -0.0245
   15SAPS  H18S 1939   3.844   1.780   7.760 -0.2329 -0.1609 -0.7772
   15SAPS  C219 1940   3.982   1.686   7.894  0.0164 -0.3213  0.0868
   15SAPS  H19R 1941   3.973   1.780   7.952  0.8360  0.9671 -1.7777
   15SAPS  H19S 1942   4.077   1.696   7.838  1.0902  1.8316  2.1116
   15SAPS  C220 1943   4.008   1.571   7.987 -0.4377  0.1426 -0.7497
   15SAPS  H20R 1944   4.075   1.613   8.064  0.1223  0.3403 -1.3383
   15SAPS  H20S 1945   4.052   1.482   7.939  0.9223  0.8676 -0.8981
   15SAPS  H20T 1946   3.913   1.534   8.031  0.0446 -3.3149 -2.2859
   15SAPS   C33 1947   3.712   2.753   6.405 -0.3888 -0.3151 -0.4726
   15SAPS   H3X 1948   3.611   2.788   6.434 -1.4174 -2.3346 -1.4364
   15SAPS   H3Y 1949   3.762   2.847   6.372 -3.4336  1.9525  0.9195
   15SAPS   C34 1950   3.795   2.695   6.517 -0.6946  0.0562  0.5549
   15SAPS   H4X 1951   3.895   2.676   6.472 -0.7091  0.7814  0.1921
   15SAPS   H4Y 1952   3.749   2.597   6.540 -0.0777 -0.0474  1.3832
   15SAPS   C35 1953   3.822   2.776   6.642  0.5639  0.1427  0.0494
   15SAPS   H5X 1954   3.729   2.833   6.661  0.9913  1.7198 -2.2683
   15SAPS   H5Y 1955   3.905   2.847   6.622  0.2387  0.1939 -1.1469
   15SAPS   C36 1956   3.872   2.688   6.763 -0.2252 -0.9369 -0.7700
   15SAPS   H6X 1957   3.962   2.629   6.735  0.1852 -0.6570 -0.0886
   15SAPS   H6Y 1958   3.792   2.614   6.783 -1.3477  0.2189 -0.8611
   15SAPS   C37 1959   3.896   2.769   6.887  0.1364 -0.1441  0.1650
   15SAPS   H7X 1960   3.815   2.845   6.892  1.2981  1.2408 -1.1817
   15SAPS   H7Y 1961   3.994   2.820   6.883 -0.9048  1.9230 -2.1552
   15SAPS   C38 1962   3.900   2.686   7.020  0.1737  0.7924  1.1063
   15SAPS   H8X 1963   3.974   2.735   7.088  1.9871  3.1426 -2.3092
   15SAPS   H8Y 1964   3.923   2.579   7.000  1.2579  0.9980  1.1815
   15SAPS   C39 1965   3.765   2.699   7.096 -0.0559 -0.2935  0.5566
   15SAPS   H9X 1966   3.685   2.652   7.036 -1.4464  0.7146  1.5512
   15SAPS   H9Y 1967   3.744   2.808   7.102 -1.8248 -0.4205 -1.9097
   15SAPS  C310 1968   3.768   2.647   7.235 -0.6637 -0.0196  0.5152
   15SAPS  H10X 1969   3.851   2.704   7.282  1.5735 -0.4579 -2.5566
   15SAPS  H10Y 1970   3.783   2.537   7.241 -1.6705 -0.1480  0.8202
   15SAPS  C311 1971   3.640   2.670   7.311 -0.0329  0.4199 -0.5491
   15SAPS  H11X 1972   3.577   2.584   7.279  0.5242  0.0394 -0.6411
   15SAPS  H11Y 1973   3.600   2.761   7.261  0.4605  1.0252  0.1300
   15SAPS  C312 1974   3.664   2.678   7.461 -0.9377 -0.1960 -0.1106
   15SAPS  H12X 1975   3.710   2.774   7.491  0.2464 -0.3439 -1.3401
   15SAPS  H12Y 1976   3.739   2.598   7.483 -1.2284  0.0308  1.8817
   15SAPS  C313 1977   3.539   2.650   7.544  0.0305  0.2690 -0.1870
   15SAPS  H13X 1978   3.486   2.566   7.494  3.4855 -1.2890 -1.6218
   15SAPS  H13Y 1979   3.484   2.746   7.549  2.0141  1.4984 -0.7303
   15SAPS  C314 1980   3.576   2.616   7.691 -0.2727 -0.3067 -0.0440
   15SAPS  H14X 1981   3.646   2.694   7.727 -2.1144  1.4232 -0.0377
   15SAPS  H14Y 1982   3.630   2.519   7.695  0.4499  0.0387 -0.8593
   15SAPS  C315 1983   3.452   2.612   7.779  0.2237 -0.0154  0.2875
   15SAPS  H15X 1984   3.372   2.538   7.763  0.9953 -0.7451 -0.2632
   15SAPS  H15Y 1985   3.401   2.708   7.755  1.1740  0.3301 -0.4315
   15SAPS  C316 1986   3.488   2.598   7.924  0.4434  0.0667 -0.0218
   15SAPS  H16X 1987   3.537   2.688   7.967  3.7149  0.0957 -3.2468
   15SAPS  H16Y 1988   3.576   2.529   7.926  0.7553  0.3859 -1.3275
   15SAPS  C317 1989   3.373   2.548   8.015 -0.5468 -0.1693 -0.7314
   15SAPS  H17X 1990   3.386   2.437   8.007  0.1119 -0.0681 -1.1317
   15SAPS  H17Y 1991   3.278   2.583   7.969 -0.6569  1.2265  0.4835
   15SAPS  C318 1992   3.385   2.596   8.167  0.6638 -0.4842  0.4887
   15SAPS  H18X 1993   3.468   2.539   8.215  0.1469 -1.5465  0.1492
   15SAPS  H18Y 1994   3.291   2.569   8.219  0.4443 -0.6127  0.0291
   15SAPS  H18Z 1995   3.415   2.703   8.173 -1.2259  0.0171  2.3874
   16SAPS     N 1996   5.714   5.016   6.480  0.4898 -0.1203 -0.2055
   16SAPS   HN1 1997   5.638   4.955   6.515 -0.9443  1.7976  0.1710
   16SAPS   HN2 1998   5.710   5.001   6.377  0.1690  1.2714 -0.4181
   16SAPS   HN3 1999   5.807   4.996   6.522  0.7142 -1.7981 -1.4020
   16SAPS   C12 2000   5.684   5.158   6.496  0.2823  1.0105 -0.2159
   16SAPS  H12A 2001   5.700   5.183   6.600  2.3945  0.4323 -0.3615
   16SAPS   C13 2002   5.775   5.258   6.426 -0.9923 -0.3826 -0.3226
   16SAPS  O13A 2003   5.863   5.209   6.355  0.3442 -0.7779 -0.3274
   16SAPS  O13B 2004   5.768   5.384   6.443  0.0991 -0.2870  0.0395
   16SAPS   C11 2005   5.534   5.183   6.456  0.1151 -0.8572  0.4414
   16SAPS  H11A 2006   5.524   5.154   6.349  2.3629 -0.9320  0.1944
   16SAPS  H11B 2007   5.511   5.291   6.459 -1.7658 -1.1975 -0.2263
   16SAPS     P 2008   5.351   5.150   6.639 -0.1261 -0.0392  0.1256
   16SAPS   O13 2009   5.210   5.153   6.600 -0.4461 -0.1268 -0.7394
   16SAPS   O14 2010   5.386   5.053   6.749 -0.2202  0.3382 -0.2845
   16SAPS   O12 2011   5.439   5.098   6.520  0.4353  0.8420  0.0707
   16SAPS   O11 2012   5.406   5.301   6.663  0.1830  0.1826  0.6987
   16SAPS    C1 2013   5.447   5.345   6.791  0.3397  0.0788 -0.0795
   16SAPS    HA 2014   5.481   5.256   6.849 -1.1542 -0.2095  0.4061
   16SAPS    HB 2015   5.531   5.413   6.769 -1.1202  2.3190  0.9417
   16SAPS    C2 2016   5.331   5.415   6.868 -0.4779  0.3834  0.0380
   16SAPS    HS 2017   5.368   5.482   6.948 -2.0550  2.4447 -0.8620
   16SAPS   O21 2018   5.246   5.314   6.914 -0.7710  0.2508  0.4918
   16SAPS   C21 2019   5.298   5.240   7.016  0.0910 -0.0205 -0.1928
   16SAPS   O22 2020   5.404   5.261   7.076  0.7216  0.1857  0.2732
   16SAPS   C22 2021   5.196   5.128   7.057 -0.1210  0.0555  0.4396
   16SAPS   H2R 2022   5.095   5.147   7.015  0.6218 -2.3839 -2.9401
   16SAPS   H2S 2023   5.234   5.038   7.004  2.3068  0.6008  1.1219
   16SAPS    C3 2024   5.246   5.509   6.773 -0.5930 -0.7776 -0.2798
   16SAPS    HX 2025   5.206   5.438   6.697  0.5740 -2.0748  0.2672
   16SAPS    HY 2026   5.326   5.568   6.723  0.3700 -0.2421  1.7756
   16SAPS   O31 2027   5.144   5.579   6.849 -0.3568 -0.3728  0.1896
   16SAPS   C31 2028   5.194   5.685   6.916  0.3263 -0.8074 -1.0220
   16SAPS   O32 2029   5.307   5.731   6.904  0.5337  0.2847  0.0024
   16SAPS   C32 2030   5.080   5.730   7.017 -0.1794  0.9830 -0.2645
   16SAPS   H2X 2031   5.024   5.639   7.044  1.0796  0.5306  0.9606
   16SAPS   H2Y 2032   5.015   5.790   6.949 -1.4454 -0.3580 -0.2657
   16SAPS   C23 2033   5.197   5.078   7.204 -0.2975  1.0087 -0.5881
   16SAPS   H3R 2034   5.298   5.052   7.243 -0.3387  0.7828 -0.6292
   16SAPS   H3S 2035   5.145   4.980   7.216  0.4017  0.7774  0.7883
   16SAPS   C24 2036   5.131   5.169   7.303 -0.0304 -0.4994 -0.0937
   16SAPS   H4R 2037   5.115   5.126   7.405  2.4907  0.1569  0.6379
   16SAPS   H4S 2038   5.025   5.181   7.272  0.4485 -1.9334 -2.5635
   16SAPS   C25 2039   5.194   5.309   7.317 -0.0004 -0.0384  0.0112
   16SAPS   H5R 2040   5.180   5.374   7.229 -0.6102  0.4828  0.4869
   16SAPS   C26 2041   5.260   5.363   7.420  0.1620 -0.3608 -1.1078
   16SAPS   H6R 2042   5.295   5.467   7.411 -2.2509  0.4593 -1.8670
   16SAPS   C27 2043   5.284   5.290   7.546  0.1113  0.3984  0.4203
   16SAPS   H7R 2044   5.394   5.272   7.544  0.2756  1.2346 -1.7281
   16SAPS   H7S 2045   5.241   5.189   7.557 -1.9257  1.4491  3.0586
   16SAPS   C28 2046   5.255   5.381   7.664  0.3554 -0.6950 -0.1515
   16SAPS   H8R 2047   5.230   5.486   7.644 -0.9809 -0.9267  0.2128
   16SAPS   C29 2048   5.237   5.338   7.790 -0.4214  0.5781 -0.0758
   16SAPS   H9R 2049   5.214   5.421   7.858  0.3252  1.2107 -0.5705
   16SAPS  C210 2050   5.260   5.195   7.840 -0.2456  0.1679 -0.2075
   16SAPS  H10R 2051   5.358   5.158   7.803 -0.4532  2.3504 -3.3164
   16SAPS  H10S 2052   5.185   5.130   7.791 -0.7036  0.5161  0.0252
   16SAPS  C211 2053   5.260   5.184   7.984  1.1294  0.2561 -0.4620
   16SAPS  H11R 2054   5.160   5.176   8.028  0.3599 -0.2240 -2.2467
   16SAPS  C212 2055   5.358   5.194   8.073  0.8192  0.1673 -0.8812
   16SAPS  H12R 2056   5.332   5.174   8.178  0.1676  2.5106 -0.5403
   16SAPS  C213 2057   5.505   5.211   8.067 -0.0559 -0.4516 -0.2815
   16SAPS  H13R 2058   5.531   5.265   7.974  0.3443  0.3117  0.2670
   16SAPS  H13S 2059   5.559   5.114   8.054  1.1619  0.2538 -0.6774
   16SAPS  C214 2060   5.565   5.294   8.183  0.2600 -0.3650 -0.4877
   16SAPS  H14R 2061   5.541   5.401   8.186 -0.2981 -0.4744 -0.9459
   16SAPS  C215 2062   5.612   5.245   8.298  0.9661 -0.9450  0.2212
   16SAPS  H15R 2063   5.664   5.312   8.368  0.8362  0.3765 -0.9042
   16SAPS  C216 2064   5.615   5.103   8.342  0.2523  0.2007 -0.9413
   16SAPS  H16R 2065   5.721   5.071   8.349  1.0058  2.5836 -0.5885
   16SAPS  H16S 2066   5.573   5.040   8.261 -0.2381 -0.4318 -0.2129
   16SAPS  C217 2067   5.533   5.088   8.477  0.0845  0.2586 -0.0733
   16SAPS  H17R 2068   5.552   5.170   8.550  2.3670  1.5171 -1.9510
   16SAPS  H17S 2069   5.572   4.994   8.521  1.4822  0.9249  0.1486
   16SAPS  C218 2070   5.378   5.078   8.466 -1.0002  0.0766 -0.6606
   16SAPS  H18R 2071   5.361   5.008   8.551  1.8644  0.1676  0.1103
   16SAPS  H18S 2072   5.361   5.019   8.374 -0.6380 -0.2538 -0.5203
   16SAPS  C219 2073   5.298   5.207   8.476 -0.1485 -0.8104  0.0643
   16SAPS  H19R 2074   5.328   5.274   8.391 -0.0964  1.5254  1.8169
   16SAPS  H19S 2075   5.323   5.257   8.572  0.8524  0.4314 -0.7919
   16SAPS  C220 2076   5.146   5.181   8.482  1.0306 -0.1943 -0.0371
   16SAPS  H20R 2077   5.117   5.120   8.394 -1.3589  0.2137  0.3969
   16SAPS  H20S 2078   5.079   5.270   8.490  0.8898 -0.1421 -1.4422
   16SAPS  H20T 2079   5.118   5.116   8.567 -0.9352  0.2680 -0.2782
   16SAPS   C33 2080   5.136   5.809   7.139  0.5947 -0.1060  1.1151
   16SAPS   H3X 2081   5.045   5.864   7.173 -1.3566 -1.3505 -1.7045
   16SAPS   H3Y 2082   5.213   5.883   7.107  0.2120  0.8429  2.2768
   16SAPS   C34 2083   5.182   5.717   7.248 -0.2748  0.7082  0.7657
   16SAPS   H4X 2084   5.271   5.660   7.215  0.5851  2.4850 -0.1435
   16SAPS   H4Y 2085   5.098   5.644   7.255  0.2791  0.1091  1.3074
   16SAPS   C35 2086   5.209   5.796   7.381 -0.0435 -0.2765 -0.2700
   16SAPS   H5X 2087   5.127   5.871   7.383  1.0965  0.9993  0.3885
   16SAPS   H5Y 2088   5.305   5.853   7.377 -0.3967  0.2497 -1.8130
   16SAPS   C36 2089   5.188   5.718   7.508  0.1687 -0.4877 -0.1900
   16SAPS   H6X 2090   5.284   5.662   7.512 -0.1232 -1.0192 -0.5427
   16SAPS   H6Y 2091   5.110   5.639   7.508  1.6065 -1.9638  1.1766
   16SAPS   C37 2092   5.169   5.800   7.633  0.2168  0.3361 -0.3458
   16SAPS   H7X 2093   5.069   5.846   7.619 -0.4625 -1.4184 -1.5965
   16SAPS   H7Y 2094   5.239   5.885   7.646 -1.4846  1.5292  1.6696
   16SAPS   C38 2095   5.165   5.715   7.768  0.3004  0.2122 -0.0761
   16SAPS   H8X 2096   5.260   5.679   7.811  0.0872 -0.7565 -0.3979
   16SAPS   H8Y 2097   5.095   5.630   7.754  0.3271  0.4944 -2.2637
   16SAPS   C39 2098   5.098   5.800   7.881 -0.1633 -0.1370 -0.8348
   16SAPS   H9X 2099   5.015   5.849   7.826  0.5547  0.6101 -1.2728
   16SAPS   H9Y 2100   5.177   5.874   7.903 -0.7052  0.0716  0.4554
   16SAPS  C310 2101   5.064   5.716   8.008 -0.7074  0.4594 -1.2188
   16SAPS  H10X 2102   5.004   5.630   7.974  0.0873 -0.2821 -0.7846
   16SAPS  H10Y 2103   4.999   5.782   8.070  1.3190  0.4489  1.0422
   16SAPS  C311 2104   5.181   5.665   8.094 -0.1449  0.0697  0.4893
   16SAPS  H11X 2105   5.249   5.753   8.096  1.0450 -0.8078 -0.3071
   16SAPS  H11Y 2106   5.222   5.582   8.033 -1.1766  1.8846 -2.9444
   16SAPS  C312 2107   5.148   5.623   8.240 -0.3201 -0.2158  0.5276
   16SAPS  H12X 2108   5.090   5.529   8.240 -2.7327  1.2045  0.4589
   16SAPS  H12Y 2109   5.091   5.710   8.280 -1.8958 -1.3116  0.7564
   16SAPS  C313 2110   5.271   5.603   8.325  0.0912 -0.2826  0.2686
   16SAPS  H13X 2111   5.319   5.527   8.260 -0.0575 -1.5727  1.6126
   16SAPS  H13Y 2112   5.249   5.566   8.428  2.2443  0.7155  1.1595
   16SAPS  C314 2113   5.357   5.733   8.349  1.0439  0.9256 -0.1976
   16SAPS  H14X 2114   5.371   5.799   8.261  1.8434  1.7832  0.5523
   16SAPS  H14Y 2115   5.456   5.702   8.389  0.6362  0.2524  0.3166
   16SAPS  C315 2116   5.296   5.822   8.468 -0.0255  0.3777  0.4354
   16SAPS  H15X 2117   5.265   5.761   8.555  2.4548  1.9861  2.6169
   16SAPS  H15Y 2118   5.207   5.871   8.423  0.0210  0.1005  0.0352
   16SAPS  C316 2119   5.402   5.929   8.501  0.2004 -0.7215  0.3191
   16SAPS  H16X 2120   5.444   5.962   8.403  1.4876 -1.5659  0.5609
   16SAPS  H16Y 2121   5.480   5.874   8.557  0.6810 -0.7319 -0.3419
   16SAPS  C317 2122   5.346   6.042   8.589 -0.1871  0.2694 -0.4414
   16SAPS  H17X 2123   5.261   6.007   8.651  3.2115 -2.4526  3.1416
   16SAPS  H17Y 2124   5.300   6.111   8.514  0.0832  0.1572 -0.7157
   16SAPS  C318 2125   5.449   6.111   8.666  0.0541 -0.7179  0.1767
   16SAPS  H18X 2126   5.407   6.173   8.748  0.4665  0.6177 -0.5917
   16SAPS  H18Y 2127   5.523   6.176   8.614 -0.6714  1.7465  2.0012
   16SAPS  H18Z 2128   5.515   6.041   8.721 -0.3006 -0.5059  0.8840
   17SAPC     N 2129   2.838   3.518  10.523  0.0267 -0.0344  0.0394
   17SAPC   C12 2130   2.797   3.533  10.375  0.0376  0.1219  0.5637
   17SAPC  H12A 2131   2.873   3.480  10.319 -0.1420  0.1045  0.3371
   17SAPC  H12B 2132   2.804   3.637  10.346  1.2362 -0.5320 -1.7787
   17SAPC   C13 2133   2.896   3.381  10.552  0.2496 -0.5572 -0.6115
   17SAPC  H13A 2134   3.004   3.386  10.543  0.1550  1.0078 -1.0364
   17SAPC  H13B 2135   2.878   3.368  10.658  1.6912  0.7389 -0.1766
   17SAPC  H13C 2136   2.840   3.309  10.494 -1.2012 -0.7164  0.8886
   17SAPC   C14 2137   2.942   3.617  10.553 -0.1011 -0.0397  0.3124
   17SAPC  H14A 2138   3.029   3.601  10.491  1.6914 -1.5408  3.0138
   17SAPC  H14B 2139   2.898   3.716  10.553 -0.2635 -0.1115 -0.0767
   17SAPC  H14C 2140   2.986   3.610  10.652  0.2909  0.3132  0.1673
   17SAPC   C15 2141   2.716   3.545  10.608 -0.0982 -0.3331  0.3077
   17SAPC  H15A 2142   2.740   3.524  10.712 -2.4633 -1.9616  0.5952
   17SAPC  H15B 2143   2.668   3.640  10.592 -2.0837 -1.2738  0.4609
   17SAPC  H15C 2144   2.650   3.465  10.578 -0.3811  0.1488 -0.3612
   17SAPC   C11 2145   2.656   3.487  10.335 -0.0973 -0.0281  0.7219
   17SAPC  H11A 2146   2.642   3.488  10.224 -1.1175 -4.3834  0.6351
   17SAPC  H11B 2147   2.572   3.547  10.375 -1.4098 -1.8346  0.7810
   17SAPC     P 2148   2.657   3.224  10.292  0.2487  0.2477 -0.0998
   17SAPC   O13 2149   2.784   3.234  10.218  0.4820 -0.1796 -0.4025
   17SAPC   O14 2150   2.644   3.117  10.397  0.1528  0.0231  0.1804
   17SAPC   O12 2151   2.620   3.357  10.372 -0.0717  0.2900 -0.5919
   17SAPC   O11 2152   2.529   3.207  10.197 -0.4455  0.2273 -0.9016
   17SAPC    C1 2153   2.397   3.241  10.238  0.0393 -0.3480  0.3243
   17SAPC    HA 2154   2.356   3.163  10.306  0.4050 -2.7075 -1.9826
   17SAPC    HB 2155   2.391   3.341  10.286 -0.3752  0.7557 -1.9025
   17SAPC    C2 2156   2.303   3.250  10.115  0.0855 -0.2530 -0.2492
   17SAPC    HS 2157   2.215   3.306  10.151 -1.7072 -3.1910  0.2403
   17SAPC   O21 2158   2.267   3.120  10.076  0.3256  0.3022 -0.3591
   17SAPC   C21 2159   2.139   3.088  10.067  0.0519  0.2714 -0.1576
   17SAPC   O22 2160   2.041   3.162  10.068 -0.4792 -0.3494  0.5546
   17SAPC   C22 2161   2.111   2.936  10.044  0.5210 -0.2651  0.0838
   17SAPC   H2R 2162   2.209   2.883  10.042  0.5823 -0.2237  1.2744
   17SAPC   H2S 2163   2.060   2.911  10.140 -0.0487 -0.8789 -0.3730
   17SAPC    C3 2164   2.366   3.339  10.004  0.5783 -0.1674  0.2577
   17SAPC    HX 2165   2.465   3.295   9.978  1.4162  2.9957 -2.6594
   17SAPC    HY 2166   2.391   3.439  10.045  1.3651  0.4244 -1.5578
   17SAPC   O31 2167   2.294   3.346   9.879 -0.1934  0.3167  0.2729
   17SAPC   C31 2168   2.187   3.430   9.886  0.5425 -0.0134 -0.0381
   17SAPC   O32 2169   2.161   3.500   9.981  0.5374 -0.0868 -0.3964
   17SAPC   C32 2170   2.096   3.432   9.759 -0.1119 -0.5790 -0.0636
   17SAPC   H2X 2171   2.040   3.528   9.759 -1.4595 -1.3330 -0.6065
   17SAPC   H2Y 2172   2.022   3.351   9.776  0.8944 -1.6439 -0.6226
   17SAPC   C23 2173   2.028   2.903   9.924  0.6687  0.2710  0.6163
   17SAPC   H3R 2174   1.946   2.976   9.905 -0.8714 -0.4185  3.8966
   17SAPC   H3S 2175   1.968   2.817   9.960 -0.1048  0.9816  1.0821
   17SAPC   C24 2176   2.109   2.865   9.798  0.0596 -0.6114 -0.0499
   17SAPC   H4R 2177   2.040   2.798   9.743 -1.1047  1.2336 -0.9196
   17SAPC   H4S 2178   2.201   2.814   9.835 -0.0450 -1.5815 -1.0724
   17SAPC   C25 2179   2.141   2.983   9.716  0.8265 -0.6754  0.4150
   17SAPC   H5R 2180   2.207   3.065   9.751 -2.1351  3.5693 -2.8286
   17SAPC   C26 2181   2.094   3.009   9.584  0.0985 -0.0058  0.0256
   17SAPC   H6R 2182   2.132   3.095   9.528  1.0085 -0.1883  0.3268
   17SAPC   C27 2183   2.018   2.911   9.503  0.0523  0.4333 -0.0303
   17SAPC   H7R 2184   1.946   2.977   9.449  0.4632  1.2601  0.4145
   17SAPC   H7S 2185   1.967   2.839   9.570  1.0683  1.5224  1.9886
   17SAPC   C28 2186   2.111   2.838   9.417 -0.1784 -0.0992  0.3481
   17SAPC   H8R 2187   2.178   2.763   9.461  1.6187  0.2140 -1.7244
   17SAPC   C29 2188   2.139   2.866   9.281 -0.3255  0.4740  0.3979
   17SAPC   H9R 2189   2.208   2.804   9.221 -1.6196  0.1559 -0.8133
   17SAPC  C210 2190   2.066   2.971   9.204  0.0195 -0.8958  0.2715
   17SAPC  H10R 2191   2.145   3.022   9.146  0.4997 -1.7111  0.1914
   17SAPC  H10S 2192   2.034   3.050   9.275  1.8148 -0.0607  0.2035
   17SAPC  C211 2193   1.943   2.926   9.125  0.0548 -0.2121 -0.6396
   17SAPC  H11R 2194   1.846   2.943   9.175  0.5017  1.8065 -0.3680
   17SAPC  C212 2195   1.943   2.895   8.998 -0.4164 -0.2767 -0.3950
   17SAPC  H12R 2196   1.851   2.853   8.954 -1.8815  1.0013  1.2875
   17SAPC  C213 2197   2.061   2.880   8.909 -0.2395  0.2948 -0.9000
   17SAPC  H13R 2198   2.150   2.936   8.946 -1.0647 -0.1360  2.0137
   17SAPC  H13S 2199   2.031   2.942   8.822 -0.6424  2.1752  0.5096
   17SAPC  C214 2200   2.098   2.741   8.871  0.0890 -0.4306  0.1511
   17SAPC  H14R 2201   2.076   2.668   8.951  1.4121  0.5764  1.5130
   17SAPC  C215 2202   2.164   2.699   8.758  0.0906 -0.0966  0.0323
   17SAPC  H15R 2203   2.188   2.592   8.750 -1.7048 -0.4705 -0.8268
   17SAPC  C216 2204   2.221   2.792   8.651  0.1330  0.1563  0.0266
   17SAPC  H16R 2205   2.331   2.775   8.656  0.0973 -0.6364 -1.3820
   17SAPC  H16S 2206   2.197   2.899   8.667  0.6607  0.1093  1.2193
   17SAPC  C217 2207   2.185   2.761   8.506  0.3911 -0.0371  1.0374
   17SAPC  H17R 2208   2.229   2.838   8.439 -1.5051  0.5310  0.3943
   17SAPC  H17S 2209   2.078   2.767   8.479  0.7203  1.3810 -0.1121
   17SAPC  C218 2210   2.248   2.633   8.462  0.2985  0.0532  0.1636
   17SAPC  H18R 2211   2.209   2.552   8.527 -1.4224  0.2245 -0.5896
   17SAPC  H18S 2212   2.358   2.645   8.472  0.6666 -0.4143 -2.5532
   17SAPC  C219 2213   2.206   2.610   8.320 -0.3646  0.2961 -0.1135
   17SAPC  H19R 2214   2.095   2.597   8.313 -0.3387 -0.6348  0.9369
   17SAPC  H19S 2215   2.252   2.511   8.298  1.0813  0.7706  0.6684
   17SAPC  C220 2216   2.258   2.702   8.208  0.5583 -0.2996  0.0825
   17SAPC  H20R 2217   2.203   2.799   8.204  1.3613  0.2701  1.9863
   17SAPC  H20S 2218   2.246   2.645   8.113 -0.5119 -0.5114  0.3315
   17SAPC  H20T 2219   2.365   2.732   8.219  0.8292 -1.1699 -0.1028
   17SAPC   C33 2220   2.168   3.424   9.617  0.7047  0.4415  0.0731
   17SAPC   H3X 2221   2.088   3.417   9.540  3.2752  0.8966 -2.8392
   17SAPC   H3Y 2222   2.227   3.332   9.599 -0.3243  0.0435 -1.4888
   17SAPC   C34 2223   2.243   3.546   9.598  0.3626 -0.1218  0.0904
   17SAPC   H4X 2224   2.309   3.573   9.683 -0.1947  0.3511  0.3841
   17SAPC   H4Y 2225   2.175   3.625   9.560  0.2310 -0.6670 -0.8315
   17SAPC   C35 2226   2.337   3.523   9.476 -0.8144 -0.0145  0.0544
   17SAPC   H5X 2227   2.384   3.423   9.488 -0.8234  0.0090  0.3092
   17SAPC   H5Y 2228   2.407   3.609   9.480  0.1000 -0.6057 -2.0746
   17SAPC   C36 2229   2.264   3.529   9.347  0.1827  0.2782  0.0416
   17SAPC   H6X 2230   2.193   3.614   9.339 -0.0320  0.0580 -0.4040
   17SAPC   H6Y 2231   2.201   3.438   9.339  2.2814 -1.2168 -0.4478
   17SAPC   C37 2232   2.353   3.545   9.227  0.5293 -0.4534  1.1301
   17SAPC   H7X 2233   2.304   3.522   9.130 -0.0582  2.5827  0.6130
   17SAPC   H7Y 2234   2.438   3.474   9.240  1.0763  0.0425  0.3330
   17SAPC   C38 2235   2.415   3.685   9.197  0.3336  0.2212  0.2935
   17SAPC   H8X 2236   2.493   3.685   9.277  0.6437 -2.0901  0.0643
   17SAPC   H8Y 2237   2.348   3.769   9.226 -0.3873  0.0036 -0.6985
   17SAPC   C39 2238   2.470   3.704   9.058 -0.1720 -0.9211 -0.3176
   17SAPC   H9X 2239   2.386   3.694   8.987  0.8302  1.8344 -2.0791
   17SAPC   H9Y 2240   2.541   3.623   9.030 -1.4946 -2.2227 -0.0226
   17SAPC  C310 2241   2.540   3.835   9.032 -0.2400 -0.3175  0.2529
   17SAPC  H10X 2242   2.627   3.850   9.099 -0.7996 -1.2183  1.2061
   17SAPC  H10Y 2243   2.471   3.920   9.047 -1.2097 -1.0527  0.0672
   17SAPC  C311 2244   2.581   3.845   8.885  0.3493 -0.3812  0.2197
   17SAPC  H11X 2245   2.500   3.796   8.829  1.9394 -0.5007 -2.1286
   17SAPC  H11Y 2246   2.675   3.786   8.878 -0.3638 -1.4903 -0.2352
   17SAPC  C312 2247   2.584   3.997   8.842  0.0818  0.3502 -0.2226
   17SAPC  H12X 2248   2.614   4.053   8.934 -2.8497  2.5399 -0.4705
   17SAPC  H12Y 2249   2.483   4.038   8.822  0.4910  1.1260 -0.7147
   17SAPC  C313 2250   2.690   4.032   8.734  0.0777 -0.8047  0.0042
   17SAPC  H13X 2251   2.794   4.010   8.767  0.7889 -2.5004 -3.0545
   17SAPC  H13Y 2252   2.683   4.142   8.718  1.0777 -0.5616  1.0852
   17SAPC  C314 2253   2.676   3.962   8.596  0.3998  0.8664 -0.0282
   17SAPC  H14X 2254   2.700   3.855   8.618 -2.7239 -0.2828 -1.6143
   17SAPC  H14Y 2255   2.751   3.996   8.521  1.0362 -0.3552  0.0364
   17SAPC  C315 2256   2.540   3.971   8.537  0.3001 -0.0218 -1.0005
   17SAPC  H15X 2257   2.528   4.077   8.506  1.5498  0.1765 -0.8614
   17SAPC  H15Y 2258   2.465   3.945   8.615  2.3659 -2.3513  0.3581
   17SAPC  C316 2259   2.533   3.873   8.418  0.6667  1.2453  0.1312
   17SAPC  H16X 2260   2.434   3.825   8.431  0.7746  0.6787 -1.0269
   17SAPC  H16Y 2261   2.607   3.789   8.422 -1.9383 -1.2532 -0.6797
   17SAPC  C317 2262   2.522   3.928   8.282 -0.2503  0.2362 -0.1879
   17SAPC  H17X 2263   2.431   3.988   8.301  0.3549  0.3908  2.7472
   17SAPC  H17Y 2264   2.505   3.838   8.219  1.3018  1.2590 -2.1598
   17SAPC  C318 2265   2.640   4.016   8.233  0.1012 -0.2546 -0.6966
   17SAPC  H18X 2266   2.614   4.070   8.140 -0.0334  0.4214 -0.2787
   17SAPC  H18Y 2267   2.668   4.082   8.318 -0.1817  0.8860 -1.4732
   17SAPC  H18Z 2268   2.726   3.949   8.212  2.2834  1.9953  0.4407
   18SAPC     N 2269   2.451   2.209  10.820 -0.8522 -0.3471 -0.1708
   18SAPC   C12 2270   2.355   2.149  10.724  0.6352 -0.1782  0.2635
   18SAPC  H12A 2271   2.289   2.231  10.697  1.1615 -0.0479 -0.6500
   18SAPC  H12B 2272   2.285   2.084  10.774 -0.6213 -1.2658 -2.6480
   18SAPC   C13 2273   2.563   2.118  10.848  0.4633 -0.7239 -0.2125
   18SAPC  H13A 2274   2.592   2.075  10.753 -1.2122  0.6240 -1.4070
   18SAPC  H13B 2275   2.642   2.174  10.896 -2.2137  0.6458  2.9548
   18SAPC  H13C 2276   2.539   2.047  10.926 -3.5123  1.9227  1.2659
   18SAPC   C14 2277   2.515   2.322  10.747  0.1687 -0.2184 -0.2670
   18SAPC  H14A 2278   2.595   2.379  10.793 -2.6262  4.4072 -0.4722
   18SAPC  H14B 2279   2.566   2.300  10.654  0.6123  0.7522 -0.2759
   18SAPC  H14C 2280   2.434   2.388  10.718 -0.0165  0.3389  1.4416
   18SAPC   C15 2281   2.386   2.249  10.944 -0.1934  1.0763  0.5229
   18SAPC  H15A 2282   2.315   2.177  10.978  0.4122  0.6381  0.8769
   18SAPC  H15B 2283   2.459   2.264  11.022  1.0735  1.4305 -0.6678
   18SAPC  H15C 2284   2.334   2.343  10.928 -0.7666  0.3409 -2.5673
   18SAPC   C11 2285   2.404   2.073  10.597  0.2577  0.2983  0.1020
   18SAPC  H11A 2286   2.310   2.055  10.541  0.0069  2.0295 -0.1042
   18SAPC  H11B 2287   2.455   1.981  10.633  2.2772  0.7376 -1.3938
   18SAPC     P 2288   2.436   2.222  10.387 -0.5562  0.0497  0.2799
   18SAPC   O13 2289   2.354   2.328  10.436 -0.1792  0.0182 -0.5985
   18SAPC   O14 2290   2.560   2.257  10.307  0.3130  0.6224  0.3778
   18SAPC   O12 2291   2.497   2.140  10.511 -0.1583 -0.0830  0.0838
   18SAPC   O11 2292   2.355   2.103  10.312 -0.0169 -0.4962  0.0754
   18SAPC    C1 2293   2.414   2.004  10.239 -0.7246  0.0649  0.8453
   18SAPC    HA 2294   2.506   1.958  10.280 -0.4236 -0.5966 -0.5040
   18SAPC    HB 2295   2.339   1.921  10.239 -1.0387  0.3069 -0.7717
   18SAPC    C2 2296   2.433   2.043  10.090  0.0191  0.2344 -0.0891
   18SAPC    HS 2297   2.529   2.100  10.083 -1.4908  3.2821  1.8251
   18SAPC   O21 2298   2.322   2.135  10.057  0.0541  0.3370 -0.3283
   18SAPC   C21 2299   2.353   2.236   9.982 -0.7853 -0.5818 -0.3467
   18SAPC   O22 2300   2.466   2.270   9.950 -0.2510 -0.2704  0.2581
   18SAPC   C22 2301   2.237   2.318   9.956 -0.2082  0.2245 -0.0597
   18SAPC   H2R 2302   2.147   2.261   9.924 -1.2895  0.7464  1.8704
   18SAPC   H2S 2303   2.203   2.362  10.052 -1.2660 -0.0937 -0.2798
   18SAPC    C3 2304   2.430   1.921  10.002  0.1773  0.0014 -0.2749
   18SAPC    HX 2305   2.342   1.859  10.032 -0.9343  1.0737 -1.2122
   18SAPC    HY 2306   2.523   1.860  10.008  0.5396  0.4593 -1.1424
   18SAPC   O31 2307   2.415   1.967   9.867  0.3310  0.4269  0.4084
   18SAPC   C31 2308   2.532   2.004   9.801  0.6088 -0.6592 -0.0997
   18SAPC   O32 2309   2.643   2.008   9.844  0.9767  0.2012 -0.5777
   18SAPC   C32 2310   2.495   2.046   9.665  0.4399  0.4966 -0.0916
   18SAPC   H2X 2311   2.463   2.152   9.661 -1.0397  0.0839 -4.3335
   18SAPC   H2Y 2312   2.412   1.981   9.629  0.5399 -1.7573  3.3199
   18SAPC   C23 2313   2.268   2.440   9.860 -0.2352 -0.3630  0.2112
   18SAPC   H3R 2314   2.359   2.498   9.888 -0.1348 -2.6555  5.7853
   18SAPC   H3S 2315   2.185   2.513   9.874 -1.5200 -1.0709 -2.8471
   18SAPC   C24 2316   2.254   2.402   9.706 -0.3255  0.6873 -0.8082
   18SAPC   H4R 2317   2.148   2.373   9.686 -0.6881  0.4783  1.1944
   18SAPC   H4S 2318   2.307   2.306   9.689 -0.5969  0.5964 -1.1469
   18SAPC   C25 2319   2.288   2.512   9.608  0.4612 -0.1551  0.3589
   18SAPC   H5R 2320   2.274   2.615   9.645  1.0379 -0.7185  2.2693
   18SAPC   C26 2321   2.357   2.505   9.496  0.3119 -0.6041  0.3793
   18SAPC   H6R 2322   2.348   2.587   9.423  1.2381 -0.5988  0.2607
   18SAPC   C27 2323   2.395   2.372   9.434  0.4215 -0.1679  0.4239
   18SAPC   H7R 2324   2.418   2.293   9.509  0.2870 -1.7261 -1.1036
   18SAPC   H7S 2325   2.495   2.402   9.396  1.0298 -0.5925  1.6631
   18SAPC   C28 2326   2.298   2.312   9.333 -0.4828  0.5461  0.6588
   18SAPC   H8R 2327   2.199   2.283   9.372  0.4541 -0.3465  2.5211
   18SAPC   C29 2328   2.324   2.311   9.202  0.5371 -0.7638 -0.4126
   18SAPC   H9R 2329   2.253   2.251   9.142 -0.2827 -0.3363  0.1055
   18SAPC  C210 2330   2.448   2.361   9.136  0.0725  0.3158  0.1779
   18SAPC  H10R 2331   2.506   2.278   9.091  1.3728  0.3755  1.6460
   18SAPC  H10S 2332   2.520   2.392   9.215  1.3982 -1.8892 -0.0845
   18SAPC  C211 2333   2.439   2.477   9.042 -0.0036 -0.5747  0.0397
   18SAPC  H11R 2334   2.379   2.562   9.077 -0.8945 -1.2452  0.1740
   18SAPC  C212 2335   2.502   2.473   8.920 -0.0453  0.0250  0.6977
   18SAPC  H12R 2336   2.497   2.567   8.863 -1.5250  0.9864  2.3093
   18SAPC  C213 2337   2.590   2.362   8.858 -0.3153 -0.6436 -0.3715
   18SAPC  H13R 2338   2.632   2.314   8.949  1.2267  3.0581  1.0651
   18SAPC  H13S 2339   2.677   2.402   8.801  2.1676  0.5554  3.8377
   18SAPC  C214 2340   2.516   2.258   8.783  0.4312  0.4405  0.4720
   18SAPC  H14R 2341   2.469   2.182   8.847 -0.4855  0.8821  0.3342
   18SAPC  C215 2342   2.505   2.239   8.646 -0.0879 -0.3808 -0.3529
   18SAPC  H15R 2343   2.446   2.158   8.603  0.9226 -1.3431  0.0259
   18SAPC  C216 2344   2.568   2.324   8.539  0.7514  0.3880 -0.4104
   18SAPC  H16R 2345   2.572   2.426   8.582  1.3701  0.1153  0.2171
   18SAPC  H16S 2346   2.490   2.328   8.461 -1.6322 -1.1565  1.7384
   18SAPC  C217 2347   2.700   2.274   8.490 -0.8058  0.3793  0.1141
   18SAPC  H17R 2348   2.689   2.164   8.475  0.2380  0.4558 -1.3758
   18SAPC  H17S 2349   2.778   2.281   8.569 -2.1230 -0.6017  1.5726
   18SAPC  C218 2350   2.744   2.340   8.356  0.0520  0.3624  0.1291
   18SAPC  H18R 2351   2.762   2.449   8.369  1.5886  0.4720 -2.2833
   18SAPC  H18S 2352   2.656   2.334   8.288  0.3968  1.8507 -0.4841
   18SAPC  C219 2353   2.879   2.301   8.296 -0.0194 -0.4825  0.4396
   18SAPC  H19R 2354   2.949   2.324   8.380 -0.0075 -1.0943  0.6068
   18SAPC  H19S 2355   2.913   2.369   8.215  0.1672  0.4815  1.3091
   18SAPC  C220 2356   2.887   2.155   8.255 -0.3537  0.2414 -0.3787
   18SAPC  H20R 2357   2.834   2.154   8.158 -0.5668  3.4728 -0.3833
   18SAPC  H20S 2358   2.846   2.078   8.324  1.7457 -2.3196 -1.7589
   18SAPC  H20T 2359   2.995   2.135   8.236 -0.2591  1.6234 -1.4375
   18SAPC   C33 2360   2.616   2.015   9.573  0.4216 -0.4358 -0.0858
   18SAPC   H3X 2361   2.660   1.913   9.585  0.1289 -0.6751 -1.0188
   18SAPC   H3Y 2362   2.698   2.087   9.593  0.1715  0.9142 -3.3801
   18SAPC   C34 2363   2.583   2.018   9.423  0.2777  0.5139 -0.3911
   18SAPC   H4X 2364   2.553   2.121   9.393  3.2923  1.6442  0.1188
   18SAPC   H4Y 2365   2.501   1.949   9.393  1.4084 -0.4362 -1.3647
   18SAPC   C35 2366   2.705   2.002   9.336  0.0030 -0.3610 -0.1290
   18SAPC   H5X 2367   2.744   1.903   9.368 -0.5977 -0.2345  1.0572
   18SAPC   H5Y 2368   2.787   2.075   9.349  0.7224 -1.2757  0.5691
   18SAPC   C36 2369   2.666   1.994   9.188 -0.1896  0.3921 -0.3132
   18SAPC   H6X 2370   2.653   2.093   9.140  1.0074  0.0083 -1.5112
   18SAPC   H6Y 2371   2.574   1.933   9.172 -0.1766  0.6013 -1.2713
   18SAPC   C37 2372   2.781   1.928   9.108  0.1194 -0.1915  0.6987
   18SAPC   H7X 2373   2.790   1.828   9.156 -0.3834 -0.8501 -0.5244
   18SAPC   H7Y 2374   2.880   1.978   9.108  0.3166 -0.5613  1.6842
   18SAPC   C38 2375   2.737   1.880   8.959 -0.3653 -0.2807 -0.2184
   18SAPC   H8X 2376   2.632   1.843   8.966 -0.7677  0.5179 -1.6513
   18SAPC   H8Y 2377   2.807   1.803   8.921  0.7162  1.1855 -1.2941
   18SAPC   C39 2378   2.746   1.982   8.843 -0.7395 -0.3228 -0.3213
   18SAPC   H9X 2379   2.845   2.034   8.850 -1.3433  1.2072 -2.0911
   18SAPC   H9Y 2380   2.668   2.059   8.857 -2.0613 -1.7371  0.3319
   18SAPC  C310 2381   2.727   1.913   8.709 -0.0651 -0.2372 -0.1034
   18SAPC  H10X 2382   2.694   1.986   8.632 -1.1440  1.1581  1.6157
   18SAPC  H10Y 2383   2.641   1.843   8.721 -0.3069  0.0052 -0.3857
   18SAPC  C311 2384   2.843   1.839   8.648  0.0079  0.0031  0.5024
   18SAPC  H11X 2385   2.796   1.771   8.572 -0.1296 -0.4972  1.0297
   18SAPC  H11Y 2386   2.878   1.774   8.731  0.4324 -2.1349 -1.2402
   18SAPC  C312 2387   2.968   1.911   8.599  0.2982 -0.3234  0.1793
   18SAPC  H12X 2388   3.025   1.957   8.683 -1.1902  1.9171  0.0383
   18SAPC  H12Y 2389   2.941   1.990   8.525  0.9607 -2.0341 -1.9833
   18SAPC  C313 2390   3.067   1.819   8.526  0.1367  0.5502 -1.2776
   18SAPC  H13X 2391   3.109   1.746   8.599 -0.4228  0.2347 -1.2674
   18SAPC  H13Y 2392   3.146   1.885   8.484  0.7477  0.5508 -0.1750
   18SAPC  C314 2393   3.019   1.741   8.410 -0.2712  0.3793 -0.4258
   18SAPC  H14X 2394   2.955   1.802   8.344 -1.6478  0.7977  1.2144
   18SAPC  H14Y 2395   2.964   1.649   8.441 -1.3531  1.5505  1.3012
   18SAPC  C315 2396   3.132   1.668   8.325  0.8677 -0.3455 -0.2465
   18SAPC  H15X 2397   3.138   1.564   8.361 -2.9650 -0.6695 -0.1205
   18SAPC  H15Y 2398   3.226   1.727   8.336 -0.8539  2.7425 -0.6883
   18SAPC  C316 2399   3.078   1.661   8.180  0.0545  0.5598 -0.1667
   18SAPC  H16X 2400   3.161   1.618   8.119 -1.5590  1.4801 -3.2466
   18SAPC  H16Y 2401   3.066   1.768   8.155 -1.1490  1.0595  2.2564
   18SAPC  C317 2402   2.943   1.582   8.159 -0.7875 -0.0818  0.8167
   18SAPC  H17X 2403   2.862   1.621   8.224  0.1403  3.9663 -0.1406
   18SAPC  H17Y 2404   2.975   1.479   8.183  1.5717 -0.2424 -2.3272
   18SAPC  C318 2405   2.889   1.587   8.015 -0.1825 -0.3247 -0.1058
   18SAPC  H18X 2406   2.806   1.512   8.012 -1.0432  0.5490  1.1049
   18SAPC  H18Y 2407   2.981   1.561   7.959  0.6014  1.6261  0.2003
   18SAPC  H18Z 2408   2.859   1.689   7.983 -2.5935 -0.5603  1.1339
   19SAPC     N 2409   1.926   3.634  10.626  0.1947 -0.3155  0.0038
   19SAPC   C12 2410   2.051   3.602  10.714  0.3587 -0.1371  0.1489
   19SAPC  H12A 2411   2.117   3.534  10.663 -1.0288 -1.2919 -0.1621
   19SAPC  H12B 2412   2.012   3.540  10.793  0.5839  0.7089  0.9491
   19SAPC   C13 2413   1.821   3.708  10.701 -0.4325  0.1831  0.3573
   19SAPC  H13A 2414   1.799   3.667  10.799 -1.2021 -0.0338  0.1024
   19SAPC  H13B 2415   1.855   3.806  10.730  0.1203  0.2915 -0.6488
   19SAPC  H13C 2416   1.723   3.705  10.656 -0.8137  0.5387  1.1380
   19SAPC   C14 2417   1.981   3.720  10.517 -0.3822  0.1178  0.5339
   19SAPC  H14A 2418   2.029   3.807  10.559  0.6479 -0.2681  0.1669
   19SAPC  H14B 2419   2.052   3.666  10.457  0.4347  0.8488  0.8285
   19SAPC  H14C 2420   1.898   3.744  10.451  1.0312 -1.9459 -2.1698
   19SAPC   C15 2421   1.866   3.507  10.581 -0.0197  0.3051  0.7628
   19SAPC  H15A 2422   1.935   3.439  10.533  0.4948  1.5028 -0.2615
   19SAPC  H15B 2423   1.820   3.459  10.666  0.7033  0.2467  1.1270
   19SAPC  H15C 2424   1.785   3.532  10.514 -0.4077  2.3084  1.9050
   19SAPC   C11 2425   2.137   3.714  10.782 -0.2821  1.0031 -0.1815
   19SAPC  H11A 2426   2.194   3.669  10.866  1.7701  3.4472 -0.1611
   19SAPC  H11B 2427   2.070   3.787  10.832 -0.3879 -0.5756  2.1357
   19SAPC     P 2428   2.359   3.721  10.659  0.2311  0.1521  0.4637
   19SAPC   O13 2429   2.438   3.730  10.782 -0.5582 -0.6247  0.4935
   19SAPC   O14 2430   2.339   3.593  10.594 -0.4824  0.6736  1.0283
   19SAPC   O12 2431   2.221   3.781  10.693 -0.8946 -0.1669 -0.1695
   19SAPC   O11 2432   2.426   3.824  10.555  0.0462 -0.0665 -0.1189
   19SAPC    C1 2433   2.384   3.961  10.558  0.1880  0.6675  0.8532
   19SAPC    HA 2434   2.316   3.997  10.638  1.0997  2.3776  0.8963
   19SAPC    HB 2435   2.477   4.020  10.564 -0.3349  1.5256  0.7332
   19SAPC    C2 2436   2.320   3.996  10.420  0.9281 -0.5113  0.8308
   19SAPC    HS 2437   2.227   3.937  10.404  0.3713  0.6695 -0.5059
   19SAPC   O21 2438   2.421   3.960  10.322 -0.2276 -0.5829 -0.2494
   19SAPC   C21 2439   2.404   3.847  10.249  0.2471 -0.2988 -0.6292
   19SAPC   O22 2440   2.318   3.762  10.266  1.0121 -0.2125  0.0539
   19SAPC   C22 2441   2.519   3.833  10.148 -0.3963 -0.3719  0.1894
   19SAPC   H2R 2442   2.570   3.931  10.136  0.8311 -0.6179  2.6811
   19SAPC   H2S 2443   2.594   3.757  10.181  1.6040  0.9507 -1.0721
   19SAPC    C3 2444   2.294   4.151  10.404 -0.3569  0.0289  0.2840
   19SAPC    HX 2445   2.391   4.203  10.421 -1.2644  1.4256  1.5108
   19SAPC    HY 2446   2.235   4.179  10.494 -0.1262 -1.5588  0.9626
   19SAPC   O31 2447   2.232   4.192  10.279 -0.5860  0.6024 -0.5146
   19SAPC   C31 2448   2.300   4.253  10.184  0.1810 -0.4880 -0.1117
   19SAPC   O32 2449   2.418   4.289  10.188  0.2996  0.4511 -0.2692
   19SAPC   C32 2450   2.204   4.301  10.078 -0.0446 -0.3642  0.4485
   19SAPC   H2X 2451   2.167   4.405  10.094  1.0006  0.1737 -0.5003
   19SAPC   H2Y 2452   2.117   4.231  10.083  0.5620 -1.1339  0.3925
   19SAPC   C23 2453   2.473   3.792  10.007 -0.0958  0.2902  0.3567
   19SAPC   H3R 2454   2.400   3.870   9.976 -0.2983  0.1228  0.4114
   19SAPC   H3S 2455   2.412   3.700   9.992 -3.3356  2.4563 -1.0282
   19SAPC   C24 2456   2.594   3.804   9.902  0.4584  0.2899  0.4184
   19SAPC   H4R 2457   2.680   3.753   9.951  0.8067  1.3512  0.9343
   19SAPC   H4S 2458   2.617   3.911   9.885 -1.8052  0.7627  0.1069
   19SAPC   C25 2459   2.575   3.732   9.771 -0.6386 -0.2389  0.4371
   19SAPC   H5R 2460   2.609   3.627   9.775 -0.0598 -0.1280 -0.9338
   19SAPC   C26 2461   2.551   3.790   9.650 -0.2770 -0.8156  0.2981
   19SAPC   H6R 2462   2.554   3.736   9.554 -0.6271  0.7245 -0.6092
   19SAPC   C27 2463   2.541   3.940   9.624  0.1748  0.5172 -0.1301
   19SAPC   H7R 2464   2.490   3.968   9.719  0.5135 -2.3947  1.0199
   19SAPC   H7S 2465   2.466   3.971   9.549 -2.6862 -0.3369  2.1821
   19SAPC   C28 2466   2.666   4.023   9.628  0.1856  1.1982  0.0185
   19SAPC   H8R 2467   2.725   3.998   9.718 -0.9995 -0.4830  0.3835
   19SAPC   C29 2468   2.703   4.117   9.541  0.5830 -0.6664 -0.1808
   19SAPC   H9R 2469   2.791   4.180   9.558 -0.8570  1.1677  0.7360
   19SAPC  C210 2470   2.617   4.150   9.423 -0.1798  0.4043 -0.1818
   19SAPC  H10R 2471   2.628   4.258   9.400  2.1113  0.6421  1.6833
   19SAPC  H10S 2472   2.508   4.153   9.441 -0.3151 -0.3910 -0.8248
   19SAPC  C211 2473   2.642   4.079   9.289  0.2053  0.2973 -0.6082
   19SAPC  H11R 2474   2.596   3.979   9.283  0.9128  0.0116 -1.4520
   19SAPC  C212 2475   2.724   4.123   9.193 -0.3847  0.2279  0.2172
   19SAPC  H12R 2476   2.732   4.064   9.100 -1.0163 -0.1955  0.4262
   19SAPC  C213 2477   2.799   4.254   9.186 -0.4340 -0.2945  0.1087
   19SAPC  H13R 2478   2.887   4.247   9.118  0.3591 -2.5804  1.2869
   19SAPC  H13S 2479   2.848   4.261   9.285 -3.3913 -0.2967  1.6868
   19SAPC  C214 2480   2.711   4.364   9.146 -0.0407  0.7696 -0.2594
   19SAPC  H14R 2481   2.622   4.375   9.210 -1.4168 -1.1952 -1.7151
   19SAPC  C215 2482   2.718   4.454   9.050 -0.0132 -0.6955  0.2120
   19SAPC  H15R 2483   2.631   4.522   9.050 -1.2402 -2.2242  1.1436
   19SAPC  C216 2484   2.823   4.491   8.946  0.1077  0.2915 -0.7125
   19SAPC  H16R 2485   2.924   4.458   8.977  0.3933  1.4155 -0.4011
   19SAPC  H16S 2486   2.816   4.601   8.931  0.1492  0.4714  0.4924
   19SAPC  C217 2487   2.788   4.443   8.800  0.4900  0.6885  0.8406
   19SAPC  H17R 2488   2.793   4.332   8.799  1.5587  0.6175  3.8685
   19SAPC  H17S 2489   2.865   4.484   8.731  2.5321 -0.7574  2.1265
   19SAPC  C218 2490   2.649   4.482   8.748 -0.6393 -0.1355  0.2372
   19SAPC  H18R 2491   2.630   4.589   8.773 -1.3395 -0.8146  2.9378
   19SAPC  H18S 2492   2.576   4.415   8.798  0.3201 -1.5596 -0.2027
   19SAPC  C219 2493   2.626   4.452   8.598  0.1128  0.8153  0.0540
   19SAPC  H19R 2494   2.519   4.475   8.577  0.5798  1.1686 -2.2734
   19SAPC  H19S 2495   2.646   4.343   8.590  0.4104  0.9477 -1.2725
   19SAPC  C220 2496   2.712   4.533   8.502  0.1179  0.1381 -0.1909
   19SAPC  H20R 2497   2.759   4.628   8.533  0.1459  0.1640 -0.3085
   19SAPC  H20S 2498   2.657   4.551   8.406  1.0887 -1.7456 -1.1560
   19SAPC  H20T 2499   2.803   4.480   8.468 -1.2751 -1.5663 -1.5059
   19SAPC   C33 2500   2.278   4.334   9.938  0.2262 -0.0598 -0.5337
   19SAPC   H3X 2501   2.332   4.243   9.904 -1.1494 -1.4128  0.7385
   19SAPC   H3Y 2502   2.354   4.409   9.970  0.1568 -1.1821  2.6365
   19SAPC   C34 2503   2.185   4.370   9.822 -0.1791 -0.2300 -0.3038
   19SAPC   H4X 2504   2.114   4.453   9.843  1.5326  1.7888 -2.0278
   19SAPC   H4Y 2505   2.124   4.278   9.808  0.3953 -1.2189  2.9022
   19SAPC   C35 2506   2.267   4.413   9.692 -0.0234 -0.7844 -0.1847
   19SAPC   H5X 2507   2.335   4.332   9.660  0.0450 -0.9151  0.2898
   19SAPC   H5Y 2508   2.336   4.491   9.732 -2.4876  0.8284  1.2086
   19SAPC   C36 2509   2.184   4.483   9.588 -0.2609 -0.3908  0.0106
   19SAPC   H6X 2510   2.132   4.570   9.635 -2.4769 -1.0627 -1.0354
   19SAPC   H6Y 2511   2.109   4.415   9.543 -0.7125  0.5094 -0.6196
   19SAPC   C37 2512   2.277   4.526   9.464 -0.6266 -0.6675 -0.0257
   19SAPC   H7X 2513   2.318   4.426   9.440  2.7962  0.6265 -0.0303
   19SAPC   H7Y 2514   2.351   4.600   9.501  0.1004 -0.7429 -1.2769
   19SAPC   C38 2515   2.211   4.585   9.338  0.3905 -0.1687  0.2047
   19SAPC   H8X 2516   2.182   4.690   9.361  1.9697  0.8575 -2.0916
   19SAPC   H8Y 2517   2.125   4.518   9.316  0.9723 -0.7629 -0.2804
   19SAPC   C39 2518   2.287   4.579   9.206 -0.5915 -0.1885  0.8343
   19SAPC   H9X 2519   2.305   4.473   9.180  1.8113 -0.0108  1.5275
   19SAPC   H9Y 2520   2.391   4.614   9.220 -0.3356 -1.5832  2.8277
   19SAPC  C310 2521   2.203   4.643   9.095  0.4008  0.2670 -0.5362
   19SAPC  H10X 2522   2.171   4.744   9.127  0.3493  0.1459 -0.2080
   19SAPC  H10Y 2523   2.117   4.573   9.088  0.4586  0.2255 -0.8782
   19SAPC  C311 2524   2.289   4.647   8.969  0.2932  0.4224 -0.3859
   19SAPC  H11X 2525   2.327   4.544   8.955  1.7316  0.9073 -0.2868
   19SAPC  H11Y 2526   2.368   4.721   8.997 -0.3686  0.3471  1.8586
   19SAPC  C312 2527   2.208   4.694   8.846  0.1856  0.1605 -0.6750
   19SAPC  H12X 2528   2.173   4.795   8.876  0.0658 -0.3740  1.0520
   19SAPC  H12Y 2529   2.124   4.622   8.832  0.0015  0.5042 -1.4008
   19SAPC  C313 2530   2.293   4.702   8.715  0.4333 -0.9880  0.5763
   19SAPC  H13X 2531   2.329   4.604   8.678 -0.0124 -0.6817 -0.7255
   19SAPC  H13Y 2532   2.380   4.763   8.745 -0.5890  0.1568  1.2941
   19SAPC  C314 2533   2.203   4.761   8.605 -0.6386  0.1502  0.4559
   19SAPC  H14X 2534   2.143   4.843   8.650 -1.8012 -0.2821 -0.2542
   19SAPC  H14Y 2535   2.136   4.674   8.585  1.4811 -0.9540 -2.6183
   19SAPC  C315 2536   2.272   4.812   8.469  0.4605  1.0937 -0.3326
   19SAPC  H15X 2537   2.191   4.850   8.403 -0.9188 -0.2032  0.5617
   19SAPC  H15Y 2538   2.320   4.724   8.422 -0.5289 -0.1502  0.9075
   19SAPC  C316 2539   2.359   4.932   8.498  0.0390  1.2637 -0.0074
   19SAPC  H16X 2540   2.439   4.910   8.573  0.7300 -0.3305 -1.1465
   19SAPC  H16Y 2541   2.292   5.006   8.546 -2.5113  0.3269 -1.9129
   19SAPC  C317 2542   2.431   4.989   8.381 -0.0045 -0.6221  0.5844
   19SAPC  H17X 2543   2.360   5.005   8.297  4.9810  0.1602 -4.0502
   19SAPC  H17Y 2544   2.504   4.912   8.347  0.5234  0.1981 -0.1885
   19SAPC  C318 2545   2.511   5.119   8.411  0.1805 -0.1851 -0.9385
   19SAPC  H18X 2546   2.588   5.093   8.487 -0.7571  1.8171  0.8339
   19SAPC  H18Y 2547   2.449   5.200   8.454  0.6130 -1.0674  1.5373
   19SAPC  H18Z 2548   2.557   5.161   8.319  1.4809  0.5024 -0.0091
   20SAPC     N 2549   0.966   6.325  10.750  0.5439 -0.6009 -0.6428
   20SAPC   C12 2550   0.862   6.420  10.691 -0.1336  0.5308 -0.8300
   20SAPC  H12A 2551   0.775   6.363  10.663  0.8566 -1.0433 -0.8428
   20SAPC  H12B 2552   0.905   6.455  10.598 -0.9127 -0.2440 -1.4940
   20SAPC   C13 2553   0.908   6.264  10.874  0.5998 -0.4880  0.1006
   20SAPC  H13A 2554   0.808   6.235  10.844  0.8891  1.2082 -2.9073
   20SAPC  H13B 2555   0.951   6.169  10.903 -0.7599 -0.9893  0.5172
   20SAPC  H13C 2556   0.914   6.330  10.959  1.6326  1.4464 -1.3826
   20SAPC   C14 2557   0.997   6.215  10.656 -0.4227 -0.4357 -0.7597
   20SAPC  H14A 2558   1.029   6.240  10.556  0.6781 -0.8149 -0.5196
   20SAPC  H14B 2559   1.063   6.148  10.710 -1.6247  0.3394  1.8354
   20SAPC  H14C 2560   0.902   6.164  10.646 -0.3462 -0.7697  0.1172
   20SAPC   C15 2561   1.100   6.385  10.779  0.7960 -0.1374 -0.5059
   20SAPC  H15A 2562   1.080   6.463  10.850 -2.1973 -1.4375  0.2433
   20SAPC  H15B 2563   1.172   6.309  10.805 -0.7420 -1.4345  0.1625
   20SAPC  H15C 2564   1.136   6.433  10.689  2.8020  1.1256  0.8992
   20SAPC   C11 2565   0.804   6.527  10.783  0.1341 -0.1469  0.1294
   20SAPC  H11A 2566   0.756   6.484  10.873 -0.1290  2.0480  1.0956
   20SAPC  H11B 2567   0.717   6.576  10.736  0.0610  0.2514  0.6651
   20SAPC     P 2568   0.946   6.736  10.736 -0.0507  0.2217 -0.0748
   20SAPC   O13 2569   0.831   6.830  10.729  0.1467 -0.1247 -0.0130
   20SAPC   O14 2570   1.070   6.793  10.787  0.1214  0.1697  0.6683
   20SAPC   O12 2571   0.907   6.616  10.832  0.0812 -0.4606 -0.1285
   20SAPC   O11 2572   0.973   6.673  10.590  0.1619 -0.4222 -0.6056
   20SAPC    C1 2573   1.099   6.687  10.532 -0.3798 -0.4387 -0.4538
   20SAPC    HA 2574   1.190   6.670  10.593  0.0869 -0.1557 -1.0565
   20SAPC    HB 2575   1.104   6.608  10.454  0.2002 -2.3825  1.4532
   20SAPC    C2 2576   1.127   6.831  10.473 -0.1043 -0.7406  1.1076
   20SAPC    HS 2577   1.165   6.882  10.564 -1.4315 -0.6379  1.6284
   20SAPC   O21 2578   1.004   6.883  10.423  0.5560 -0.0805  0.2473
   20SAPC   C21 2579   0.984   7.016  10.429 -0.3165 -0.2318 -0.4943
   20SAPC   O22 2580   1.055   7.103  10.479 -0.8011 -0.2634 -0.0207
   20SAPC   C22 2581   0.860   7.042  10.342  0.3252  0.0420 -0.3812
   20SAPC   H2R 2582   0.809   6.946  10.320  2.2174 -0.7001 -1.8214
   20SAPC   H2S 2583   0.800   7.116  10.400  0.3349  1.1725 -1.7608
   20SAPC    C3 2584   1.236   6.828  10.360 -1.1040 -0.3283 -0.3344
   20SAPC    HX 2585   1.184   6.786  10.271 -2.4235  1.8170 -0.6234
   20SAPC    HY 2586   1.321   6.757  10.372 -1.5092 -0.6140  0.9361
   20SAPC   O31 2587   1.289   6.954  10.323  0.2349 -0.3560  0.1005
   20SAPC   C31 2588   1.382   7.002  10.412 -1.0097  0.2305 -0.6791
   20SAPC   O32 2589   1.424   6.933  10.505 -0.0553  0.7012 -0.3010
   20SAPC   C32 2590   1.427   7.137  10.378 -0.0061  0.1269  0.6656
   20SAPC   H2X 2591   1.537   7.131  10.362  0.6022  4.1678  2.1350
   20SAPC   H2Y 2592   1.425   7.202  10.468  0.7574  0.8134  0.1963
   20SAPC   C23 2593   0.895   7.123  10.217  0.1421  0.5941  0.2786
   20SAPC   H3R 2594   0.956   7.210  10.248  1.8964 -0.1529 -0.9069
   20SAPC   H3S 2595   0.801   7.158  10.170 -0.1070 -1.3337 -0.7791
   20SAPC   C24 2596   0.964   7.043  10.103  0.4671  0.0316 -1.0332
   20SAPC   H4R 2597   1.059   7.002  10.144  0.1512  0.7028  0.4023
   20SAPC   H4S 2598   0.998   7.110  10.021 -0.7244  1.7419 -0.1896
   20SAPC   C25 2599   0.878   6.946  10.034 -0.0082  0.1799  0.5391
   20SAPC   H5R 2600   0.883   6.847  10.080  1.5518 -0.9530 -1.8386
   20SAPC   C26 2601   0.809   6.968   9.920 -0.4380 -0.2788 -0.3118
   20SAPC   H6R 2602   0.762   6.881   9.872 -0.4633  0.0524 -0.8840
   20SAPC   C27 2603   0.793   7.094   9.844 -0.2924  0.2055  0.8128
   20SAPC   H7R 2604   0.789   7.185   9.908 -2.0252  0.5770  0.2342
   20SAPC   H7S 2605   0.688   7.100   9.808 -0.7654 -0.7985  1.9230
   20SAPC   C28 2606   0.908   7.123   9.747  0.3972  0.0695  0.1675
   20SAPC   H8R 2607   1.008   7.140   9.789 -0.0568 -0.0239  1.3121
   20SAPC   C29 2608   0.895   7.122   9.614  0.5791 -0.4091  0.2893
   20SAPC   H9R 2609   0.986   7.146   9.557  1.9445  0.7110  2.7602
   20SAPC  C210 2610   0.765   7.097   9.540  0.2907  0.2601 -0.5333
   20SAPC  H10R 2611   0.750   7.181   9.469 -0.0090 -0.8212 -1.7742
   20SAPC  H10S 2612   0.680   7.110   9.611  0.9232  0.4314  0.2015
   20SAPC  C211 2613   0.755   6.967   9.470 -0.0394  0.0371  0.1117
   20SAPC  H11R 2614   0.778   6.891   9.546  0.3619  1.7687  1.7887
   20SAPC  C212 2615   0.711   6.931   9.350  0.7717 -0.1886 -0.0954
   20SAPC  H12R 2616   0.690   6.825   9.328  3.4086 -0.6030 -0.9233
   20SAPC  C213 2617   0.641   7.030   9.249 -0.1753  0.6912 -0.6773
   20SAPC  H13R 2618   0.705   7.117   9.222  0.7426  0.3403  0.3269
   20SAPC  H13S 2619   0.555   7.070   9.307  0.2812  0.3869  0.2097
   20SAPC  C214 2620   0.589   6.947   9.139 -0.4361  0.2042 -0.0750
   20SAPC  H14R 2621   0.487   6.907   9.155 -2.2754  3.8628 -1.3941
   20SAPC  C215 2622   0.628   6.939   9.008  0.0756 -0.0631 -0.5840
   20SAPC  H15R 2623   0.559   6.877   8.948 -1.1560 -2.7599  3.2509
   20SAPC  C216 2624   0.747   6.994   8.939 -0.0862  0.0404 -0.1603
   20SAPC  H16R 2625   0.800   6.898   8.917 -3.5177 -2.2796  0.8103
   20SAPC  H16S 2626   0.800   7.071   8.999 -0.8663 -0.1408  0.7805
   20SAPC  C217 2627   0.708   7.079   8.810 -0.1065  0.4893 -0.5617
   20SAPC  H17R 2628   0.614   7.136   8.827  0.0518  0.0932  1.9678
   20SAPC  H17S 2629   0.668   6.999   8.743  1.0122  0.9326 -1.7975
   20SAPC  C218 2630   0.832   7.154   8.760 -0.6825 -0.4647  0.5796
   20SAPC  H18R 2631   0.877   7.216   8.840  0.7977  0.2844 -0.7699
   20SAPC  H18S 2632   0.793   7.228   8.686 -0.1938 -0.3044  0.4765
   20SAPC  C219 2633   0.939   7.076   8.693  0.3163  0.6818  0.5438
   20SAPC  H19R 2634   0.878   7.008   8.630  0.1057  0.4843  0.9550
   20SAPC  H19S 2635   0.988   7.012   8.770 -0.0810  0.0444  0.2776
   20SAPC  C220 2636   1.036   7.167   8.616 -0.3205  0.4177 -0.2099
   20SAPC  H20R 2637   1.105   7.221   8.685  0.1591  2.3303 -2.0746
   20SAPC  H20S 2638   0.975   7.241   8.560  0.2026 -0.1374 -1.5649
   20SAPC  H20T 2639   1.092   7.118   8.533 -1.0547 -0.4983 -0.1762
   20SAPC   C33 2640   1.351   7.195  10.256  0.4351 -0.1306  0.3478
   20SAPC   H3X 2641   1.243   7.176  10.268  0.3981  0.8958  2.0897
   20SAPC   H3Y 2642   1.386   7.136  10.169  0.0515 -0.9147  0.7167
   20SAPC   C34 2643   1.368   7.347  10.223  0.3929 -0.3541  0.0971
   20SAPC   H4X 2644   1.472   7.384  10.213 -0.1291  0.9881 -0.7550
   20SAPC   H4Y 2645   1.314   7.395  10.308 -3.1469 -0.0534 -2.1047
   20SAPC   C35 2646   1.285   7.397  10.104  0.2980  0.5297  0.3226
   20SAPC   H5X 2647   1.286   7.507  10.088  2.3385  0.5789  0.5407
   20SAPC   H5Y 2648   1.176   7.374  10.113  0.6838 -1.4164  0.4081
   20SAPC   C36 2649   1.312   7.316   9.974  1.0122 -0.1112  0.1859
   20SAPC   H6X 2650   1.288   7.209   9.990  3.9449 -0.6634  1.6632
   20SAPC   H6Y 2651   1.423   7.314   9.970  1.0520 -2.2465  1.1876
   20SAPC   C37 2652   1.251   7.374   9.846  0.0980  0.5197 -0.3035
   20SAPC   H7X 2653   1.249   7.485   9.853  0.1641  0.4219  3.1550
   20SAPC   H7Y 2654   1.146   7.338   9.841  0.7880 -1.4095 -2.5515
   20SAPC   C38 2655   1.317   7.326   9.718 -0.3225  0.2107  0.3578
   20SAPC   H8X 2656   1.308   7.216   9.702  1.4832  0.0977 -0.0813
   20SAPC   H8Y 2657   1.428   7.328   9.722 -0.2843 -1.7304  1.6388
   20SAPC   C39 2658   1.252   7.392   9.592  0.3728  0.6724 -0.0404
   20SAPC   H9X 2659   1.275   7.500   9.606 -1.0710  1.2627 -1.7325
   20SAPC   H9Y 2660   1.141   7.399   9.604  0.5047  0.3980  1.4453
   20SAPC  C310 2661   1.288   7.335   9.450 -0.1579 -0.2874 -0.1731
   20SAPC  H10X 2662   1.217   7.259   9.409  1.0627  0.3327 -3.8463
   20SAPC  H10Y 2663   1.387   7.285   9.457  0.5400  0.5015 -2.9182
   20SAPC  C311 2664   1.284   7.449   9.345 -0.1695  0.4083  0.0883
   20SAPC  H11X 2665   1.361   7.523   9.376  0.6723 -0.7167  0.7530
   20SAPC  H11Y 2666   1.181   7.489   9.352 -0.5444 -0.2377 -1.3501
   20SAPC  C312 2667   1.331   7.398   9.208 -0.3101  0.1890  0.4055
   20SAPC  H12X 2668   1.269   7.312   9.175 -0.9685  0.7343  0.2031
   20SAPC  H12Y 2669   1.434   7.362   9.229  0.2056  2.0392  1.3350
   20SAPC  C313 2670   1.328   7.500   9.101  0.0091 -0.1859 -0.8269
   20SAPC  H13X 2671   1.380   7.593   9.134  1.6936 -1.1178 -0.7345
   20SAPC  H13Y 2672   1.228   7.534   9.068  0.1517  1.9588  0.7252
   20SAPC  C314 2673   1.384   7.441   8.977 -0.1374  0.1751  0.4916
   20SAPC  H14X 2674   1.317   7.371   8.923 -3.1962  2.1442  1.4460
   20SAPC  H14Y 2675   1.477   7.387   9.001 -0.2314  0.0321  0.5325
   20SAPC  C315 2676   1.415   7.549   8.875  1.1511 -0.0545 -0.2528
   20SAPC  H15X 2677   1.512   7.604   8.884  1.2506  0.0532 -1.8013
   20SAPC  H15Y 2678   1.339   7.623   8.907  1.1025  0.2087 -0.9537
   20SAPC  C316 2679   1.393   7.512   8.731 -0.3923  0.2804 -0.3189
   20SAPC  H16X 2680   1.288   7.497   8.698 -0.5077 -1.3972  0.7039
   20SAPC  H16Y 2681   1.447   7.419   8.702 -1.0714 -0.4750  0.7796
   20SAPC  C317 2682   1.440   7.618   8.638 -0.2227  0.3304  1.0467
   20SAPC  H17X 2683   1.548   7.638   8.649 -0.2925  1.8494 -0.6499
   20SAPC  H17Y 2684   1.387   7.714   8.661  0.1574  0.2036  2.5829
   20SAPC  C318 2685   1.403   7.579   8.492  0.0530  0.2541  0.1343
   20SAPC  H18X 2686   1.316   7.511   8.497  0.2889  0.0031  1.0333
   20SAPC  H18Y 2687   1.482   7.524   8.437 -1.1228 -0.5783 -0.7643
   20SAPC  H18Z 2688   1.377   7.670   8.434 -1.1995 -0.6911 -0.8411
   21SAPC     N 2689   1.672   6.714  10.986 -0.5425 -0.0859 -0.4680
   21SAPC   C12 2690   1.742   6.806  10.884 -0.5560  0.4335 -0.1494
   21SAPC  H12A 2691   1.848   6.785  10.884 -1.0930 -2.9215  1.1634
   21SAPC  H12B 2692   1.730   6.909  10.914 -0.2800  1.1357 -2.2724
   21SAPC   C13 2693   1.527   6.717  10.962 -0.9489  0.2926 -0.3750
   21SAPC  H13A 2694   1.485   6.815  10.946 -0.9086 -0.0029 -2.5894
   21SAPC  H13B 2695   1.494   6.677  10.867 -2.4880  1.8213 -0.5388
   21SAPC  H13C 2696   1.470   6.674  11.043  0.5289 -1.3703 -0.1629
   21SAPC   C14 2697   1.720   6.570  10.964 -0.0606  0.3769  0.0058
   21SAPC  H14A 2698   1.825   6.565  10.991 -0.6041  1.0149  2.5005
   21SAPC  H14B 2699   1.677   6.489  11.022  0.8212 -0.7789 -0.8993
   21SAPC  H14C 2700   1.705   6.542  10.861 -0.8603 -1.6653  0.6197
   21SAPC   C15 2701   1.705   6.753  11.122 -0.1022 -0.4322 -0.5840
   21SAPC  H15A 2702   1.687   6.672  11.191 -1.1922  1.4006  1.4152
   21SAPC  H15B 2703   1.803   6.795  11.136 -1.4826  2.4246  1.7635
   21SAPC  H15C 2704   1.639   6.835  11.148  0.2647  0.3648 -2.0434
   21SAPC   C11 2705   1.703   6.787  10.730  0.0234 -0.2981  0.4489
   21SAPC  H11A 2706   1.736   6.871  10.666 -0.1600  0.6895  1.6190
   21SAPC  H11B 2707   1.593   6.803  10.732  0.2852  1.8089  2.4857
   21SAPC     P 2708   1.876   6.611  10.652  0.4070  0.1310  0.0692
   21SAPC   O13 2709   1.963   6.692  10.734  0.1557  0.4811  0.5191
   21SAPC   O14 2710   1.883   6.466  10.679 -0.0531  0.1053  0.0908
   21SAPC   O12 2711   1.726   6.656  10.679 -0.1174  0.3251 -0.0925
   21SAPC   O11 2712   1.900   6.636  10.498  0.6442  0.0859  0.3084
   21SAPC    C1 2713   1.813   6.573  10.405  0.1834  0.3118 -0.0061
   21SAPC    HA 2714   1.880   6.504  10.349  0.6780  0.2654  0.6222
   21SAPC    HB 2715   1.716   6.532  10.441  0.5540  0.7534  1.5862
   21SAPC    C2 2716   1.779   6.669  10.290  0.4421 -0.4118  0.0377
   21SAPC    HS 2717   1.714   6.612  10.220  1.3773 -0.5412 -0.7453
   21SAPC   O21 2718   1.906   6.698  10.227 -0.6101 -0.0369 -0.5337
   21SAPC   C21 2719   1.908   6.730  10.103 -0.0096  0.4060  0.1747
   21SAPC   O22 2720   1.808   6.733  10.028 -0.7088  0.3122 -0.3709
   21SAPC   C22 2721   2.053   6.772  10.067  0.1833  0.2491 -0.0215
   21SAPC   H2R 2722   2.085   6.847  10.143 -1.7056  2.1924 -1.0524
   21SAPC   H2S 2723   2.122   6.685  10.069 -2.0077 -1.5600  0.4177
   21SAPC    C3 2724   1.708   6.800  10.336  1.1430  0.0140  0.2512
   21SAPC    HX 2725   1.767   6.862  10.407  3.1619 -0.8922 -0.5492
   21SAPC    HY 2726   1.621   6.761  10.394  0.8096 -1.9344 -1.4339
   21SAPC   O31 2727   1.667   6.879  10.222 -0.6408  0.0832  0.3453
   21SAPC   C31 2728   1.557   6.838  10.155  0.2263 -0.3355  0.6316
   21SAPC   O32 2729   1.484   6.744  10.189 -0.0497 -0.4242 -0.2322
   21SAPC   C32 2730   1.530   6.929  10.040 -0.3129 -0.4317  0.1107
   21SAPC   H2X 2731   1.591   6.890   9.956 -0.6935  2.0988 -1.4348
   21SAPC   H2Y 2732   1.559   7.036  10.055 -1.2135 -0.2684  0.7431
   21SAPC   C23 2733   2.057   6.852   9.934 -0.8021  0.2384 -1.0476
   21SAPC   H3R 2734   1.986   6.937   9.943  1.0062  1.6637  1.0627
   21SAPC   H3S 2735   2.030   6.803   9.839 -0.6538 -0.3258 -0.8003
   21SAPC   C24 2736   2.196   6.920   9.908  0.1901  0.6826 -0.1613
   21SAPC   H4R 2737   2.192   6.953   9.802  5.2044  1.2155 -0.4235
   21SAPC   H4S 2738   2.271   6.838   9.908 -0.6129 -0.0687  0.2048
   21SAPC   C25 2739   2.243   7.030   9.991  0.8029 -0.6408 -0.2711
   21SAPC   H5R 2740   2.259   7.002  10.096  0.2618 -0.2363 -0.0721
   21SAPC   C26 2741   2.264   7.158   9.950  0.0519 -0.0467  0.1328
   21SAPC   H6R 2742   2.301   7.222  10.031  2.1892 -0.5205 -0.4058
   21SAPC   C27 2743   2.250   7.214   9.813  0.0835 -0.8418 -0.1227
   21SAPC   H7R 2744   2.171   7.160   9.756 -1.7984  2.7323 -1.2469
   21SAPC   H7S 2745   2.344   7.194   9.758 -0.5741 -0.7500 -1.3175
   21SAPC   C28 2746   2.224   7.364   9.793 -0.3042  0.4529 -0.4920
   21SAPC   H8R 2747   2.264   7.432   9.871 -0.8220  0.6025 -0.3532
   21SAPC   C29 2748   2.153   7.414   9.692  0.1777  0.2030  0.7180
   21SAPC   H9R 2749   2.135   7.522   9.691  0.7385  0.2914 -0.0921
   21SAPC  C210 2750   2.093   7.343   9.575  0.1779 -0.2877 -0.2810
   21SAPC  H10R 2751   2.037   7.425   9.526 -0.9191 -0.0743  1.2380
   21SAPC  H10S 2752   2.015   7.278   9.619  1.5469 -1.6705  0.2025
   21SAPC  C211 2753   2.165   7.263   9.477  0.1367 -0.5682  0.1470
   21SAPC  H11R 2754   2.222   7.188   9.534  0.2755 -0.7216 -0.1930
   21SAPC  C212 2755   2.185   7.272   9.344  0.6587  0.5398  0.5052
   21SAPC  H12R 2756   2.238   7.192   9.291  0.1515 -0.1502  1.0089
   21SAPC  C213 2757   2.119   7.378   9.253 -0.1009  0.6955 -0.4906
   21SAPC  H13R 2758   2.063   7.456   9.309  0.4470 -0.5256  1.8908
   21SAPC  H13S 2759   2.041   7.328   9.191  0.6103  0.8971 -1.5913
   21SAPC  C214 2760   2.229   7.434   9.163  0.0289  0.2616  0.4091
   21SAPC  H14R 2761   2.301   7.492   9.222  0.5033  0.0044  0.0929
   21SAPC  C215 2762   2.251   7.416   9.029 -0.7017 -0.3135 -0.2010
   21SAPC  H15R 2763   2.337   7.465   8.981 -0.4828 -1.3946 -0.9350
   21SAPC  C216 2764   2.164   7.334   8.944 -0.1124 -0.1389  0.3012
   21SAPC  H16R 2765   2.055   7.325   8.966 -0.6090  0.5578 -1.6314
   21SAPC  H16S 2766   2.211   7.234   8.935  0.8966  0.1894  1.5796
   21SAPC  C217 2767   2.159   7.397   8.804  0.0807 -0.0175  0.7432
   21SAPC  H17R 2768   2.116   7.317   8.740  1.4988  1.3746 -2.1240
   21SAPC  H17S 2769   2.260   7.419   8.764  0.8363 -1.3675  1.8255
   21SAPC  C218 2770   2.060   7.520   8.778  0.1055 -0.6967 -0.3604
   21SAPC  H18R 2771   2.097   7.612   8.827 -1.5827  0.1045 -0.5038
   21SAPC  H18S 2772   1.965   7.488   8.827  1.0870 -2.1294  0.6848
   21SAPC  C219 2773   2.029   7.549   8.637 -0.4068  0.3005 -0.4533
   21SAPC  H19R 2774   2.127   7.577   8.592  0.4904  0.8378  1.7331
   21SAPC  H19S 2775   1.966   7.639   8.620  0.4086  1.2965  1.4820
   21SAPC  C220 2776   1.979   7.435   8.557 -0.1022  1.2555  0.1853
   21SAPC  H20R 2777   1.916   7.459   8.469 -1.1027  0.4555  0.6648
   21SAPC  H20S 2778   1.914   7.367   8.616 -1.2244  1.8499 -0.3554
   21SAPC  H20T 2779   2.067   7.384   8.512 -0.0096  0.6660  1.0175
   21SAPC   C33 2780   1.377   6.925   9.991 -0.1284  0.8935 -0.4461
   21SAPC   H3X 2781   1.367   7.012   9.922  0.6934  1.3375 -0.0259
   21SAPC   H3Y 2782   1.315   6.952  10.079  0.4372  0.4296  0.1045
   21SAPC   C34 2783   1.323   6.798   9.922 -0.0339 -0.2567  0.0476
   21SAPC   H4X 2784   1.215   6.795   9.944  0.0018 -0.1118  0.2420
   21SAPC   H4Y 2785   1.365   6.710   9.976  2.3908  0.5751 -0.3665
   21SAPC   C35 2786   1.336   6.789   9.768  0.3617 -0.3218 -0.3751
   21SAPC   H5X 2787   1.318   6.683   9.741 -0.2766 -0.0564 -1.0184
   21SAPC   H5Y 2788   1.441   6.820   9.747  0.0590  0.6901 -0.4337
   21SAPC   C36 2789   1.240   6.879   9.692  0.1403  0.0080 -0.0631
   21SAPC   H6X 2790   1.267   6.985   9.712  0.9477 -0.0524 -0.7859
   21SAPC   H6Y 2791   1.132   6.871   9.719 -0.2340  2.9376 -0.2813
   21SAPC   C37 2792   1.265   6.849   9.545 -0.0561  0.3619  0.2309
   21SAPC   H7X 2793   1.239   6.744   9.521  0.3018  0.5668 -1.1627
   21SAPC   H7Y 2794   1.374   6.858   9.524  0.0554 -1.9055 -0.3258
   21SAPC   C38 2795   1.189   6.944   9.453  0.6151  0.1826 -0.1129
   21SAPC   H8X 2796   1.203   7.052   9.478 -1.1145  0.6426 -0.9352
   21SAPC   H8Y 2797   1.082   6.917   9.470  1.0002 -2.5881 -1.5228
   21SAPC   C39 2798   1.214   6.931   9.309 -0.3637 -0.1504 -0.6987
   21SAPC   H9X 2799   1.215   6.826   9.271 -1.1062  0.2828 -1.9659
   21SAPC   H9Y 2800   1.308   6.984   9.282 -1.7323  2.2307 -1.0497
   21SAPC  C310 2801   1.098   6.995   9.221  0.2607  0.7754  0.4036
   21SAPC  H10X 2802   1.061   7.090   9.265 -0.5160 -0.3946  2.3738
   21SAPC  H10Y 2803   1.016   6.923   9.237  0.6177 -0.1394 -1.5688
   21SAPC  C311 2804   1.132   7.008   9.068  1.0748  0.3963 -0.4543
   21SAPC  H11X 2805   1.062   7.081   9.023  0.0810  1.0458  1.9804
   21SAPC  H11Y 2806   1.106   6.913   9.017  2.2887 -0.1980  0.0076
   21SAPC  C312 2807   1.272   7.047   9.027  0.3471  0.2577 -0.3878
   21SAPC  H12X 2808   1.341   6.964   9.054 -0.5466  0.0400  1.3484
   21SAPC  H12Y 2809   1.308   7.130   9.092 -0.7069  0.1651  0.3360
   21SAPC  C313 2810   1.301   7.072   8.879  0.2251  0.1051  0.2776
   21SAPC  H13X 2811   1.245   7.165   8.856 -2.1045 -1.2765  0.0813
   21SAPC  H13Y 2812   1.255   6.997   8.811  0.4129 -0.3650  0.6569
   21SAPC  C314 2813   1.448   7.084   8.847 -0.4445  0.2685 -0.0309
   21SAPC  H14X 2814   1.497   6.987   8.866 -2.5572 -0.6896  0.8515
   21SAPC  H14Y 2815   1.469   7.166   8.919 -0.0056  0.5424 -0.4587
   21SAPC  C315 2816   1.472   7.134   8.703 -0.6219 -0.0661  0.1141
   21SAPC  H15X 2817   1.407   7.221   8.687  0.3532  0.3491 -1.8472
   21SAPC  H15Y 2818   1.444   7.053   8.632 -0.9026  0.1902 -0.0674
   21SAPC  C316 2819   1.615   7.184   8.692 -1.0325 -0.7560  0.2087
   21SAPC  H16X 2820   1.612   7.278   8.751  0.8718 -1.2973  1.2582
   21SAPC  H16Y 2821   1.641   7.197   8.585 -1.0994 -0.0728  0.2699
   21SAPC  C317 2822   1.727   7.077   8.736  0.1253 -0.0129 -0.1293
   21SAPC  H17X 2823   1.688   6.976   8.712 -0.3338  0.3509 -0.9770
   21SAPC  H17Y 2824   1.743   7.074   8.846 -0.4737 -0.3329 -0.0466
   21SAPC  C318 2825   1.873   7.087   8.671 -0.3280 -0.6598 -0.0302
   21SAPC  H18X 2826   1.929   6.994   8.692  2.0051  0.1126 -2.3003
   21SAPC  H18Y 2827   1.927   7.176   8.710 -0.4625 -0.2377 -0.7708
   21SAPC  H18Z 2828   1.861   7.096   8.560 -3.8004 -0.3458  0.2421
   22SAPC     N 2829   1.762   2.660  10.610  0.2304  0.4538  0.0159
   22SAPC   C12 2830   1.878   2.578  10.555  0.0746  0.3680 -0.9215
   22SAPC  H12A 2831   1.971   2.622  10.585 -0.7492 -0.1241  2.8658
   22SAPC  H12B 2832   1.869   2.577  10.448  0.0264 -2.2550 -0.9639
   22SAPC   C13 2833   1.773   2.807  10.560 -0.0523  1.0287  0.5460
   22SAPC  H13A 2834   1.858   2.861  10.600  1.2243 -0.2918 -0.2847
   22SAPC  H13B 2835   1.792   2.817  10.454  0.3613  1.4833  0.6568
   22SAPC  H13C 2836   1.677   2.856  10.568  0.0254  1.5205 -1.1040
   22SAPC   C14 2837   1.631   2.603  10.557  0.4358 -0.9217  0.4400
   22SAPC  H14A 2838   1.550   2.674  10.561  0.4269 -0.7826 -1.3657
   22SAPC  H14B 2839   1.643   2.573  10.454 -0.3074  0.0919  0.0376
   22SAPC  H14C 2840   1.599   2.523  10.622  1.4323 -1.2407  0.5640
   22SAPC   C15 2841   1.757   2.666  10.759  0.3493 -0.4749 -0.2966
   22SAPC  H15A 2842   1.825   2.740  10.801 -2.2328  1.2837  1.0915
   22SAPC  H15B 2843   1.664   2.709  10.794  0.9331 -0.5470  1.4659
   22SAPC  H15C 2844   1.783   2.571  10.802  1.0872 -0.3813 -0.5126
   22SAPC   C11 2845   1.880   2.430  10.601  0.3349 -0.2332  0.2019
   22SAPC  H11A 2846   1.890   2.426  10.712 -2.1437  0.4309  0.5269
   22SAPC  H11B 2847   1.970   2.395  10.546  1.4003  2.5363  0.0264
   22SAPC     P 2848   1.700   2.234  10.617 -0.2726  0.1835  0.4578
   22SAPC   O13 2849   1.784   2.157  10.716  0.9901  0.1464  0.5492
   22SAPC   O14 2850   1.575   2.288  10.686 -0.8018 -0.1481 -0.3049
   22SAPC   O12 2851   1.775   2.351  10.542 -0.2387 -1.0494 -0.1167
   22SAPC   O11 2852   1.646   2.140  10.507 -0.9183 -0.2370  0.1802
   22SAPC    C1 2853   1.728   2.085  10.399  0.5822  0.1095  0.2015
   22SAPC    HA 2854   1.837   2.102  10.410  0.5544  0.5506 -0.1866
   22SAPC    HB 2855   1.706   1.977  10.383 -2.7542  1.0098 -2.3953
   22SAPC    C2 2856   1.677   2.146  10.260  0.3441 -0.1489 -0.1011
   22SAPC    HS 2857   1.579   2.195  10.277 -0.2438 -0.7513 -1.5862
   22SAPC   O21 2858   1.680   2.041  10.154  0.1851  0.8367 -0.5776
   22SAPC   C21 2859   1.567   2.028  10.083  1.0038 -0.4564  0.3187
   22SAPC   O22 2860   1.459   2.082  10.104  0.5628  0.1441 -0.4382
   22SAPC   C22 2861   1.611   1.938   9.965  0.0074 -0.5432 -0.3919
   22SAPC   H2R 2862   1.686   1.872  10.013 -0.3142  1.3235  3.0155
   22SAPC   H2S 2863   1.536   1.866   9.925  1.2026 -2.7443  1.1117
   22SAPC    C3 2864   1.765   2.266  10.210  0.3024  0.2908 -0.2157
   22SAPC    HX 2865   1.869   2.227  10.205  0.0858 -0.1687 -1.4504
   22SAPC    HY 2866   1.758   2.357  10.274  0.9415  0.7606 -0.7904
   22SAPC   O31 2867   1.726   2.307  10.073 -0.3170 -0.0466  0.4610
   22SAPC   C31 2868   1.823   2.364  10.003 -0.6648  0.4699  0.2521
   22SAPC   O32 2869   1.945   2.353  10.023 -0.0997 -0.1841  0.3451
   22SAPC   C32 2870   1.768   2.420   9.865 -1.5847 -0.5098 -0.5264
   22SAPC   H2X 2871   1.686   2.490   9.890 -1.5595  0.5156 -3.0925
   22SAPC   H2Y 2872   1.730   2.337   9.801 -1.8227  0.1441 -1.2384
   22SAPC   C23 2873   1.666   2.022   9.847  0.5079  0.6372  0.5418
   22SAPC   H3R 2874   1.758   1.975   9.806  1.9877  2.9072  1.0421
   22SAPC   H3S 2875   1.699   2.117   9.894 -1.4418  1.5110  0.2617
   22SAPC   C24 2876   1.567   2.034   9.732  0.0445  0.1370 -0.6921
   22SAPC   H4R 2877   1.474   2.079   9.772  0.7970 -0.0195  1.3538
   22SAPC   H4S 2878   1.542   1.929   9.707  1.2130 -0.2343 -0.3836
   22SAPC   C25 2879   1.633   2.094   9.613 -0.2009 -0.0588  0.4764
   22SAPC   H5R 2880   1.707   2.028   9.566 -1.7993 -1.1012 -0.6850
   22SAPC   C26 2881   1.600   2.209   9.554  0.3353  0.4415 -0.1128
   22SAPC   H6R 2882   1.625   2.212   9.447 -2.0115 -0.0879 -0.7432
   22SAPC   C27 2883   1.504   2.311   9.610  0.3042 -0.4873 -0.1892
   22SAPC   H7R 2884   1.543   2.413   9.589 -1.8392  1.0924  2.7575
   22SAPC   H7S 2885   1.493   2.301   9.720  2.7362  0.0326  0.1659
   22SAPC   C28 2886   1.373   2.285   9.533 -0.6089 -0.4358 -0.2002
   22SAPC   H8R 2887   1.302   2.223   9.589 -1.3765  0.2242 -0.4251
   22SAPC   C29 2888   1.335   2.318   9.407  0.3637 -0.5218 -0.6290
   22SAPC   H9R 2889   1.237   2.281   9.373 -0.1599  1.3726 -1.3007
   22SAPC  C210 2890   1.413   2.403   9.312 -0.7128  0.3049  0.1994
   22SAPC  H10R 2891   1.462   2.331   9.243  0.4520 -0.1029  1.4098
   22SAPC  H10S 2892   1.487   2.464   9.369  0.2759  1.9254 -2.6234
   22SAPC  C211 2893   1.316   2.491   9.244  0.2870  0.2707  0.4386
   22SAPC  H11R 2894   1.240   2.533   9.312  0.4786 -0.2991  1.0068
   22SAPC  C212 2895   1.312   2.511   9.111  0.9037 -0.3574 -0.0851
   22SAPC  H12R 2896   1.234   2.579   9.073  1.6940  0.6518  0.0606
   22SAPC  C213 2897   1.400   2.460   9.005 -0.0797  0.5156 -0.6416
   22SAPC  H13R 2898   1.506   2.478   9.033 -0.7784  2.7472  0.8685
   22SAPC  H13S 2899   1.376   2.529   8.921 -2.8949 -0.0146 -0.3897
   22SAPC  C214 2900   1.371   2.315   8.970 -0.2329 -0.1983 -0.5170
   22SAPC  H14R 2901   1.338   2.252   9.055  0.0758 -0.6656 -0.7417
   22SAPC  C215 2902   1.395   2.260   8.845  0.0872  0.1053  0.2715
   22SAPC  H15R 2903   1.376   2.154   8.820  1.5953 -0.1428  0.1277
   22SAPC  C216 2904   1.450   2.327   8.720 -0.3867 -0.5421  0.5836
   22SAPC  H16R 2905   1.545   2.282   8.685  1.2310  1.7616  1.7769
   22SAPC  H16S 2906   1.486   2.427   8.750  2.1455 -0.7767 -1.3769
   22SAPC  C217 2907   1.340   2.336   8.611 -0.4163  0.5008  0.2778
   22SAPC  H17R 2908   1.267   2.412   8.645 -0.1749 -0.2780  2.7367
   22SAPC  H17S 2909   1.286   2.240   8.595  2.7601 -1.7589  2.0807
   22SAPC  C218 2910   1.407   2.379   8.479  0.1651  0.4891 -0.6577
   22SAPC  H18R 2911   1.330   2.379   8.399  1.3955 -0.6353 -1.8981
   22SAPC  H18S 2912   1.470   2.295   8.442 -2.2763 -1.6004 -0.3705
   22SAPC  C219 2913   1.491   2.511   8.478  0.3965 -0.0287  0.0936
   22SAPC  H19R 2914   1.546   2.518   8.383 -1.0946  0.7622 -0.7537
   22SAPC  H19S 2915   1.569   2.506   8.557  1.4682  0.4592 -0.9096
   22SAPC  C220 2916   1.413   2.648   8.493 -0.4656  0.2135  0.3896
   22SAPC  H20R 2917   1.356   2.645   8.588 -1.9414  2.9271 -0.2927
   22SAPC  H20S 2918   1.351   2.657   8.400 -0.1204  0.3325  0.1689
   22SAPC  H20T 2919   1.484   2.732   8.506 -0.8132  0.3533  1.5061
   22SAPC   C33 2920   1.876   2.503   9.785  0.0109 -0.4394 -0.3446
   22SAPC   H3X 2921   1.967   2.440   9.770  0.5542  0.4238 -0.7800
   22SAPC   H3Y 2922   1.913   2.589   9.846  0.8835  1.3307 -3.1592
   22SAPC   C34 2923   1.834   2.567   9.650 -0.1715 -0.0978 -0.4313
   22SAPC   H4X 2924   1.890   2.662   9.636  1.2300 -0.9626 -0.9291
   22SAPC   H4Y 2925   1.724   2.579   9.636 -0.2367  1.3387  1.0188
   22SAPC   C35 2926   1.875   2.469   9.544 -0.3823  0.0000 -0.0033
   22SAPC   H5X 2927   1.813   2.378   9.544  0.6147 -0.6986 -0.1630
   22SAPC   H5Y 2928   1.983   2.445   9.556 -0.6247 -1.6017 -0.8178
   22SAPC   C36 2929   1.845   2.533   9.410  0.5020 -0.4834  0.3746
   22SAPC   H6X 2930   1.897   2.631   9.409  0.4379 -0.4357  1.1616
   22SAPC   H6Y 2931   1.736   2.553   9.399  0.4160 -0.8066  0.6270
   22SAPC   C37 2932   1.888   2.442   9.291  0.5883 -0.2073 -0.2749
   22SAPC   H7X 2933   1.860   2.339   9.322 -1.1015  0.3818  0.2613
   22SAPC   H7Y 2934   1.998   2.435   9.281  0.7822 -0.0375  1.4252
   22SAPC   C38 2935   1.830   2.477   9.151 -0.5164 -0.7215 -0.5677
   22SAPC   H8X 2936   1.849   2.582   9.122 -3.0051 -0.3415 -1.0952
   22SAPC   H8Y 2937   1.720   2.460   9.162 -0.5962  0.7196  1.4082
   22SAPC   C39 2938   1.898   2.389   9.040 -0.6165  0.6322 -0.2197
   22SAPC   H9X 2939   1.900   2.279   9.054 -1.0174  0.8556  1.9578
   22SAPC   H9Y 2940   2.003   2.425   9.041 -0.6431  0.9060 -2.1986
   22SAPC  C310 2941   1.842   2.436   8.899  0.4972 -0.0831  0.0739
   22SAPC  H10X 2942   1.852   2.547   8.896  0.8320 -0.0708  1.1553
   22SAPC  H10Y 2943   1.741   2.390   8.893  0.6064 -0.1557 -2.4719
   22SAPC  C311 2944   1.919   2.368   8.777  0.5555  0.3828 -0.0479
   22SAPC  H11X 2945   1.911   2.259   8.799 -0.7336  0.6246  0.8033
   22SAPC  H11Y 2946   2.026   2.397   8.784  0.4260  0.7741  0.2981
   22SAPC  C312 2947   1.848   2.400   8.644 -0.8481  0.4311  0.4519
   22SAPC  H12X 2948   1.866   2.507   8.620  0.9901 -0.1446 -0.9428
   22SAPC  H12Y 2949   1.740   2.380   8.663 -0.9892 -1.3888 -1.7593
   22SAPC  C313 2950   1.894   2.324   8.523  0.2039 -0.4811  0.6384
   22SAPC  H13X 2951   1.895   2.218   8.556 -3.4080 -0.9388 -0.3304
   22SAPC  H13Y 2952   2.003   2.332   8.504  0.8090 -1.9578  3.0763
   22SAPC  C314 2953   1.794   2.337   8.406 -0.5425  0.8989  0.3005
   22SAPC  H14X 2954   1.763   2.442   8.387 -0.2080  0.6872 -1.6019
   22SAPC  H14Y 2955   1.705   2.271   8.423  0.9611 -1.1756  0.4949
   22SAPC  C315 2956   1.859   2.295   8.273 -0.2126 -0.8972  0.0516
   22SAPC  H15X 2957   1.881   2.186   8.280 -0.1565 -0.9960 -1.4205
   22SAPC  H15Y 2958   1.945   2.363   8.255  0.1130 -1.9371 -2.8886
   22SAPC  C316 2959   1.773   2.319   8.145  0.0137 -0.5005  0.4556
   22SAPC  H16X 2960   1.720   2.416   8.152  1.5493  0.5279 -1.2574
   22SAPC  H16Y 2961   1.698   2.237   8.139  0.3399 -0.7400 -0.7628
   22SAPC  C317 2962   1.865   2.311   8.019 -0.2166 -0.2386 -0.0938
   22SAPC  H17X 2963   1.921   2.216   8.039 -1.8104 -0.8326  1.9158
   22SAPC  H17Y 2964   1.929   2.401   8.010 -1.3454  0.5949  0.1191
   22SAPC  C318 2965   1.786   2.291   7.892  0.2633 -0.3054  0.4621
   22SAPC  H18X 2966   1.857   2.275   7.808 -0.3445  2.8538 -0.7913
   22SAPC  H18Y 2967   1.727   2.382   7.870  1.0410  0.1410  0.1923
   22SAPC  H18Z 2968   1.723   2.200   7.901  1.4543 -1.2379 -0.3850
   23SAPC     N 2969   1.537   5.390  10.990  0.2917 -0.5762  0.7210
   23SAPC   C12 2970   1.612   5.326  10.866 -0.0027  0.3273  0.1309
   23SAPC  H12A 2971   1.712   5.306  10.902  0.8206  1.6381 -1.3239
   23SAPC  H12B 2972   1.631   5.401  10.791  3.6600  0.1995  0.7471
   23SAPC   C13 2973   1.492   5.280  11.088 -0.1447 -0.0830  0.2205
   23SAPC  H13A 2974   1.440   5.330  11.169 -0.1663 -2.2780  1.6595
   23SAPC  H13B 2975   1.415   5.217  11.046 -1.5442  1.5359  0.2415
   23SAPC  H13C 2976   1.572   5.234  11.144  0.6035  3.4761  2.4396
   23SAPC   C14 2977   1.618   5.492  11.058 -0.6051  0.4601 -0.3529
   23SAPC  H14A 2978   1.642   5.575  10.994 -1.1976  0.3074 -0.7819
   23SAPC  H14B 2979   1.562   5.541  11.137 -1.5477 -1.3926  0.1938
   23SAPC  H14C 2980   1.706   5.451  11.105 -1.3700 -1.3856 -0.4212
   23SAPC   C15 2981   1.409   5.449  10.949  0.3945  0.1640 -0.5670
   23SAPC  H15A 2982   1.349   5.379  10.894 -0.6386  1.4898 -1.1764
   23SAPC  H15B 2983   1.351   5.475  11.037  2.1104 -3.0996  1.7794
   23SAPC  H15C 2984   1.432   5.531  10.883  0.1316 -0.5972 -1.6303
   23SAPC   C11 2985   1.556   5.202  10.806  0.3773  0.2559 -0.2363
   23SAPC  H11A 2986   1.533   5.136  10.894 -1.6533 -0.2473 -1.0728
   23SAPC  H11B 2987   1.626   5.159  10.732  1.7806  1.1541  0.5398
   23SAPC     P 2988   1.324   5.122  10.715  0.0374  0.5958  0.2780
   23SAPC   O13 2989   1.288   5.048  10.841  0.2212 -0.3981 -0.1690
   23SAPC   O14 2990   1.212   5.197  10.657 -0.0759  0.4332 -0.3347
   23SAPC   O12 2991   1.433   5.228  10.744 -0.5152 -0.2493  0.4223
   23SAPC   O11 2992   1.381   5.032  10.599  0.1137  0.0131 -0.2437
   23SAPC    C1 2993   1.415   5.068  10.471  0.8745  0.5502 -0.1489
   23SAPC    HA 2994   1.349   5.148  10.431  0.1457 -0.5621 -1.2316
   23SAPC    HB 2995   1.517   5.111  10.480  1.4396 -0.6357 -0.6353
   23SAPC    C2 2996   1.408   4.934  10.384  0.5681 -0.0879  0.3385
   23SAPC    HS 2997   1.444   4.857  10.456  2.3465  0.7730  0.4243
   23SAPC   O21 2998   1.504   4.949  10.277 -0.0801  0.6859  0.4284
   23SAPC   C21 2999   1.570   4.840  10.242  0.7743 -0.1286 -0.5947
   23SAPC   O22 3000   1.542   4.727  10.285 -0.1195  0.1286  0.7052
   23SAPC   C22 3001   1.660   4.869  10.126 -0.7383 -0.1595  0.5253
   23SAPC   H2R 3002   1.752   4.912  10.171 -0.4466 -0.5230  0.2794
   23SAPC   H2S 3003   1.682   4.772  10.076 -0.3461  0.6595 -0.9392
   23SAPC    C3 3004   1.264   4.904  10.337 -0.1496  0.1513 -0.0052
   23SAPC    HX 3005   1.197   4.904  10.426  1.2775  2.3747  1.1646
   23SAPC    HY 3006   1.262   4.799  10.300  1.9905  0.0897 -0.0665
   23SAPC   O31 3007   1.222   4.990  10.228  0.3986 -0.2689  0.3526
   23SAPC   C31 3008   1.119   5.063  10.260 -0.0964 -0.1856  0.2191
   23SAPC   O32 3009   1.050   5.046  10.357 -0.4312  0.6408  0.2355
   23SAPC   C32 3010   1.075   5.154  10.151 -0.3652  0.2753  0.8038
   23SAPC   H2X 3011   1.116   5.256  10.168  1.6647 -0.1996 -0.8322
   23SAPC   H2Y 3012   0.964   5.150  10.152 -0.3637 -0.1266  0.2135
   23SAPC   C23 3013   1.605   4.956  10.008 -0.1754  0.5265  0.3265
   23SAPC   H3R 3014   1.679   4.964   9.926 -0.4020  1.3940  0.1877
   23SAPC   H3S 3015   1.581   5.059  10.042 -2.0745 -0.6458  2.8970
   23SAPC   C24 3016   1.471   4.904   9.945 -0.4222  0.6602 -0.2731
   23SAPC   H4R 3017   1.435   4.976   9.868 -0.6444 -1.2476 -2.0148
   23SAPC   H4S 3018   1.397   4.902  10.028  0.6506 -1.0680  0.6931
   23SAPC   C25 3019   1.483   4.776   9.872  0.9202  0.1704 -0.8598
   23SAPC   H5R 3020   1.464   4.688   9.935 -0.5113 -0.8961 -2.6633
   23SAPC   C26 3021   1.498   4.751   9.742 -0.0118  0.0861 -0.0156
   23SAPC   H6R 3022   1.499   4.644   9.717 -0.8013  0.3236 -1.1274
   23SAPC   C27 3023   1.520   4.842   9.627  0.3057  1.0378 -0.5040
   23SAPC   H7R 3024   1.574   4.782   9.550  0.2836 -1.4056  1.2682
   23SAPC   H7S 3025   1.581   4.928   9.661  4.7440 -1.3389 -1.5481
   23SAPC   C28 3026   1.387   4.887   9.564 -0.1406 -0.4111  0.1588
   23SAPC   H8R 3027   1.304   4.920   9.628  0.3401  0.1683  0.5001
   23SAPC   C29 3028   1.368   4.905   9.433 -0.7804  0.0548  0.3717
   23SAPC   H9R 3029   1.267   4.935   9.400 -0.6503  0.8393  0.6673
   23SAPC  C210 3030   1.458   4.881   9.316 -0.3292  0.3049 -0.1281
   23SAPC  H10R 3031   1.453   4.778   9.276  0.2000  0.0692  0.4041
   23SAPC  H10S 3032   1.564   4.895   9.346 -0.0004  0.1160 -1.1507
   23SAPC  C211 3033   1.446   4.985   9.211  0.6768 -0.4782 -0.9587
   23SAPC  H11R 3034   1.494   5.081   9.234  0.0302 -0.6346  1.2357
   23SAPC  C212 3035   1.368   4.976   9.102  0.3290 -0.1800 -0.0256
   23SAPC  H12R 3036   1.366   5.066   9.039 -0.1204 -1.1350 -1.4298
   23SAPC  C213 3037   1.276   4.860   9.058 -0.7789 -0.2530 -1.2389
   23SAPC  H13R 3038   1.207   4.895   8.978 -0.2868 -0.3392 -1.7014
   23SAPC  H13S 3039   1.229   4.828   9.154  3.6018 -0.9503  0.8935
   23SAPC  C214 3040   1.356   4.734   9.017 -0.0901  1.1405  0.2376
   23SAPC  H14R 3041   1.465   4.718   9.025 -0.0719 -0.1599 -1.8660
   23SAPC  C215 3042   1.304   4.628   8.955  0.4126 -0.3571 -0.1171
   23SAPC  H15R 3043   1.366   4.538   8.941  1.5724  0.6384 -1.8484
   23SAPC  C216 3044   1.158   4.609   8.917 -0.9132 -0.3501 -0.0081
   23SAPC  H16R 3045   1.103   4.701   8.945  0.5671  0.2974  0.8844
   23SAPC  H16S 3046   1.115   4.523   8.972 -2.7140 -0.2180 -1.1071
   23SAPC  C217 3047   1.158   4.576   8.763  0.1634  0.1864  0.4884
   23SAPC  H17R 3048   1.057   4.538   8.739 -0.7577  2.7128 -0.0076
   23SAPC  H17S 3049   1.236   4.503   8.732  1.1709  1.2421  0.4428
   23SAPC  C218 3050   1.169   4.698   8.667 -0.3699 -0.1224  1.1139
   23SAPC  H18R 3051   1.268   4.748   8.671 -1.9273  3.1568  2.7838
   23SAPC  H18S 3052   1.093   4.779   8.674  1.1911  1.6862 -1.2876
   23SAPC  C219 3053   1.146   4.651   8.517  0.2591  0.0655  0.0151
   23SAPC  H19R 3054   1.141   4.742   8.453  0.2113 -1.6375 -2.4981
   23SAPC  H19S 3055   1.042   4.614   8.526  0.1250  0.3531 -0.3435
   23SAPC  C220 3056   1.246   4.551   8.456 -0.9469 -0.3687 -0.9829
   23SAPC  H20R 3057   1.226   4.445   8.486  0.3988 -0.2560  0.4108
   23SAPC  H20S 3058   1.351   4.580   8.478 -1.1896  0.3193 -0.7223
   23SAPC  H20T 3059   1.221   4.555   8.348 -0.0487  0.8689 -1.1589
   23SAPC   C33 3060   1.115   5.097  10.010 -0.0155 -1.0359  0.3916
   23SAPC   H3X 3061   1.068   4.997   9.996  1.5382 -1.5177 -1.9149
   23SAPC   H3Y 3062   1.225   5.091  10.007  0.0725  0.7028 -0.7273
   23SAPC   C34 3063   1.066   5.182   9.893 -0.4201  0.4489 -1.0198
   23SAPC   H4X 3064   1.158   5.245   9.886 -0.9001  1.2005 -0.7099
   23SAPC   H4Y 3065   0.978   5.243   9.923 -0.8540 -1.0996  1.0188
   23SAPC   C35 3066   1.034   5.114   9.759  0.0911 -0.2868  0.0043
   23SAPC   H5X 3067   0.927   5.084   9.757 -0.5949  2.0020 -0.1813
   23SAPC   H5Y 3068   1.092   5.019   9.751  0.9503  0.2665 -0.5141
   23SAPC   C36 3069   1.059   5.209   9.641 -0.3813 -0.2594 -0.0417
   23SAPC   H6X 3070   1.164   5.245   9.643 -0.7972  0.9674  0.6901
   23SAPC   H6Y 3071   1.002   5.304   9.647  0.0964  0.0372 -0.1302
   23SAPC   C37 3072   1.031   5.141   9.510  0.0043 -0.2700  0.5595
   23SAPC   H7X 3073   0.923   5.113   9.509 -0.6376  1.8966  1.9940
   23SAPC   H7Y 3074   1.093   5.049   9.515 -0.5692 -0.7252 -0.4834
   23SAPC   C38 3075   1.070   5.223   9.386 -0.2888  0.2582 -0.4050
   23SAPC   H8X 3076   1.176   5.253   9.399 -0.5628  1.8597 -1.6269
   23SAPC   H8Y 3077   1.009   5.316   9.382 -0.0994  0.6131  2.6102
   23SAPC   C39 3078   1.064   5.156   9.246 -0.8820  0.5625 -0.3935
   23SAPC   H9X 3079   0.960   5.117   9.238 -0.1869 -1.2582 -0.9614
   23SAPC   H9Y 3080   1.136   5.073   9.232 -3.0706 -1.4656 -0.1714
   23SAPC  C310 3081   1.087   5.254   9.130 -0.0286  0.2960 -0.1028
   23SAPC  H10X 3082   1.186   5.303   9.138  0.8654 -1.2281 -1.2277
   23SAPC  H10Y 3083   1.009   5.333   9.137 -1.1425 -0.7976  0.2531
   23SAPC  C311 3084   1.054   5.198   8.992  0.5570  0.5560  0.6525
   23SAPC  H11X 3085   0.957   5.144   9.002  1.7060 -1.5796  0.7220
   23SAPC  H11Y 3086   1.135   5.125   8.972  0.6949  0.4790  1.4423
   23SAPC  C312 3087   1.044   5.301   8.880 -0.0629  0.2882 -0.2191
   23SAPC  H12X 3088   0.982   5.384   8.921 -1.4628 -1.8139  2.2142
   23SAPC  H12Y 3089   0.988   5.260   8.793  0.5121 -1.3417  0.1563
   23SAPC  C313 3090   1.175   5.355   8.832  0.0354 -0.8434  0.9200
   23SAPC  H13X 3091   1.244   5.272   8.806  0.5998  0.0620 -0.5825
   23SAPC  H13Y 3092   1.213   5.418   8.915 -0.9937  1.1765 -0.0743
   23SAPC  C314 3093   1.161   5.460   8.719  0.9286 -0.4266 -0.0778
   23SAPC  H14X 3094   1.110   5.414   8.632  1.4034  0.0331 -0.6104
   23SAPC  H14Y 3095   1.257   5.502   8.683 -0.4474  2.1731 -0.9607
   23SAPC  C315 3096   1.088   5.588   8.767 -0.3014 -0.5658 -0.6908
   23SAPC  H15X 3097   1.124   5.617   8.867 -1.9707 -3.5975  0.9156
   23SAPC  H15Y 3098   0.982   5.555   8.761 -0.4078 -0.0203 -2.5092
   23SAPC  C316 3099   1.097   5.694   8.663 -0.2091 -0.4303  0.4285
   23SAPC  H16X 3100   1.034   5.781   8.691 -2.2553 -1.8727  0.4724
   23SAPC  H16Y 3101   1.065   5.652   8.566 -1.1551  0.8778  0.1457
   23SAPC  C317 3102   1.241   5.755   8.654 -0.1523 -0.1435 -0.3941
   23SAPC  H17X 3103   1.314   5.673   8.633 -0.9919 -0.8109 -0.7551
   23SAPC  H17Y 3104   1.254   5.796   8.756 -0.8344 -2.7797  0.8309
   23SAPC  C318 3105   1.245   5.875   8.558 -0.2749 -0.3609 -0.1216
   23SAPC  H18X 3106   1.177   5.959   8.587  2.2281  1.6259  0.3506
   23SAPC  H18Y 3107   1.231   5.852   8.450  0.1121 -2.4174  0.2276
   23SAPC  H18Z 3108   1.349   5.913   8.563  0.1267 -1.5282  0.8790
   24SAPC     N 3109   5.293   4.681  11.206  0.6610  0.2342  0.7108
   24SAPC   C12 3110   5.285   4.531  11.238 -0.0774  0.0581  0.2084
   24SAPC  H12A 3111   5.290   4.521  11.345  0.3051  0.6711  0.2560
   24SAPC  H12B 3112   5.370   4.481  11.194 -0.6325 -0.2601 -0.5306
   24SAPC   C13 3113   5.429   4.729  11.206 -0.2420  0.3806 -0.4196
   24SAPC  H13A 3114   5.483   4.698  11.294  0.2013  2.4841  0.0966
   24SAPC  H13B 3115   5.484   4.704  11.117  0.8672  0.2851  0.2813
   24SAPC  H13C 3116   5.434   4.836  11.219 -0.0009  0.6279 -2.3317
   24SAPC   C14 3117   5.228   4.717  11.077  0.0987  0.1485 -0.1162
   24SAPC  H14A 3118   5.140   4.657  11.058 -0.4126  1.1277 -0.9297
   24SAPC  H14B 3119   5.200   4.821  11.073  0.8107  0.3111 -1.4441
   24SAPC  H14C 3120   5.297   4.697  10.997 -0.2018 -2.7108  0.2291
   24SAPC   C15 3121   5.214   4.757  11.313  0.1000  0.1911  0.2946
   24SAPC  H15A 3122   5.230   4.713  11.410  0.7574  1.3709  0.7428
   24SAPC  H15B 3123   5.238   4.862  11.316 -1.6605  0.7443 -1.9567
   24SAPC  H15C 3124   5.110   4.738  11.292  0.4928 -1.4895 -0.3327
   24SAPC   C11 3125   5.159   4.458  11.193  0.1461  0.1200 -0.7608
   24SAPC  H11A 3126   5.156   4.356  11.237  0.5033 -0.0258 -1.0728
   24SAPC  H11B 3127   5.181   4.436  11.087  1.1378 -1.9067 -0.1949
   24SAPC     P 3128   4.911   4.517  11.130  0.0105 -0.1494  0.2927
   24SAPC   O13 3129   4.890   4.375  11.095  0.3464 -0.0912  0.6432
   24SAPC   O14 3130   4.790   4.583  11.189  0.0799  0.0403 -0.3687
   24SAPC   O12 3131   5.037   4.531  11.224  0.2200 -0.1622  0.6262
   24SAPC   O11 3132   4.959   4.594  10.996 -0.1608 -0.2479 -0.1307
   24SAPC    C1 3133   4.894   4.713  10.958 -0.0188  0.6843  0.1883
   24SAPC    HA 3134   4.889   4.791  11.037  1.1084  2.0446 -1.0260
   24SAPC    HB 3135   4.945   4.764  10.874 -2.2966  2.3938 -0.2559
   24SAPC    C2 3136   4.750   4.685  10.901 -0.4800 -0.0262  0.5526
   24SAPC    HS 3137   4.701   4.608  10.965 -0.8387 -0.1814  0.0951
   24SAPC   O21 3138   4.768   4.634  10.766 -0.4780  0.0083  0.1426
   24SAPC   C21 3139   4.664   4.564  10.729 -0.4342  0.0771 -0.0831
   24SAPC   O22 3140   4.565   4.545  10.799  0.2058  0.4180 -0.3857
   24SAPC   C22 3141   4.691   4.514  10.590 -0.0044 -0.0724  0.1979
   24SAPC   H2R 3142   4.751   4.587  10.532 -0.5042 -1.2183 -1.8513
   24SAPC   H2S 3143   4.754   4.424  10.607 -0.5095 -0.6660 -0.9964
   24SAPC    C3 3144   4.653   4.812  10.894 -0.6792  1.2583 -0.2872
   24SAPC    HX 3145   4.631   4.833  11.000 -0.5922 -3.5773  0.9363
   24SAPC    HY 3146   4.560   4.789  10.837 -1.3800 -2.0473  1.9313
   24SAPC   O31 3147   4.717   4.919  10.822  0.0399 -0.0950 -0.2879
   24SAPC   C31 3148   4.681   5.043  10.866  0.1119  0.9414 -0.0930
   24SAPC   O32 3149   4.631   5.074  10.970  0.1752 -0.5643  0.0985
   24SAPC   C32 3150   4.710   5.139  10.750  0.0413 -0.2285  0.1492
   24SAPC   H2X 3151   4.819   5.157  10.749 -0.1061  0.6827 -1.3959
   24SAPC   H2Y 3152   4.649   5.229  10.772  0.9329  0.4849 -0.2774
   24SAPC   C23 3153   4.567   4.464  10.519 -0.7569 -0.2956 -0.2225
   24SAPC   H3R 3154   4.525   4.554  10.470 -0.5038  0.1257  0.3132
   24SAPC   H3S 3155   4.488   4.422  10.585 -0.5034 -1.3119 -0.5532
   24SAPC   C24 3156   4.610   4.361  10.409 -0.0606  0.7518 -0.3108
   24SAPC   H4R 3157   4.698   4.405  10.358  0.3781 -1.6452 -1.7491
   24SAPC   H4S 3158   4.530   4.335  10.336  1.4765 -1.8119 -1.2001
   24SAPC   C25 3159   4.650   4.230  10.461  0.7632  0.6836  0.1706
   24SAPC   H5R 3160   4.598   4.208  10.555  1.6081  1.3862  0.8200
   24SAPC   C26 3161   4.732   4.141  10.403  0.5296 -0.2313  0.1993
   24SAPC   H6R 3162   4.749   4.045  10.455  0.4479 -2.0300 -2.8154
   24SAPC   C27 3163   4.804   4.157  10.270  0.0383  0.5292  0.2180
   24SAPC   H7R 3164   4.892   4.223  10.279 -0.7490  1.7283 -0.5892
   24SAPC   H7S 3165   4.732   4.197  10.196  0.0789  0.8268  0.3397
   24SAPC   C28 3166   4.848   4.016  10.221  0.4460 -0.1974  0.8177
   24SAPC   H8R 3167   4.820   3.930  10.282 -2.1379 -1.3998 -1.7976
   24SAPC   C29 3168   4.917   3.984  10.109 -0.1450 -0.0862 -0.3274
   24SAPC   H9R 3169   4.944   3.878  10.100 -2.9721 -1.0430  1.2969
   24SAPC  C210 3170   4.968   4.081  10.006  0.2197 -0.3050 -0.5770
   24SAPC  H10R 3171   5.072   4.107  10.033  0.7626 -1.7931 -1.1026
   24SAPC  H10S 3172   4.903   4.171  10.003  0.7773  0.2088  1.6079
   24SAPC  C211 3173   4.967   4.008   9.866  0.4107  0.2938 -0.7345
   24SAPC  H11R 3174   5.032   3.919   9.865 -1.4200 -1.1116 -1.2160
   24SAPC  C212 3175   4.901   4.046   9.756  1.0986  0.0631 -0.0768
   24SAPC  H12R 3176   4.924   3.995   9.661 -1.5732 -2.1507  0.3306
   24SAPC  C213 3177   4.813   4.173   9.746  0.4073 -0.4439 -0.1479
   24SAPC  H13R 3178   4.839   4.216   9.647  1.4778  1.4487  0.8940
   24SAPC  H13S 3179   4.857   4.249   9.814  3.1546 -2.3818  0.4205
   24SAPC  C214 3180   4.668   4.146   9.759  0.2823 -0.2932 -0.1496
   24SAPC  H14R 3181   4.632   4.067   9.691 -2.6958  0.3184  0.5853
   24SAPC  C215 3182   4.559   4.193   9.830  0.1006 -0.3126  0.7110
   24SAPC  H15R 3183   4.460   4.150   9.807 -0.5148  0.0898  2.4855
   24SAPC  C216 3184   4.560   4.298   9.937  0.1857  0.5799  0.0392
   24SAPC  H16R 3185   4.659   4.350   9.935  0.1742  0.5954 -0.1590
   24SAPC  H16S 3186   4.555   4.252  10.038  1.2240 -1.3782 -0.7471
   24SAPC  C217 3187   4.454   4.408   9.924 -0.2256 -0.1383 -0.3196
   24SAPC  H17R 3188   4.445   4.458  10.023 -4.3216  2.9102 -1.9371
   24SAPC  H17S 3189   4.355   4.377   9.886 -1.1652  1.2725  0.8760
   24SAPC  C218 3190   4.486   4.516   9.823  0.4057 -0.0143 -0.3734
   24SAPC  H18R 3191   4.495   4.468   9.723  0.6663 -0.4705 -0.1355
   24SAPC  H18S 3192   4.590   4.553   9.839  0.0579  0.2620  1.3747
   24SAPC  C219 3193   4.397   4.638   9.815  0.3332  0.0585  0.0545
   24SAPC  H19R 3194   4.351   4.654   9.915  3.1781  0.0798  1.4720
   24SAPC  H19S 3195   4.314   4.614   9.746  0.2122  2.8745 -0.9265
   24SAPC  C220 3196   4.477   4.756   9.757 -0.4829 -0.6612  0.0487
   24SAPC  H20R 3197   4.561   4.779   9.827  0.7723  0.5714 -1.7711
   24SAPC  H20S 3198   4.416   4.847   9.746  0.4945 -0.0690 -0.6243
   24SAPC  H20T 3199   4.524   4.731   9.660 -0.2610  2.5448 -0.7559
   24SAPC   C33 3200   4.656   5.097  10.616 -0.0220 -0.1988 -0.4935
   24SAPC   H3X 3201   4.689   4.993  10.593  0.2846 -0.3402  0.5438
   24SAPC   H3Y 3202   4.716   5.168  10.555  1.7308 -0.4220  0.8917
   24SAPC   C34 3203   4.508   5.132  10.598 -0.4124 -0.1015 -0.2128
   24SAPC   H4X 3204   4.497   5.242  10.602  0.7611 -0.0075  1.1294
   24SAPC   H4Y 3205   4.452   5.085  10.682  1.9475 -2.3382  0.2572
   24SAPC   C35 3206   4.441   5.072  10.470 -0.7261 -0.5224  0.4657
   24SAPC   H5X 3207   4.452   4.962  10.479 -1.8353 -0.7304 -0.4158
   24SAPC   H5Y 3208   4.492   5.105  10.377 -0.0558  0.0153  1.0165
   24SAPC   C36 3209   4.286   5.086  10.445  0.4875 -0.1652 -0.1630
   24SAPC   H6X 3210   4.269   5.194  10.427  0.4029 -0.3368 -1.1636
   24SAPC   H6Y 3211   4.239   5.063  10.543 -1.6917 -0.9586 -1.3151
   24SAPC   C37 3212   4.217   4.993  10.342 -0.2105  0.8857 -0.1714
   24SAPC   H7X 3213   4.115   5.026  10.315 -0.0784  0.7236 -0.8791
   24SAPC   H7Y 3214   4.204   4.892  10.387  1.7123  0.0931 -1.2577
   24SAPC   C38 3215   4.300   4.985  10.217  0.3250  0.9670 -0.7466
   24SAPC   H8X 3216   4.231   4.928  10.151  1.3891  0.8332 -1.7581
   24SAPC   H8Y 3217   4.390   4.921  10.228 -2.0706 -2.2825  2.4450
   24SAPC   C39 3218   4.321   5.119  10.151  0.5900 -0.3098 -0.0067
   24SAPC   H9X 3219   4.286   5.202  10.215  1.7864  0.4709 -0.3422
   24SAPC   H9Y 3220   4.252   5.126  10.064 -0.9136  1.2208  1.2481
   24SAPC  C310 3221   4.465   5.145  10.099  0.3956  0.2194 -0.2276
   24SAPC  H10X 3222   4.538   5.115  10.177 -1.5552  0.2745  1.7096
   24SAPC  H10Y 3223   4.481   5.248  10.060 -1.1079  1.2034  1.5931
   24SAPC  C311 3224   4.493   5.047   9.979 -0.2328 -0.2564 -0.1190
   24SAPC  H11X 3225   4.400   5.025   9.922 -1.9957  0.0360  2.4540
   24SAPC  H11Y 3226   4.515   4.946  10.019 -0.2282  0.1772  0.9997
   24SAPC  C312 3227   4.602   5.090   9.887  1.0391  0.1663  0.4864
   24SAPC  H12X 3228   4.638   5.018   9.810 -0.2826  2.8933 -2.8993
   24SAPC  H12Y 3229   4.688   5.118   9.953  0.3201  0.9337  1.1136
   24SAPC  C313 3230   4.555   5.204   9.796  0.4481 -0.5169 -0.0301
   24SAPC  H13X 3231   4.526   5.295   9.852 -0.3921 -0.8158  0.0468
   24SAPC  H13Y 3232   4.464   5.176   9.739  0.6681  2.0957 -1.8154
   24SAPC  C314 3233   4.657   5.249   9.694 -0.3130 -0.2352  0.2323
   24SAPC  H14X 3234   4.720   5.159   9.678  2.5541  1.8913 -1.4961
   24SAPC  H14Y 3235   4.724   5.320   9.747 -2.2512  1.0164  1.1222
   24SAPC  C315 3236   4.601   5.290   9.560  0.8698  0.1931  0.5000
   24SAPC  H15X 3237   4.561   5.393   9.576 -1.3012 -0.9022  2.7221
   24SAPC  H15Y 3238   4.519   5.223   9.528  0.8670 -0.0643  1.0317
   24SAPC  C316 3239   4.710   5.287   9.450 -0.5364 -0.1027 -1.1526
   24SAPC  H16X 3240   4.752   5.185   9.464  0.8103  0.6903  1.0352
   24SAPC  H16Y 3241   4.782   5.367   9.477 -0.6773 -0.7822  1.5362
   24SAPC  C317 3242   4.640   5.312   9.322  0.4220 -0.1620  0.3992
   24SAPC  H17X 3243   4.572   5.400   9.319 -1.1025 -1.3234 -1.3128
   24SAPC  H17Y 3244   4.569   5.228   9.306  1.3145 -1.0623  1.0414
   24SAPC  C318 3245   4.730   5.301   9.200 -0.3805 -0.8490 -0.1125
   24SAPC  H18X 3246   4.794   5.392   9.207 -2.1111  0.5407 -1.5324
   24SAPC  H18Y 3247   4.679   5.307   9.102 -1.0384  2.2465  0.3243
   24SAPC  H18Z 3248   4.803   5.219   9.220  1.8249  1.0210  0.0051
   25SAPC     N 3249   1.916   2.421   5.929 -0.4447 -0.6601  1.2045
   25SAPC   C12 3250   2.034   2.443   5.831  0.4062 -0.3175  0.0724
   25SAPC  H12A 3251   2.012   2.424   5.727  2.2842 -0.7665 -0.2762
   25SAPC  H12B 3252   2.107   2.373   5.868  3.3064  1.8885 -1.1380
   25SAPC   C13 3253   1.966   2.432   6.069  0.0846 -0.4142  0.1141
   25SAPC  H13A 3254   2.049   2.366   6.093 -2.0316 -2.3536  2.6376
   25SAPC  H13B 3255   2.009   2.530   6.084 -1.8394  0.3139  1.1239
   25SAPC  H13C 3256   1.890   2.427   6.145  1.3963  0.4798  1.5274
   25SAPC   C14 3257   1.805   2.519   5.897 -0.4152  0.1026 -0.0432
   25SAPC  H14A 3258   1.834   2.622   5.908 -1.2997  0.3464  0.0651
   25SAPC  H14B 3259   1.772   2.504   5.796 -1.0872 -0.3598  0.2343
   25SAPC  H14C 3260   1.727   2.499   5.970  0.1898 -1.5499  0.2105
   25SAPC   C15 3261   1.870   2.278   5.916  0.1937  1.2417  0.6916
   25SAPC  H15A 3262   1.810   2.243   5.999 -1.4387 -2.2275 -1.7055
   25SAPC  H15B 3263   1.804   2.272   5.831 -0.8400 -0.3428  1.5676
   25SAPC  H15C 3264   1.946   2.200   5.914 -1.3707 -0.3295 -0.5516
   25SAPC   C11 3265   2.093   2.588   5.830  0.0341 -0.0353  0.5417
   25SAPC  H11A 3266   2.013   2.659   5.860 -1.6656 -2.0812  1.0985
   25SAPC  H11B 3267   2.133   2.607   5.728 -1.9697  0.5728 -0.1809
   25SAPC     P 3268   2.338   2.520   5.910 -0.0714 -0.0029 -0.1481
   25SAPC   O13 3269   2.323   2.372   5.924  0.9380  0.0081  0.3295
   25SAPC   O14 3270   2.402   2.574   5.789 -0.0803  0.2214 -0.4491
   25SAPC   O12 3271   2.196   2.592   5.932 -0.5772  0.1443 -0.4224
   25SAPC   O11 3272   2.417   2.566   6.035  0.4137  0.1637 -0.2327
   25SAPC    C1 3273   2.358   2.636   6.143 -0.2944 -0.4432  0.1546
   25SAPC    HA 3274   2.439   2.678   6.207 -0.0845 -0.7003  0.0572
   25SAPC    HB 3275   2.304   2.726   6.105  0.8210  0.4648  0.6306
   25SAPC    C2 3276   2.279   2.554   6.247  0.2421  0.5568  0.7898
   25SAPC    HS 3277   2.183   2.516   6.204  1.0665 -1.8658  0.8999
   25SAPC   O21 3278   2.262   2.632   6.362  0.7101  1.2643 -0.0608
   25SAPC   C21 3279   2.152   2.608   6.435 -0.8335  0.1974  0.1232
   25SAPC   O22 3280   2.063   2.533   6.402 -0.9306  0.0134 -0.5157
   25SAPC   C22 3281   2.165   2.693   6.561  0.4215 -0.1328 -0.2336
   25SAPC   H2R 3282   2.273   2.715   6.579  0.0520  0.2214  1.7449
   25SAPC   H2S 3283   2.114   2.788   6.537 -0.4075 -0.5897 -0.3151
   25SAPC    C3 3284   2.362   2.422   6.277  0.4888 -0.7829 -0.4548
   25SAPC    HX 3285   2.464   2.451   6.310 -0.4113  2.2403  0.0094
   25SAPC    HY 3286   2.371   2.378   6.175 -2.5857  0.3326 -1.3269
   25SAPC   O31 3287   2.319   2.336   6.380 -0.1126  0.0683 -0.3530
   25SAPC   C31 3288   2.221   2.256   6.350  0.5649 -0.8368 -0.4146
   25SAPC   O32 3289   2.164   2.262   6.243  0.8201 -0.2520 -0.6459
   25SAPC   C32 3290   2.167   2.184   6.479 -0.3313 -0.3838  0.1071
   25SAPC   H2X 3291   2.198   2.251   6.563 -0.0097 -0.2014 -0.1536
   25SAPC   H2Y 3292   2.223   2.088   6.478  0.1538 -0.1378 -2.1832
   25SAPC   C23 3293   2.096   2.635   6.686 -1.0756 -0.1852  0.6266
   25SAPC   H3R 3294   1.994   2.614   6.649 -0.6512 -1.5017  0.1092
   25SAPC   H3S 3295   2.072   2.720   6.752 -1.4161 -0.9847  1.5582
   25SAPC   C24 3296   2.169   2.524   6.760 -0.0337 -0.0574  0.1676
   25SAPC   H4R 3297   2.236   2.575   6.832 -1.3044 -0.4525  1.6680
   25SAPC   H4S 3298   2.232   2.455   6.699 -1.8754 -3.5442  1.8830
   25SAPC   C25 3299   2.066   2.440   6.834  0.6990 -0.2393 -0.9151
   25SAPC   H5R 3300   1.963   2.459   6.799  1.3362  2.1389 -1.7162
   25SAPC   C26 3301   2.088   2.360   6.939  0.5332  0.4282  0.0001
   25SAPC   H6R 3302   2.002   2.322   6.996  0.6736  2.8295  2.0064
   25SAPC   C27 3303   2.228   2.330   6.989  0.0329 -0.5578 -0.2034
   25SAPC   H7R 3304   2.225   2.296   7.095 -2.1952 -1.4100 -0.4929
   25SAPC   H7S 3305   2.286   2.425   6.983  0.2347 -0.6802 -0.1949
   25SAPC   C28 3306   2.296   2.224   6.906  0.6841 -0.0972  0.2546
   25SAPC   H8R 3307   2.313   2.263   6.804 -2.3319  1.3886  0.2174
   25SAPC   C29 3308   2.311   2.093   6.939 -0.3239 -0.2542 -0.8567
   25SAPC   H9R 3309   2.366   2.025   6.873  2.1457 -0.5706  1.3733
   25SAPC  C210 3310   2.278   2.037   7.074  0.1335 -0.0258 -0.4529
   25SAPC  H10R 3311   2.311   2.096   7.162  1.8854 -1.8759  0.2282
   25SAPC  H10S 3312   2.340   1.944   7.076 -1.3116 -1.0269  2.1102
   25SAPC  C211 3313   2.132   1.990   7.073 -0.4267 -0.1975 -0.0926
   25SAPC  H11R 3314   2.078   2.023   6.982  2.2224 -0.7133 -1.9805
   25SAPC  C212 3315   2.067   1.928   7.169 -0.1314  0.0233 -0.4091
   25SAPC  H12R 3316   1.958   1.913   7.161 -0.4554  1.8760  0.0133
   25SAPC  C213 3317   2.122   1.908   7.308 -1.6056  0.4249  0.4568
   25SAPC  H13R 3318   2.054   1.844   7.368  0.1160 -1.7946  0.1521
   25SAPC  H13S 3319   2.123   2.002   7.367 -1.2912 -0.7920  2.4533
   25SAPC  C214 3320   2.257   1.836   7.318 -0.3793 -0.1315  0.8672
   25SAPC  H14R 3321   2.263   1.749   7.252  1.9790 -0.7929  1.8316
   25SAPC  C215 3322   2.374   1.870   7.380 -0.1836  0.8096  0.3598
   25SAPC  H15R 3323   2.464   1.808   7.368 -1.8253 -1.4807 -1.0638
   25SAPC  C216 3324   2.400   1.987   7.472 -0.3210  0.0584  0.5573
   25SAPC  H16R 3325   2.318   1.990   7.547 -0.2638 -2.1735  0.7791
   25SAPC  H16S 3326   2.401   2.088   7.427 -0.2663  0.3208  1.1382
   25SAPC  C217 3327   2.533   1.965   7.551  0.0939  0.1533 -0.3643
   25SAPC  H17R 3328   2.526   1.866   7.600  0.6187  0.8560  1.2115
   25SAPC  H17S 3329   2.526   2.041   7.632  1.5409 -0.9997  0.9014
   25SAPC  C218 3330   2.660   1.993   7.475  0.0857  0.8141 -0.1147
   25SAPC  H18R 3331   2.683   2.102   7.466  0.6901  0.7497  0.5580
   25SAPC  H18S 3332   2.649   1.950   7.373  1.5394 -0.0215  0.0487
   25SAPC  C219 3333   2.782   1.927   7.545  0.0942 -0.0732 -1.2427
   25SAPC  H19R 3334   2.874   1.947   7.486  1.9511  0.4416  1.5709
   25SAPC  H19S 3335   2.755   1.820   7.556 -0.5811  0.2073  0.0247
   25SAPC  C220 3336   2.818   1.973   7.687  0.3775  0.0712 -0.0674
   25SAPC  H20R 3337   2.733   1.988   7.757 -0.2833 -1.4838 -0.4854
   25SAPC  H20S 3338   2.876   2.068   7.677 -1.1822  0.9975 -0.8578
   25SAPC  H20T 3339   2.878   1.886   7.721 -0.9836 -1.1093 -0.5794
   25SAPC   C33 3340   2.015   2.172   6.477 -0.4524 -0.1762 -0.1351
   25SAPC   H3X 3341   1.983   2.080   6.424  0.0684 -0.1252 -0.5539
   25SAPC   H3Y 3342   1.968   2.265   6.438  0.2421  0.4899  0.5709
   25SAPC   C34 3343   1.964   2.157   6.618  0.4130 -0.1763  0.0640
   25SAPC   H4X 3344   2.004   2.246   6.671 -0.6188  0.9154 -0.9342
   25SAPC   H4Y 3345   2.014   2.071   6.667  0.4705 -0.6596 -0.8311
   25SAPC   C35 3346   1.813   2.159   6.618 -0.1790  0.4600  0.8203
   25SAPC   H5X 3347   1.776   2.068   6.567  2.9784  0.5984 -2.0783
   25SAPC   H5Y 3348   1.779   2.251   6.566  0.7580  0.8082  0.8001
   25SAPC   C36 3349   1.761   2.179   6.756 -0.2351  0.1682 -1.0775
   25SAPC   H6X 3350   1.656   2.215   6.758 -0.5629 -0.7311  0.4681
   25SAPC   H6Y 3351   1.826   2.256   6.802 -2.7977  1.3101  0.8734
   25SAPC   C37 3352   1.773   2.053   6.842  0.3386  0.1638 -0.2251
   25SAPC   H7X 3353   1.872   2.006   6.823 -0.5441 -2.4172  1.0806
   25SAPC   H7Y 3354   1.694   1.979   6.816  0.4452  0.3172 -1.0211
   25SAPC   C38 3355   1.757   2.082   6.994 -0.4525  0.9486 -0.0646
   25SAPC   H8X 3356   1.857   2.112   7.031 -0.2143 -1.4123  1.3990
   25SAPC   H8Y 3357   1.746   1.978   7.032  2.2258  0.4733 -0.4084
   25SAPC   C39 3358   1.646   2.179   7.040  0.1613 -0.2929 -0.0583
   25SAPC   H9X 3359   1.553   2.167   6.980 -1.2602  2.3482  1.4075
   25SAPC   H9Y 3360   1.680   2.283   7.019 -1.7365  0.5014  0.5786
   25SAPC  C310 3361   1.598   2.158   7.176  0.9663  0.0242 -0.2322
   25SAPC  H10X 3362   1.536   2.066   7.183  0.9580  0.0409 -0.0844
   25SAPC  H10Y 3363   1.534   2.243   7.209  1.6760  0.0700  1.1167
   25SAPC  C311 3364   1.712   2.156   7.276  0.7112  0.1764 -0.3999
   25SAPC  H11X 3365   1.793   2.231   7.262  2.5150 -1.2388  1.7436
   25SAPC  H11Y 3366   1.760   2.057   7.263 -1.1923 -1.0808  1.4771
   25SAPC  C312 3367   1.671   2.172   7.419  0.5385 -0.0488 -0.2853
   25SAPC  H12X 3368   1.591   2.099   7.442 -0.2363  0.4385 -1.3313
   25SAPC  H12Y 3369   1.614   2.267   7.419 -0.7005 -0.7775 -0.4305
   25SAPC  C313 3370   1.784   2.176   7.523 -0.4346 -0.5432 -0.0097
   25SAPC  H13X 3371   1.735   2.192   7.621  0.1696 -1.9351  0.5494
   25SAPC  H13Y 3372   1.855   2.256   7.493 -0.1725 -0.2438  1.3558
   25SAPC  C314 3373   1.844   2.038   7.544 -0.0246  0.4708  0.4529
   25SAPC  H14X 3374   1.898   2.022   7.448 -0.2406  0.2852  0.3624
   25SAPC  H14Y 3375   1.760   1.966   7.551 -1.6376  2.3395  1.6478
   25SAPC  C315 3376   1.928   2.039   7.670 -0.3161  1.1468  0.7835
   25SAPC  H15X 3377   1.860   2.035   7.759 -0.6971 -0.6334  0.4445
   25SAPC  H15Y 3378   1.989   2.131   7.677 -0.0835  1.0703 -0.1453
   25SAPC  C316 3379   2.013   1.910   7.682  1.0253  0.0078  0.4699
   25SAPC  H16X 3380   2.062   1.904   7.582  2.1369 -1.1370  1.0610
   25SAPC  H16Y 3381   1.934   1.831   7.685 -0.6354  1.5877  0.3709
   25SAPC  C317 3382   2.106   1.895   7.804  0.5233  0.0370  0.0188
   25SAPC  H17X 3383   2.052   1.944   7.888 -2.9171  0.8448 -2.4372
   25SAPC  H17Y 3384   2.205   1.940   7.784  0.5315  0.2043  0.4315
   25SAPC  C318 3385   2.129   1.752   7.845  0.0802 -0.3433  0.8239
   25SAPC  H18X 3386   2.032   1.702   7.867 -0.8382  0.3542 -1.3258
   25SAPC  H18Y 3387   2.185   1.766   7.939  1.9146  2.0979 -0.5235
   25SAPC  H18Z 3388   2.193   1.691   7.777  0.4552  1.4225 -0.4849
   26SAPC     N 3389   0.758   5.598   5.981 -0.3585 -0.7864 -0.3075
   26SAPC   C12 3390   0.907   5.580   6.007  0.4010  0.1161  0.3379
   26SAPC  H12A 3391   0.972   5.650   5.957  2.6764 -2.3695 -0.4172
   26SAPC  H12B 3392   0.927   5.482   5.966 -0.7158 -0.2261  0.5681
   26SAPC   C13 3393   0.708   5.735   6.022 -0.2971 -0.0988 -0.2273
   26SAPC  H13A 3394   0.742   5.748   6.124  4.2368  0.8534 -1.6324
   26SAPC  H13B 3395   0.771   5.805   5.970  1.3583 -0.4877  1.1305
   26SAPC  H13C 3396   0.602   5.740   6.005 -0.3989  0.4606  0.5438
   26SAPC   C14 3397   0.727   5.564   5.835 -0.4237 -0.1221  0.4498
   26SAPC  H14A 3398   0.623   5.578   5.809  0.3875  2.5068 -1.8638
   26SAPC  H14B 3399   0.785   5.616   5.760 -2.6006 -1.6476 -2.4766
   26SAPC  H14C 3400   0.759   5.465   5.806  1.2743  0.8574 -1.3116
   26SAPC   C15 3401   0.680   5.504   6.059 -0.6402  0.1306 -1.0138
   26SAPC  H15A 3402   0.731   5.499   6.154  1.5093 -1.5572 -2.1760
   26SAPC  H15B 3403   0.576   5.528   6.073 -0.4258  1.7550 -1.8884
   26SAPC  H15C 3404   0.687   5.402   6.025  1.4143  0.4324 -1.6381
   26SAPC   C11 3405   0.963   5.587   6.161  0.1012  0.7958 -0.0304
   26SAPC  H11A 3406   0.917   5.673   6.215 -1.2629 -0.1409  0.3355
   26SAPC  H11B 3407   1.070   5.612   6.141 -0.6847  4.0979 -0.8270
   26SAPC     P 3408   1.015   5.329   6.192 -0.2108 -0.1378  0.0085
   26SAPC   O13 3409   0.916   5.223   6.187 -0.0369  0.1422  0.2845
   26SAPC   O14 3410   1.094   5.355   6.071  0.3527  0.4449  0.1775
   26SAPC   O12 3411   0.942   5.465   6.231  0.2770  0.2398 -0.1814
   26SAPC   O11 3412   1.108   5.300   6.316 -0.0133 -0.0370 -0.5247
   26SAPC    C1 3413   1.196   5.400   6.370  0.0713  0.1189  0.0125
   26SAPC    HA 3414   1.302   5.399   6.336  0.8080  1.6563  2.0547
   26SAPC    HB 3415   1.171   5.504   6.343  0.6884  0.8935  2.1917
   26SAPC    C2 3416   1.202   5.398   6.524  0.4486  0.8814  0.7372
   26SAPC    HS 3417   1.308   5.415   6.552  1.0517 -0.4143 -0.6147
   26SAPC   O21 3418   1.152   5.278   6.580 -0.7429 -0.7745 -0.4163
   26SAPC   C21 3419   1.235   5.173   6.582 -0.0555 -0.5382  0.2094
   26SAPC   O22 3420   1.344   5.171   6.528  0.2335  0.3060 -0.0300
   26SAPC   C22 3421   1.161   5.060   6.666 -0.4760  0.0527  0.1259
   26SAPC   H2R 3422   1.096   4.998   6.601  2.3204 -1.1228 -1.6949
   26SAPC   H2S 3423   1.244   4.991   6.693 -0.6921  0.4893  2.0931
   26SAPC    C3 3424   1.118   5.514   6.568 -0.9736 -0.7006 -1.4386
   26SAPC    HX 3425   1.016   5.500   6.525 -1.5985 -1.3936  0.2094
   26SAPC    HY 3426   1.141   5.607   6.512 -1.6559  0.9717  0.9270
   26SAPC   O31 3427   1.125   5.540   6.707 -0.4748 -0.3393  0.2114
   26SAPC   C31 3428   1.235   5.597   6.745 -0.5620 -0.5840  0.4915
   26SAPC   O32 3429   1.325   5.635   6.665  0.3598  0.2877 -0.6197
   26SAPC   C32 3430   1.244   5.609   6.895 -0.3111  0.4060  0.2065
   26SAPC   H2X 3431   1.322   5.684   6.917  0.2075 -0.3703  1.1339
   26SAPC   H2Y 3432   1.278   5.510   6.934  0.7968  0.9961  0.7771
   26SAPC   C23 3433   1.086   5.106   6.800  0.0210 -0.6748  0.6523
   26SAPC   H3R 3434   1.042   5.017   6.849 -0.6603 -0.1284  1.0704
   26SAPC   H3S 3435   0.998   5.173   6.782  0.5010  0.2143  1.5395
   26SAPC   C24 3436   1.175   5.170   6.899 -0.1628 -0.1839  0.0923
   26SAPC   H4R 3437   1.103   5.191   6.981 -0.4038 -1.0032  0.0944
   26SAPC   H4S 3438   1.212   5.265   6.854  0.0734 -0.3271 -0.0122
   26SAPC   C25 3439   1.287   5.084   6.952  0.2466 -0.0477  0.6117
   26SAPC   H5R 3440   1.374   5.078   6.885  0.4228 -0.8557  0.8932
   26SAPC   C26 3441   1.308   5.038   7.079  0.8279  0.1689  0.4065
   26SAPC   H6R 3442   1.402   4.983   7.094  0.8738 -0.4078 -1.7005
   26SAPC   C27 3443   1.212   5.047   7.191 -0.3880  0.4489 -0.2780
   26SAPC   H7R 3444   1.142   4.961   7.186  0.0094  0.1174 -0.2536
   26SAPC   H7S 3445   1.144   5.133   7.179 -0.3179  0.4537 -0.6626
   26SAPC   C28 3446   1.269   5.062   7.329  0.6389  0.5455  0.7159
   26SAPC   H8R 3447   1.378   5.052   7.339  0.6208 -1.2468 -0.4060
   26SAPC   C29 3448   1.190   5.072   7.439  0.0878  0.0760 -0.4429
   26SAPC   H9R 3449   1.234   5.083   7.539  0.0892 -0.2731 -0.4044
   26SAPC  C210 3450   1.043   5.088   7.448 -0.3438 -0.0800  0.0945
   26SAPC  H10R 3451   1.009   5.090   7.342  4.0440 -0.2039 -1.4882
   26SAPC  H10S 3452   1.024   5.183   7.503  0.2381 -1.8487  3.5912
   26SAPC  C211 3453   0.971   4.977   7.519  0.1853  0.3163 -0.1913
   26SAPC  H11R 3454   0.929   4.900   7.452  0.1033  0.2266 -0.0378
   26SAPC  C212 3455   0.949   4.950   7.653 -0.5626  0.7668  0.6313
   26SAPC  H12R 3456   0.898   4.858   7.684 -1.6149  0.7697 -0.9728
   26SAPC  C213 3457   1.009   5.030   7.766 -0.2187  0.5034 -0.1779
   26SAPC  H13R 3458   1.072   5.116   7.734  1.5896 -1.1561 -1.2381
   26SAPC  H13S 3459   1.076   4.967   7.829 -1.1508  0.3030  0.6369
   26SAPC  C214 3460   0.895   5.081   7.850  0.6967  0.7968 -0.2067
   26SAPC  H14R 3461   0.845   5.168   7.806 -0.0905 -0.3197 -1.5889
   26SAPC  C215 3462   0.850   5.030   7.963  0.2694  0.6938  0.3387
   26SAPC  H15R 3463   0.783   5.097   8.020  1.4578  3.3240 -1.1647
   26SAPC  C216 3464   0.916   4.921   8.045  0.7240  0.4592 -0.1848
   26SAPC  H16R 3465   1.027   4.914   8.046  0.7272  0.5197 -0.0529
   26SAPC  H16S 3466   0.876   4.830   7.997 -0.9046  0.8862  0.2895
   26SAPC  C217 3467   0.865   4.906   8.196  0.0167 -0.0404 -0.5526
   26SAPC  H17R 3468   0.895   4.807   8.236 -2.3852 -0.5083  0.2490
   26SAPC  H17S 3469   0.754   4.910   8.190  0.0167 -0.1751 -0.6400
   26SAPC  C218 3470   0.929   5.008   8.289  0.1997 -0.1346 -0.1625
   26SAPC  H18R 3471   0.900   5.113   8.266 -1.9760 -0.1769  1.9469
   26SAPC  H18S 3472   1.037   4.985   8.283 -0.0960 -1.3927 -4.6598
   26SAPC  C219 3473   0.888   4.977   8.440  0.1677  0.6125  0.1531
   26SAPC  H19R 3474   0.919   4.871   8.452  0.6187  0.1682 -3.7398
   26SAPC  H19S 3475   0.778   4.980   8.452 -0.2909 -0.1733 -2.9301
   26SAPC  C220 3476   0.951   5.070   8.547  0.0950  0.4001  0.1377
   26SAPC  H20R 3477   1.060   5.085   8.527  0.1610 -0.1626  0.0577
   26SAPC  H20S 3478   0.948   5.029   8.650 -2.2100 -0.4198 -0.2204
   26SAPC  H20T 3479   0.909   5.172   8.531  1.9346  0.9418 -1.8505
   26SAPC   C33 3480   1.118   5.668   6.964 -0.3491  0.8450  0.2731
   26SAPC   H3X 3481   1.025   5.615   6.934 -1.2267  1.0275  2.5278
   26SAPC   H3Y 3482   1.118   5.775   6.934 -0.1678 -0.0697 -3.5360
   26SAPC   C34 3483   1.116   5.642   7.114  0.1772 -0.2634 -0.4178
   26SAPC   H4X 3484   1.212   5.679   7.156 -0.1570  0.7651 -0.5213
   26SAPC   H4Y 3485   1.105   5.533   7.131  1.6329 -0.1193  1.9287
   26SAPC   C35 3486   1.006   5.727   7.184 -0.5003 -0.2895 -0.0937
   26SAPC   H5X 3487   0.907   5.690   7.151  0.3721 -0.2298 -3.0243
   26SAPC   H5Y 3488   1.014   5.833   7.152  2.3313 -0.0146  1.1977
   26SAPC   C36 3489   1.027   5.730   7.335 -0.6412  0.1336 -0.2286
   26SAPC   H6X 3490   1.117   5.788   7.365 -1.0545  1.8220 -2.0088
   26SAPC   H6Y 3491   1.035   5.628   7.379  0.9835  0.6581  0.7857
   26SAPC   C37 3492   0.921   5.817   7.405 -0.0795 -0.3774  0.0697
   26SAPC   H7X 3493   0.910   5.914   7.351 -0.5558  0.3142  1.3448
   26SAPC   H7Y 3494   0.945   5.845   7.510 -2.0851  1.4899  0.1051
   26SAPC   C38 3495   0.775   5.766   7.423 -0.4354  0.0336 -0.7483
   26SAPC   H8X 3496   0.742   5.734   7.322 -1.4581 -2.3032  0.2540
   26SAPC   H8Y 3497   0.706   5.848   7.453  0.2841 -0.2118  1.7496
   26SAPC   C39 3498   0.761   5.646   7.519  0.4157  0.1058 -0.2165
   26SAPC   H9X 3499   0.848   5.577   7.518  0.1565 -0.2248 -0.2818
   26SAPC   H9Y 3500   0.674   5.593   7.475  1.7639  0.2260 -3.2568
   26SAPC  C310 3501   0.734   5.689   7.666 -0.3156 -0.9019  0.2224
   26SAPC  H10X 3502   0.667   5.778   7.665 -0.0685 -0.7079  0.4544
   26SAPC  H10Y 3503   0.831   5.730   7.703 -0.0687 -1.2177 -0.0789
   26SAPC  C311 3504   0.663   5.588   7.759 -0.2876 -0.4421  0.7623
   26SAPC  H11X 3505   0.717   5.491   7.757 -0.2928 -0.4414 -1.1440
   26SAPC  H11Y 3506   0.560   5.572   7.723 -1.1629  1.0236  2.4336
   26SAPC  C312 3507   0.649   5.634   7.910 -0.5111 -0.0009  1.0056
   26SAPC  H12X 3508   0.554   5.600   7.956 -0.2773  1.3100  2.5650
   26SAPC  H12Y 3509   0.646   5.745   7.919  0.0312  0.1989 -0.8293
   26SAPC  C313 3510   0.749   5.570   8.010 -0.2349  0.3856 -0.1394
   26SAPC  H13X 3511   0.739   5.459   8.002 -1.3755  0.3372  1.2943
   26SAPC  H13Y 3512   0.720   5.606   8.111  0.1636 -1.4407  0.6798
   26SAPC  C314 3513   0.892   5.622   7.991  0.7424  0.1706  0.5428
   26SAPC  H14X 3514   0.890   5.733   7.985  0.7770  0.1155 -1.1507
   26SAPC  H14Y 3515   0.930   5.594   7.890 -1.6951  1.0123 -0.7052
   26SAPC  C315 3516   0.993   5.565   8.090 -0.2912  0.3592 -0.5236
   26SAPC  H15X 3517   0.993   5.617   8.188  1.5865 -2.6685  1.2569
   26SAPC  H15Y 3518   1.100   5.557   8.060 -0.4350 -0.3600 -0.8846
   26SAPC  C316 3519   0.967   5.415   8.120  0.3110  1.3298 -0.1916
   26SAPC  H16X 3520   0.935   5.365   8.026  1.3891  1.3264 -0.5798
   26SAPC  H16Y 3521   0.886   5.405   8.194  2.5897 -1.9832  2.1822
   26SAPC  C317 3522   1.080   5.329   8.181 -1.0905  0.2391 -0.0061
   26SAPC  H17X 3523   1.162   5.342   8.107 -2.0347  1.3457 -0.8933
   26SAPC  H17Y 3524   1.068   5.219   8.195 -1.0889  0.3833  1.2639
   26SAPC  C318 3525   1.128   5.374   8.320 -0.7093 -0.5046 -0.0972
   26SAPC  H18X 3526   1.155   5.481   8.310  0.3741 -0.6369  1.0693
   26SAPC  H18Y 3527   1.213   5.311   8.355 -0.7785 -0.0854  0.8681
   26SAPC  H18Z 3528   1.037   5.364   8.382 -0.0171  0.4656  1.1270
   27SAPC     N 3529   6.216   5.195   6.396 -0.6986  0.8373  0.8893
   27SAPC   C12 3530   6.144   5.197   6.523 -0.2851  0.1460  0.7836
   27SAPC  H12A 3531   6.043   5.163   6.508  0.2389 -2.0757  1.8557
   27SAPC  H12B 3532   6.143   5.298   6.561  0.1375  1.4793 -2.4624
   27SAPC   C13 3533   6.157   5.295   6.306 -0.8332  0.3436  0.1255
   27SAPC  H13A 3534   6.055   5.266   6.283 -0.6967  1.1097 -1.6489
   27SAPC  H13B 3535   6.162   5.397   6.342  0.7205  1.0452 -1.8230
   27SAPC  H13C 3536   6.213   5.298   6.213  0.2647  0.6033  0.7785
   27SAPC   C14 3537   6.359   5.231   6.408  0.6987 -0.3623  0.2538
   27SAPC  H14A 3538   6.413   5.220   6.315  0.8177  1.1485  0.1165
   27SAPC  H14B 3539   6.355   5.334   6.440  1.3676  0.2712 -1.6125
   27SAPC  H14C 3540   6.405   5.173   6.487 -0.6349  0.5751  1.7942
   27SAPC   C15 3541   6.205   5.068   6.325  0.0498  0.1535 -0.1379
   27SAPC  H15A 3542   6.283   5.067   6.251  1.3997 -0.8400  1.2282
   27SAPC  H15B 3543   6.233   4.993   6.398 -0.5955 -0.3217 -0.3756
   27SAPC  H15C 3544   6.104   5.053   6.289 -1.2641  4.9162  0.8512
   27SAPC   C11 3545   6.197   5.109   6.637 -0.2076 -0.1855  0.3839
   27SAPC  H11A 3546   6.137   5.129   6.729 -0.6196 -2.1029  0.5795
   27SAPC  H11B 3547   6.305   5.122   6.656  0.0001 -0.1205 -0.7730
   27SAPC     P 3548   6.049   4.890   6.614  0.4753  0.1340  0.4611
   27SAPC   O13 3549   5.929   4.977   6.624  0.2278 -1.2097  0.0748
   27SAPC   O14 3550   6.048   4.799   6.495  0.4764 -0.8518 -0.3089
   27SAPC   O12 3551   6.189   4.974   6.598 -0.5131  0.0122 -0.0082
   27SAPC   O11 3552   6.073   4.807   6.743 -0.5602 -0.0736 -0.3989
   27SAPC    C1 3553   6.205   4.746   6.764  0.5903 -0.0789 -0.4271
   27SAPC    HA 3554   6.284   4.823   6.760 -2.0060  2.8583  0.9887
   27SAPC    HB 3555   6.213   4.709   6.868  0.1191  0.4231 -0.2124
   27SAPC    C2 3556   6.245   4.623   6.672  0.2307 -0.2985 -0.1225
   27SAPC    HS 3557   6.233   4.641   6.563  1.3727  0.2747 -0.1685
   27SAPC   O21 3558   6.173   4.511   6.721  0.2480  0.1035 -0.4162
   27SAPC   C21 3559   6.183   4.396   6.661  0.8537  0.0985  0.0093
   27SAPC   O22 3560   6.244   4.375   6.558 -0.1401 -0.0387 -0.1475
   27SAPC   C22 3561   6.097   4.285   6.729 -0.0114 -0.4396 -0.5551
   27SAPC   H2R 3562   6.095   4.309   6.837  0.5148  0.4144 -0.7253
   27SAPC   H2S 3563   5.994   4.300   6.689  0.4913  1.4720 -1.1891
   27SAPC    C3 3564   6.399   4.598   6.687  0.0057 -0.7474  0.0471
   27SAPC    HX 3565   6.448   4.697   6.696 -0.1949 -0.7100  0.8148
   27SAPC    HY 3566   6.440   4.544   6.600  0.8890  0.0082 -0.0190
   27SAPC   O31 3567   6.422   4.529   6.813 -0.0295 -0.0303  0.2664
   27SAPC   C31 3568   6.538   4.475   6.833 -0.4756  0.0033 -0.6083
   27SAPC   O32 3569   6.633   4.488   6.760  0.0399 -0.2905  0.0690
   27SAPC   C32 3570   6.537   4.400   6.969  0.0814 -0.5276 -0.9519
   27SAPC   H2X 3571   6.581   4.462   7.049  0.4087 -0.6836 -1.0068
   27SAPC   H2Y 3572   6.605   4.311   6.966 -0.4575 -0.9437 -1.0495
   27SAPC   C23 3573   6.153   4.145   6.714  0.2824  0.6912  0.2143
   27SAPC   H3R 3574   6.240   4.125   6.779  1.0843  0.9689 -0.7466
   27SAPC   H3S 3575   6.186   4.131   6.609 -3.5402 -2.6111 -0.7749
   27SAPC   C24 3576   6.039   4.042   6.748  0.3210  0.1599 -0.6044
   27SAPC   H4R 3577   5.955   4.074   6.682  0.2423 -2.6059 -2.0089
   27SAPC   H4S 3578   6.019   4.060   6.856  0.1936  3.5257 -1.0613
   27SAPC   C25 3579   6.080   3.902   6.720 -0.0601  0.2841 -0.2086
   27SAPC   H5R 3580   6.162   3.894   6.646  0.7579  1.0789  0.5892
   27SAPC   C26 3581   6.051   3.790   6.790  0.1791  0.5234 -0.7152
   27SAPC   H6R 3582   6.073   3.698   6.733 -1.2024  0.7503 -1.6861
   27SAPC   C27 3583   5.973   3.779   6.918  0.4056  0.6828 -0.6634
   27SAPC   H7R 3584   5.906   3.690   6.912  1.4632 -0.4324  2.2189
   27SAPC   H7S 3585   5.905   3.864   6.940  0.5941  0.4267  1.1004
   27SAPC   C28 3586   6.057   3.763   7.049 -0.3406  1.1364  0.1730
   27SAPC   H8R 3587   6.136   3.686   7.042 -1.2752  0.0555  1.0719
   27SAPC   C29 3588   6.023   3.803   7.172  0.3262 -0.2446 -0.6454
   27SAPC   H9R 3589   6.106   3.797   7.244  0.8775  2.4067 -0.9359
   27SAPC  C210 3590   5.904   3.883   7.220  0.0143  0.3813  0.0956
   27SAPC  H10R 3591   5.880   3.943   7.129 -1.3142  1.8826  1.3841
   27SAPC  H10S 3592   5.948   3.958   7.288  0.2935 -1.5443  2.1532
   27SAPC  C211 3593   5.783   3.811   7.277 -0.3018  0.2674 -0.2027
   27SAPC  H11R 3594   5.726   3.760   7.197  0.6163  0.9783 -1.3495
   27SAPC  C212 3595   5.759   3.787   7.408 -0.0740  0.4706  0.6334
   27SAPC  H12R 3596   5.670   3.728   7.435 -0.9075 -0.4910 -3.5659
   27SAPC  C213 3597   5.843   3.839   7.517 -0.0500  0.6338  0.3533
   27SAPC  H13R 3598   5.946   3.857   7.478  0.2366 -3.0463 -0.9730
   27SAPC  H13S 3599   5.862   3.760   7.592  2.5848  0.4465 -0.3942
   27SAPC  C214 3600   5.792   3.969   7.576 -0.8240  0.6635  0.0761
   27SAPC  H14R 3601   5.812   4.048   7.501  2.0349 -1.2335 -1.3353
   27SAPC  C215 3602   5.762   3.998   7.707 -0.3949 -0.4992 -0.1083
   27SAPC  H15R 3603   5.736   4.104   7.724  1.7694 -0.0247  0.6326
   27SAPC  C216 3604   5.767   3.897   7.822  0.0517 -0.5148  0.0367
   27SAPC  H16R 3605   5.843   3.820   7.796  1.6317  0.3942  1.7439
   27SAPC  H16S 3606   5.664   3.860   7.840 -0.8153  1.1907 -1.1200
   27SAPC  C217 3607   5.826   3.947   7.956  0.7170 -1.1029  0.1712
   27SAPC  H17R 3608   5.779   4.040   7.994 -1.4296 -2.2309  0.3968
   27SAPC  H17S 3609   5.936   3.961   7.952  0.5744  0.6700  1.3515
   27SAPC  C218 3610   5.805   3.839   8.062 -0.0908 -0.0692  0.5183
   27SAPC  H18R 3611   5.702   3.818   8.098  0.3077 -2.3607  0.5108
   27SAPC  H18S 3612   5.864   3.872   8.150  0.6705 -0.9226  0.3524
   27SAPC  C219 3613   5.858   3.701   8.035 -0.0136  0.1217  0.2573
   27SAPC  H19R 3614   5.949   3.709   7.972  1.0681  0.4751  1.7856
   27SAPC  H19S 3615   5.791   3.630   7.983 -0.2484  0.0793  0.6104
   27SAPC  C220 3616   5.891   3.622   8.163 -0.7079 -0.3443 -0.0075
   27SAPC  H20R 3617   5.972   3.549   8.144 -0.5857  0.0873 -1.2214
   27SAPC  H20S 3618   5.799   3.562   8.182 -0.4039 -0.7465  0.2032
   27SAPC  H20T 3619   5.909   3.688   8.250  0.7886 -0.3294 -0.3046
   27SAPC   C33 3620   6.398   4.355   7.014  0.0631 -0.2923 -0.3021
   27SAPC   H3X 3621   6.347   4.300   6.932  2.6576 -0.1727 -2.1390
   27SAPC   H3Y 3622   6.338   4.447   7.034 -0.0823 -0.3692 -0.3851
   27SAPC   C34 3623   6.408   4.262   7.135  0.4000  0.8797 -0.1302
   27SAPC   H4X 3624   6.508   4.264   7.185 -0.4934  2.5450  1.7315
   27SAPC   H4Y 3625   6.389   4.158   7.102 -0.8578  0.4282  1.8575
   27SAPC   C35 3626   6.305   4.288   7.248  0.4500  0.0902  0.4191
   27SAPC   H5X 3627   6.210   4.277   7.193  0.4741 -1.9509  0.7073
   27SAPC   H5Y 3628   6.302   4.396   7.274 -0.6193  0.8993 -2.6206
   27SAPC   C36 3629   6.318   4.195   7.372 -0.0656 -0.1507  0.2254
   27SAPC   H6X 3630   6.387   4.250   7.438 -2.3771 -0.4179  3.0317
   27SAPC   H6Y 3631   6.370   4.103   7.337  0.5141  0.9394 -2.0142
   27SAPC   C37 3632   6.188   4.157   7.440 -0.3103  0.2011  0.5579
   27SAPC   H7X 3633   6.123   4.119   7.358 -0.2351  0.0295  0.5784
   27SAPC   H7Y 3634   6.140   4.250   7.476  0.0153 -0.1395  1.9264
   27SAPC   C38 3635   6.193   4.048   7.545 -0.0878  0.0546  0.0118
   27SAPC   H8X 3636   6.226   3.952   7.500  0.3994 -1.7038  3.6949
   27SAPC   H8Y 3637   6.091   4.030   7.584  0.6253 -1.4121  1.3098
   27SAPC   C39 3638   6.274   4.088   7.672 -0.6066 -0.1501 -0.5832
   27SAPC   H9X 3639   6.326   4.185   7.657 -2.1286  0.8463  0.3929
   27SAPC   H9Y 3640   6.341   4.003   7.700 -0.8042  0.1008  0.7173
   27SAPC  C310 3641   6.187   4.099   7.804 -0.5464 -0.5681  0.0867
   27SAPC  H10X 3642   6.117   4.016   7.827 -0.6028 -0.5148  0.1056
   27SAPC  H10Y 3643   6.121   4.188   7.799 -0.0800 -0.2904 -2.8197
   27SAPC  C311 3644   6.280   4.111   7.922  0.2487 -0.0058 -0.2256
   27SAPC  H11X 3645   6.358   4.186   7.897  0.3330 -0.6222 -1.9245
   27SAPC  H11Y 3646   6.323   4.010   7.937  0.0373 -0.2551 -1.2401
   27SAPC  C312 3647   6.209   4.155   8.051  0.7653 -0.2497  0.0306
   27SAPC  H12X 3648   6.117   4.098   8.079  0.0407  0.7270 -0.2952
   27SAPC  H12Y 3649   6.177   4.259   8.031  0.0897 -0.8141 -2.1875
   27SAPC  C313 3650   6.298   4.134   8.173 -0.2589 -0.2526 -0.0185
   27SAPC  H13X 3651   6.396   4.186   8.170 -0.1540 -0.1470  2.9451
   27SAPC  H13Y 3652   6.338   4.032   8.189  2.6168  0.9125  0.7266
   27SAPC  C314 3653   6.228   4.189   8.298  0.0358 -0.1760 -0.2685
   27SAPC  H14X 3654   6.192   4.294   8.290  0.5583  0.0102 -0.2336
   27SAPC  H14Y 3655   6.309   4.190   8.374  0.9734 -0.0337 -1.2438
   27SAPC  C315 3656   6.111   4.098   8.345  0.2684 -0.1013 -0.1702
   27SAPC  H15X 3657   6.033   4.083   8.267 -0.4258  3.1615 -0.2228
   27SAPC  H15Y 3658   6.059   4.152   8.427  0.5982 -0.9743  0.6359
   27SAPC  C316 3659   6.139   3.956   8.403 -0.0537 -0.3154 -0.0438
   27SAPC  H16X 3660   6.178   3.894   8.320  0.9390  1.2754 -0.8334
   27SAPC  H16Y 3661   6.046   3.921   8.452  0.0592  0.9018  1.1291
   27SAPC  C317 3662   6.258   3.957   8.504  0.1311  0.0809 -0.3554
   27SAPC  H17X 3663   6.231   4.025   8.588  0.7550 -1.2489  0.9535
   27SAPC  H17Y 3664   6.342   4.008   8.451  1.5618 -0.5082  1.2384
   27SAPC  C318 3665   6.289   3.816   8.551  0.8577 -0.0896 -0.2683
   27SAPC  H18X 3666   6.345   3.813   8.647 -1.2348  1.2810  1.1056
   27SAPC  H18Y 3667   6.336   3.758   8.470 -3.0545  0.1194 -2.9816
   27SAPC  H18Z 3668   6.195   3.765   8.582 -0.0722  0.9767 -1.2347
   28SAPC     N 3669   6.542   2.672   6.143  0.5716 -0.2330 -0.0969
   28SAPC   C12 3670   6.592   2.535   6.193 -0.0649 -0.5475  0.2125
   28SAPC  H12A 3671   6.641   2.485   6.111  1.4616 -0.7698  1.2196
   28SAPC  H12B 3672   6.511   2.471   6.225 -0.2048 -0.2391  0.4858
   28SAPC   C13 3673   6.458   2.745   6.247 -0.0558  0.2268  0.3789
   28SAPC  H13A 3674   6.441   2.847   6.216  0.3409 -0.1531 -1.1763
   28SAPC  H13B 3675   6.359   2.701   6.250 -0.3782  0.7794 -1.2642
   28SAPC  H13C 3676   6.511   2.733   6.340  1.2550 -1.0937 -0.4888
   28SAPC   C14 3677   6.656   2.749   6.080  0.3716 -0.2431 -0.6513
   28SAPC  H14A 3678   6.615   2.848   6.071 -0.9251  0.0804  5.1372
   28SAPC  H14B 3679   6.734   2.759   6.154  0.0896  2.1301 -0.5984
   28SAPC  H14C 3680   6.695   2.695   5.994  2.6506 -0.4310  0.4183
   28SAPC   C15 3681   6.442   2.643   6.033  0.2773 -0.3400  0.2093
   28SAPC  H15A 3682   6.378   2.721   5.993 -1.1692 -1.3808  0.4089
   28SAPC  H15B 3683   6.496   2.605   5.948 -0.8622 -0.9691 -0.2503
   28SAPC  H15C 3684   6.376   2.563   6.064  0.2120  0.2255  1.6396
   28SAPC   C11 3685   6.695   2.535   6.303  0.1589  0.0644 -0.0656
   28SAPC  H11A 3686   6.697   2.441   6.362 -2.5931  1.3824  2.4009
   28SAPC  H11B 3687   6.668   2.621   6.369 -1.1655  1.1729 -1.9829
   28SAPC     P 3688   6.938   2.466   6.283  0.8558  0.0291 -0.1569
   28SAPC   O13 3689   6.897   2.323   6.270 -0.0304 -0.2556  0.0592
   28SAPC   O14 3690   7.053   2.508   6.200  0.5559  0.0746  0.1871
   28SAPC   O12 3691   6.822   2.552   6.245 -0.4432  0.1291 -0.3991
   28SAPC   O11 3692   6.965   2.504   6.433 -0.2970 -0.7279 -0.0521
   28SAPC    C1 3693   6.896   2.434   6.534  1.1121 -0.9635 -0.1231
   28SAPC    HA 3694   6.812   2.499   6.565  2.9732  1.3783  0.3537
   28SAPC    HB 3695   6.871   2.329   6.510 -1.3728 -0.2901 -0.7179
   28SAPC    C2 3696   6.984   2.448   6.656 -0.1230 -0.9631 -0.5959
   28SAPC    HS 3697   7.065   2.372   6.649 -0.5881 -1.8060  1.8668
   28SAPC   O21 3698   6.902   2.424   6.778  0.0979  0.6900 -0.1912
   28SAPC   C21 3699   6.862   2.293   6.789  0.0299  0.5927 -0.4028
   28SAPC   O22 3700   6.898   2.202   6.719  0.2755 -0.4878  0.7078
   28SAPC   C22 3701   6.768   2.291   6.912  0.3126  0.3362 -0.3524
   28SAPC   H2R 3702   6.773   2.390   6.962 -1.0820  0.6600 -0.8220
   28SAPC   H2S 3703   6.670   2.304   6.862  0.2093 -1.4672 -0.6757
   28SAPC    C3 3704   7.062   2.584   6.668 -0.5736 -0.0144  0.5040
   28SAPC    HX 3705   6.991   2.665   6.697 -0.6599 -0.1870  0.7907
   28SAPC    HY 3706   7.107   2.614   6.572  1.5945  0.6516  1.6580
   28SAPC   O31 3707   7.166   2.568   6.774 -0.2232  0.4668  0.2804
   28SAPC   C31 3708   7.284   2.600   6.746 -0.6169 -0.0747  0.0100
   28SAPC   O32 3709   7.321   2.665   6.650  0.0900  0.1771  0.0561
   28SAPC   C32 3710   7.373   2.549   6.860  0.4528 -0.0200  0.1734
   28SAPC   H2X 3711   7.318   2.584   6.950 -1.1728  1.9254 -1.4822
   28SAPC   H2Y 3712   7.477   2.587   6.846  0.6861 -1.1753 -1.5776
   28SAPC   C23 3713   6.793   2.186   7.022 -0.2262 -0.0632  0.2537
   28SAPC   H3R 3714   6.901   2.173   7.043 -0.1037 -2.0050 -1.2542
   28SAPC   H3S 3715   6.773   2.088   6.973  1.7663  0.1781 -1.1498
   28SAPC   C24 3716   6.706   2.202   7.152  0.0147  0.1707  0.3018
   28SAPC   H4R 3717   6.717   2.309   7.177 -2.3652  0.6656 -0.4910
   28SAPC   H4S 3718   6.601   2.176   7.125  0.1491 -2.1993  1.7675
   28SAPC   C25 3719   6.731   2.097   7.260 -0.2251 -0.1584  0.6648
   28SAPC   H5R 3720   6.772   2.006   7.214  1.2147  1.3298 -1.1719
   28SAPC   C26 3721   6.720   2.101   7.391  0.3180  0.0946 -0.8181
   28SAPC   H6R 3722   6.753   2.016   7.454 -0.0785  1.3611  1.1674
   28SAPC   C27 3723   6.672   2.216   7.478 -0.6728 -0.0680 -0.3256
   28SAPC   H7R 3724   6.747   2.296   7.464  1.3194 -0.8008  4.2962
   28SAPC   H7S 3725   6.679   2.190   7.586  0.9466  1.7951  0.0780
   28SAPC   C28 3726   6.541   2.287   7.453 -0.1978 -0.1313  0.0923
   28SAPC   H8R 3727   6.521   2.314   7.348  4.0604  0.5159 -0.7238
   28SAPC   C29 3728   6.455   2.308   7.553 -0.7700 -0.3228 -1.0471
   28SAPC   H9R 3729   6.358   2.357   7.534 -0.5095  0.3352 -0.7091
   28SAPC  C210 3730   6.475   2.259   7.693  0.2554 -0.2691  0.7777
   28SAPC  H10R 3731   6.505   2.152   7.685 -1.6468 -0.7444 -0.9860
   28SAPC  H10S 3732   6.378   2.254   7.747  1.6648  0.1310  3.5182
   28SAPC  C211 3733   6.578   2.334   7.782 -0.0154  0.4707  0.1054
   28SAPC  H11R 3734   6.680   2.326   7.743 -0.7984 -0.7115 -1.8516
   28SAPC  C212 3735   6.556   2.406   7.899 -0.2414  0.4168  0.4159
   28SAPC  H12R 3736   6.638   2.457   7.952 -0.1177 -1.3774  2.0840
   28SAPC  C213 3737   6.422   2.420   7.964 -0.1834 -0.4851  0.0613
   28SAPC  H13R 3738   6.457   2.444   8.067  2.5596 -1.1397 -0.6387
   28SAPC  H13S 3739   6.357   2.330   7.968  0.0072 -0.5880  2.2615
   28SAPC  C214 3740   6.341   2.533   7.915  0.7403 -0.5925 -0.3938
   28SAPC  H14R 3741   6.362   2.564   7.811  0.1085  2.4659  0.2905
   28SAPC  C215 3742   6.252   2.597   7.986 -0.2959  0.0384  0.4534
   28SAPC  H15R 3743   6.197   2.684   7.947 -0.9793 -0.6917 -0.2539
   28SAPC  C216 3744   6.230   2.579   8.132  0.3782 -0.0701  0.3398
   28SAPC  H16R 3745   6.262   2.482   8.174 -1.1018 -0.1392  1.3775
   28SAPC  H16S 3746   6.120   2.581   8.149  0.2152  1.3020 -0.6877
   28SAPC  C217 3747   6.281   2.700   8.212  0.4661  0.3307  0.4318
   28SAPC  H17R 3748   6.242   2.685   8.316  0.2475  0.1973  0.3310
   28SAPC  H17S 3749   6.225   2.785   8.166  0.0903  0.4358  1.0657
   28SAPC  C218 3750   6.433   2.723   8.218 -0.1353 -0.3721  0.1285
   28SAPC  H18R 3751   6.496   2.724   8.126 -1.0552  1.3922 -0.5348
   28SAPC  H18S 3752   6.478   2.642   8.280 -0.3196 -0.5359  0.0495
   28SAPC  C219 3753   6.465   2.857   8.301  0.1313 -0.3135  0.1020
   28SAPC  H19R 3754   6.439   2.942   8.235  0.1143 -1.1637 -1.0109
   28SAPC  H19S 3755   6.574   2.868   8.322  0.0380 -1.3726  1.2631
   28SAPC  C220 3756   6.391   2.863   8.443  0.4917  0.7661  0.3974
   28SAPC  H20R 3757   6.446   2.927   8.515  1.5726 -1.8790  2.0711
   28SAPC  H20S 3758   6.393   2.762   8.489 -0.1438  0.1805 -0.7911
   28SAPC  H20T 3759   6.285   2.897   8.441  0.4824  0.7735  1.0073
   28SAPC   C33 3760   7.396   2.397   6.859  0.4825  0.2640  0.0212
   28SAPC   H3X 3761   7.462   2.360   6.778 -0.7665  0.2718 -1.0448
   28SAPC   H3Y 3762   7.299   2.343   6.846 -0.2606  1.2152  1.3390
   28SAPC   C34 3763   7.480   2.358   6.990 -0.2627 -0.2911 -0.9593
   28SAPC   H4X 3764   7.553   2.439   7.007 -0.2400 -0.5599  0.2743
   28SAPC   H4Y 3765   7.533   2.266   6.956 -0.5441  0.5003 -3.8406
   28SAPC   C35 3766   7.392   2.326   7.112  0.3960  0.2708 -0.0793
   28SAPC   H5X 3767   7.319   2.247   7.084  0.1558 -0.2428  1.8633
   28SAPC   H5Y 3768   7.325   2.408   7.144  1.3548  1.2264 -0.4464
   28SAPC   C36 3769   7.465   2.278   7.240  0.0173 -0.7633  0.3978
   28SAPC   H6X 3770   7.385   2.287   7.317  1.3141 -1.8526  1.9163
   28SAPC   H6Y 3771   7.546   2.345   7.273 -0.7470 -0.3429  1.4698
   28SAPC   C37 3772   7.518   2.135   7.232  0.4151 -0.0772 -0.3460
   28SAPC   H7X 3773   7.574   2.106   7.140  2.5623 -3.8786  1.8956
   28SAPC   H7Y 3774   7.428   2.070   7.223 -0.4807  1.3211 -2.3014
   28SAPC   C38 3775   7.598   2.095   7.359  0.1546  0.3612  0.4756
   28SAPC   H8X 3776   7.542   2.142   7.443  0.1787  1.0746  0.0954
   28SAPC   H8Y 3777   7.697   2.147   7.364 -0.5562  1.7605  0.4569
   28SAPC   C39 3778   7.612   1.947   7.373 -0.1982 -0.1401  0.1449
   28SAPC   H9X 3779   7.664   1.916   7.280  0.0735  0.2147  0.1753
   28SAPC   H9Y 3780   7.521   1.883   7.382  1.6098 -3.5323 -3.0288
   28SAPC  C310 3781   7.715   1.913   7.490  0.8761  0.4240  0.7894
   28SAPC  H10X 3782   7.813   1.958   7.462  0.2599  1.2140 -0.1656
   28SAPC  H10Y 3783   7.736   1.804   7.494  1.0101  0.4627  1.1770
   28SAPC  C311 3784   7.677   1.950   7.629  0.5028  0.2353 -0.0548
   28SAPC  H11X 3785   7.653   2.059   7.624  2.1697  0.5886 -2.9917
   28SAPC  H11Y 3786   7.762   1.937   7.699  0.9895 -0.2399 -0.7120
   28SAPC  C312 3787   7.564   1.859   7.687 -0.1009 -0.4582  0.0987
   28SAPC  H12X 3788   7.609   1.759   7.702 -0.1386 -0.0288  4.5590
   28SAPC  H12Y 3789   7.476   1.845   7.621 -0.3383  1.9979 -0.1874
   28SAPC  C313 3790   7.513   1.920   7.819  0.7748 -0.4368  0.0576
   28SAPC  H13X 3791   7.477   2.022   7.794 -0.2942 -1.1908 -1.6581
   28SAPC  H13Y 3792   7.602   1.938   7.882 -0.0811  0.3451  1.0908
   28SAPC  C314 3793   7.420   1.831   7.905 -0.1974 -0.3152  0.2649
   28SAPC  H14X 3794   7.487   1.746   7.932  2.0676  0.8569 -1.3867
   28SAPC  H14Y 3795   7.337   1.795   7.841  0.3070 -0.8947 -0.0705
   28SAPC  C315 3796   7.348   1.908   8.022 -0.9760  0.8307  0.1545
   28SAPC  H15X 3797   7.321   2.006   7.976 -2.1995 -0.0425 -1.0442
   28SAPC  H15Y 3798   7.427   1.931   8.096  2.4033 -2.6005 -2.0055
   28SAPC  C316 3799   7.228   1.827   8.060  1.0218  0.1686  0.3529
   28SAPC  H16X 3800   7.258   1.724   8.089 -0.4533 -0.1811  0.7189
   28SAPC  H16Y 3801   7.153   1.831   7.978  0.6063  1.6684  0.7665
   28SAPC  C317 3802   7.164   1.889   8.182  0.1694  0.1211  0.2244
   28SAPC  H17X 3803   7.143   1.995   8.158 -1.7106 -0.1152  0.6434
   28SAPC  H17Y 3804   7.224   1.896   8.275 -0.7870  1.0714  0.7802
   28SAPC  C318 3805   7.030   1.824   8.221 -0.0672 -0.7336 -0.5976
   28SAPC  H18X 3806   6.968   1.893   8.281  0.5984 -2.0608  1.7333
   28SAPC  H18Y 3807   7.058   1.742   8.290  1.2821 -0.2821 -0.5730
   28SAPC  H18Z 3808   6.970   1.798   8.131 -1.6392 -1.7656  0.7040
   29SAPC     N 3809   0.143   5.352   5.983 -0.7062 -0.1284  0.4218
   29SAPC   C12 3810   0.162   5.485   6.044  0.4606 -0.2816  0.5018
   29SAPC  H12A 3811   0.097   5.490   6.130  2.1482 -1.9263  1.9507
   29SAPC  H12B 3812   0.137   5.566   5.977  0.5498 -1.4594 -1.0036
   29SAPC   C13 3813   0.247   5.320   5.883 -0.1311  0.6239  0.4844
   29SAPC  H13A 3814   0.345   5.300   5.925 -0.7341 -0.8800  1.2768
   29SAPC  H13B 3815   0.228   5.235   5.818 -0.8964  0.7191  0.5749
   29SAPC  H13C 3816   0.263   5.403   5.816  0.9106 -0.3252 -0.4973
   29SAPC   C14 3817   0.147   5.244   6.089  0.0355  0.4678  0.0132
   29SAPC  H14A 3818   0.109   5.154   6.042  0.9647 -0.1421  0.3914
   29SAPC  H14B 3819   0.246   5.228   6.130  0.0122 -0.5178 -0.2927
   29SAPC  H14C 3820   0.087   5.281   6.171  0.7536  0.8006  0.4032
   29SAPC   C15 3821   0.005   5.340   5.923 -0.1960  0.4053 -0.3737
   29SAPC  H15A 3822  -0.011   5.401   5.836 -2.6983 -0.3844 -0.5311
   29SAPC  H15B 3823  -0.008   5.236   5.896 -0.8587  0.8051 -1.6610
   29SAPC  H15C 3824  -0.072   5.368   5.994 -1.5010 -1.8951 -0.7728
   29SAPC   C11 3825   0.305   5.517   6.094 -0.4686 -0.1499 -0.0826
   29SAPC  H11A 3826   0.295   5.614   6.147 -1.1751 -1.2510  1.9181
   29SAPC  H11B 3827   0.353   5.538   5.996 -1.5598 -0.2110 -0.6441
   29SAPC     P 3828   0.371   5.430   6.329  0.0911  0.2083  0.1480
   29SAPC   O13 3829   0.259   5.520   6.374  0.4016 -0.2605 -0.0632
   29SAPC   O14 3830   0.370   5.294   6.383 -0.5780 -0.0528  0.3494
   29SAPC   O12 3831   0.372   5.413   6.171 -0.0389  0.1927  0.0572
   29SAPC   O11 3832   0.510   5.502   6.350 -0.5014  0.2592  0.1259
   29SAPC    C1 3833   0.620   5.443   6.410 -0.4317 -0.4499 -0.1612
   29SAPC    HA 3834   0.632   5.338   6.377  0.8603 -0.6790  0.9280
   29SAPC    HB 3835   0.707   5.511   6.402  0.1155 -1.1734 -0.4564
   29SAPC    C2 3836   0.611   5.435   6.566 -0.7431 -0.0513 -0.9830
   29SAPC    HS 3837   0.545   5.347   6.583  0.5678 -0.8607  0.0695
   29SAPC   O21 3838   0.562   5.559   6.617 -0.0012  0.2455 -0.0187
   29SAPC   C21 3839   0.470   5.558   6.717 -0.0087  0.2187  0.4859
   29SAPC   O22 3840   0.431   5.458   6.775  0.1938 -0.5086  0.2359
   29SAPC   C22 3841   0.396   5.695   6.719 -0.0415 -0.4969 -0.3559
   29SAPC   H2R 3842   0.468   5.770   6.680  1.8561 -1.5515  1.0137
   29SAPC   H2S 3843   0.309   5.687   6.649 -2.2978 -0.2162  2.2552
   29SAPC    C3 3844   0.747   5.385   6.636  0.0929  0.4477 -0.1026
   29SAPC    HX 3845   0.818   5.470   6.627  0.4852  0.0607 -0.7115
   29SAPC    HY 3846   0.804   5.316   6.570 -0.8168  1.3967 -1.9662
   29SAPC   O31 3847   0.720   5.327   6.771 -0.2998  0.3800 -0.2981
   29SAPC   C31 3848   0.757   5.406   6.874 -0.3740 -0.4623  0.0659
   29SAPC   O32 3849   0.797   5.520   6.865 -0.1061  0.2510 -0.1574
   29SAPC   C32 3850   0.753   5.321   7.002 -0.6986  0.0998 -0.4123
   29SAPC   H2X 3851   0.779   5.218   6.968 -1.3584 -0.3638  0.4643
   29SAPC   H2Y 3852   0.647   5.310   7.030 -0.9287 -2.0080 -1.8572
   29SAPC   C23 3853   0.339   5.744   6.857  0.1341  0.5972  0.5272
   29SAPC   H3R 3854   0.287   5.657   6.902  1.0931  1.3583  3.2835
   29SAPC   H3S 3855   0.269   5.826   6.832  0.9865  1.2683  0.3075
   29SAPC   C24 3856   0.444   5.814   6.951  0.6986  0.2272  0.2305
   29SAPC   H4R 3857   0.392   5.880   7.023 -0.8332  0.3973 -0.9762
   29SAPC   H4S 3858   0.496   5.888   6.886 -1.3379  1.6195  0.1024
   29SAPC   C25 3859   0.559   5.725   7.003 -1.0491  0.1943 -0.5256
   29SAPC   H5R 3860   0.654   5.727   6.947  1.4827 -0.3609  3.3940
   29SAPC   C26 3861   0.554   5.645   7.114  0.0807 -0.4570  0.9377
   29SAPC   H6R 3862   0.625   5.567   7.144 -0.8981 -1.1807  1.4287
   29SAPC   C27 3863   0.425   5.623   7.197 -0.3948 -0.2691  0.2252
   29SAPC   H7R 3864   0.433   5.530   7.257 -1.7937 -0.2983  0.4142
   29SAPC   H7S 3865   0.328   5.628   7.143 -0.7343  0.0966  0.8508
   29SAPC   C28 3866   0.404   5.735   7.302 -0.5558  0.0492 -0.4114
   29SAPC   H8R 3867   0.458   5.829   7.282  0.9046  0.0190  2.7843
   29SAPC   C29 3868   0.364   5.720   7.434  0.1451 -0.0186 -0.7022
   29SAPC   H9R 3869   0.353   5.803   7.505 -1.0030 -2.9328  2.8430
   29SAPC  C210 3870   0.327   5.587   7.497 -0.1464 -0.5082  0.1192
   29SAPC  H10R 3871   0.407   5.561   7.569  1.1103 -1.9694 -1.7193
   29SAPC  H10S 3872   0.327   5.497   7.432 -3.9228  0.0429 -0.9061
   29SAPC  C211 3873   0.196   5.595   7.561  0.0870 -0.2358 -0.5295
   29SAPC  H11R 3874   0.116   5.622   7.490  1.4706  0.1887 -2.0063
   29SAPC  C212 3875   0.159   5.560   7.685 -0.0156  0.9868  0.4214
   29SAPC  H12R 3876   0.054   5.574   7.716  0.6319  2.2446  2.1505
   29SAPC  C213 3877   0.249   5.510   7.795  0.2954  0.0017 -0.4816
   29SAPC  H13R 3878   0.352   5.487   7.758 -0.2286 -1.1217 -1.3173
   29SAPC  H13S 3879   0.214   5.410   7.829  0.1835 -0.1265 -0.9676
   29SAPC  C214 3880   0.260   5.623   7.901  0.2099 -0.4269  0.9832
   29SAPC  H14R 3881   0.299   5.720   7.865  0.7267 -1.0128 -0.1115
   29SAPC  C215 3882   0.202   5.617   8.022  0.6283 -0.3978  0.4310
   29SAPC  H15R 3883   0.217   5.698   8.095 -0.9724  0.8373 -0.5326
   29SAPC  C216 3884   0.129   5.499   8.076 -0.4647  0.4105 -0.4397
   29SAPC  H16R 3885   0.166   5.399   8.045  0.2095 -0.7970  3.6512
   29SAPC  H16S 3886   0.027   5.503   8.031  0.0472  3.1072 -1.5320
   29SAPC  C217 3887   0.133   5.486   8.228  0.4380 -0.5823  0.2844
   29SAPC  H17R 3888   0.106   5.578   8.282  1.1309 -0.7393  0.9081
   29SAPC  H17S 3889   0.241   5.477   8.254  0.6816  0.9671 -0.0943
   29SAPC  C218 3890   0.060   5.359   8.283  0.2229 -0.4284  0.3017
   29SAPC  H18R 3891   0.133   5.280   8.253  0.1716  0.0065 -1.0414
   29SAPC  H18S 3892  -0.040   5.349   8.237 -0.2552  0.9544  0.9859
   29SAPC  C219 3893   0.044   5.357   8.427 -0.0954  0.1151 -0.1811
   29SAPC  H19R 3894   0.011   5.453   8.474  1.1695 -0.4896  2.1416
   29SAPC  H19S 3895   0.147   5.347   8.468  0.2336  1.2947 -0.6829
   29SAPC  C220 3896  -0.015   5.227   8.474 -0.0571  0.9160  0.0512
   29SAPC  H20R 3897  -0.125   5.220   8.458 -0.2051  1.7641  0.6067
   29SAPC  H20S 3898   0.006   5.216   8.582  0.0308 -3.5132 -0.2388
   29SAPC  H20T 3899   0.027   5.145   8.412 -0.1166 -1.1880  2.6339
   29SAPC   C33 3900   0.830   5.376   7.111 -0.8417  0.3402 -0.4858
   29SAPC   H3X 3901   0.792   5.477   7.137 -0.8598  0.1033  0.4353
   29SAPC   H3Y 3902   0.934   5.389   7.072 -1.2942  1.8539 -1.2631
   29SAPC   C34 3903   0.817   5.311   7.252 -0.0412  0.5034 -0.1250
   29SAPC   H4X 3904   0.890   5.365   7.316 -0.2824  1.3745 -0.5685
   29SAPC   H4Y 3905   0.842   5.203   7.241 -0.9680  0.2919 -0.2434
   29SAPC   C35 3906   0.680   5.322   7.316  0.2202 -0.0207  0.4086
   29SAPC   H5X 3907   0.610   5.258   7.258  1.7033 -0.5006 -0.9174
   29SAPC   H5Y 3908   0.649   5.428   7.323 -2.7047 -0.8102  0.6418
   29SAPC   C36 3909   0.682   5.272   7.459  0.5707  0.2351  0.0580
   29SAPC   H6X 3910   0.729   5.355   7.515 -1.0574  0.9136  0.4725
   29SAPC   H6Y 3911   0.734   5.174   7.457  0.8404  0.3861 -1.3255
   29SAPC   C37 3912   0.532   5.240   7.506  0.1816  0.6568 -0.6516
   29SAPC   H7X 3913   0.495   5.163   7.435 -1.2369 -0.6762  1.4147
   29SAPC   H7Y 3914   0.468   5.331   7.511  0.2581  0.6605  2.2325
   29SAPC   C38 3915   0.546   5.188   7.647  0.3423  0.9969 -0.5795
   29SAPC   H8X 3916   0.596   5.261   7.715 -0.2135  0.3074  0.6134
   29SAPC   H8Y 3917   0.617   5.103   7.645 -0.9976 -0.2017  0.5041
   29SAPC   C39 3918   0.416   5.142   7.714  1.0873 -0.0919  0.0796
   29SAPC   H9X 3919   0.362   5.056   7.671 -3.2571  2.1423  0.5256
   29SAPC   H9Y 3920   0.331   5.214   7.707  0.1503 -1.1257  0.6573
   29SAPC  C310 3921   0.432   5.108   7.864  0.2815 -0.1395  0.1315
   29SAPC  H10X 3922   0.521   5.043   7.877  0.3352 -0.4911 -1.6266
   29SAPC  H10Y 3923   0.340   5.057   7.900 -0.1219  1.6965  1.8763
   29SAPC  C311 3924   0.445   5.238   7.954 -0.4580  0.3882  0.7591
   29SAPC  H11X 3925   0.374   5.320   7.932  1.2194  1.7826  0.3050
   29SAPC  H11Y 3926   0.548   5.270   7.926 -1.5630  1.2588 -2.8547
   29SAPC  C312 3927   0.439   5.214   8.109 -0.0696  0.9114 -0.5536
   29SAPC  H12X 3928   0.356   5.144   8.132  0.6189  0.1845 -0.2250
   29SAPC  H12Y 3929   0.423   5.311   8.161  1.6594 -0.2776  2.5163
   29SAPC  C313 3930   0.572   5.157   8.165 -0.0644 -0.2471 -0.1510
   29SAPC  H13X 3931   0.661   5.213   8.129 -0.6481  0.9913  0.2787
   29SAPC  H13Y 3932   0.593   5.055   8.127 -1.3515 -0.4530 -0.3543
   29SAPC  C314 3933   0.574   5.153   8.322 -0.4702 -0.6001 -0.2759
   29SAPC  H14X 3934   0.626   5.060   8.353 -1.1773 -0.7826  0.4188
   29SAPC  H14Y 3935   0.472   5.131   8.359 -0.0719 -1.1646  0.5118
   29SAPC  C315 3936   0.646   5.272   8.392 -0.1318 -0.8211 -0.1141
   29SAPC  H15X 3937   0.601   5.366   8.353 -0.0678  0.0864  1.8481
   29SAPC  H15Y 3938   0.752   5.279   8.360 -0.1413  0.6913  0.0816
   29SAPC  C316 3939   0.645   5.259   8.542  0.4814 -0.9355 -0.1184
   29SAPC  H16X 3940   0.692   5.164   8.575  0.5221 -0.4374  1.3406
   29SAPC  H16Y 3941   0.541   5.258   8.581 -0.2800  0.8307 -1.9091
   29SAPC  C317 3942   0.712   5.372   8.616  0.9886 -0.6791 -0.0516
   29SAPC  H17X 3943   0.812   5.382   8.569  0.9841 -0.3106  0.0158
   29SAPC  H17Y 3944   0.732   5.347   8.722  1.4663 -2.3506 -0.5119
   29SAPC  C318 3945   0.639   5.505   8.608  0.5596  0.5110 -0.4558
   29SAPC  H18X 3946   0.621   5.546   8.506 -1.5523 -1.1987 -0.8377
   29SAPC  H18Y 3947   0.690   5.584   8.667 -0.9814  1.5709 -0.4632
   29SAPC  H18Z 3948   0.543   5.487   8.662  1.2451 -0.3819  0.4999
   30SAPC     N 3949   1.903   5.291   5.780 -0.1526  0.6184 -0.6661
   30SAPC   C12 3950   1.897   5.258   5.934 -0.5929 -0.4987  0.2884
   30SAPC  H12A 3951   1.961   5.172   5.947 -3.1456 -2.6165 -0.1613
   30SAPC  H12B 3952   1.796   5.229   5.960 -1.2113  0.2579 -1.1566
   30SAPC   C13 3953   2.043   5.336   5.746 -0.1458  0.0488  0.4031
   30SAPC  H13A 3954   2.117   5.260   5.766  0.9911  1.0714  0.2650
   30SAPC  H13B 3955   2.038   5.369   5.643 -0.2232  1.4331  0.8193
   30SAPC  H13C 3956   2.071   5.422   5.806 -1.6781  1.0708 -0.2821
   30SAPC   C14 3957   1.867   5.172   5.701  0.3924 -0.6851 -0.0392
   30SAPC  H14A 3958   1.761   5.155   5.689  0.4834  0.1281 -2.5045
   30SAPC  H14B 3959   1.894   5.185   5.597 -0.1697  0.7759 -0.0348
   30SAPC  H14C 3960   1.905   5.077   5.736  1.6050 -0.2302 -0.0782
   30SAPC   C15 3961   1.816   5.409   5.747  0.1253 -0.6873  0.5461
   30SAPC  H15A 3962   1.873   5.492   5.786  3.3108 -1.2307 -2.4833
   30SAPC  H15B 3963   1.808   5.428   5.641 -1.2788  2.6852  1.1303
   30SAPC  H15C 3964   1.717   5.413   5.789  1.2943 -1.3438  3.6376
   30SAPC   C11 3965   1.937   5.356   6.046 -0.4162  0.4694  0.3904
   30SAPC  H11A 3966   1.966   5.299   6.138 -1.6589  0.7181  0.9515
   30SAPC  H11B 3967   1.841   5.407   6.070 -0.2576 -0.4342  3.4496
   30SAPC     P 3968   2.050   5.589   6.036 -0.5141  0.4750  0.6341
   30SAPC   O13 3969   2.189   5.639   6.024  0.0012  0.2098  0.3869
   30SAPC   O14 3970   1.951   5.665   5.957 -0.1327  0.7445  0.5014
   30SAPC   O12 3971   2.037   5.438   6.002 -0.2036  0.1090 -0.4338
   30SAPC   O11 3972   2.019   5.606   6.187  0.7389  0.6263 -0.5695
   30SAPC    C1 3973   2.100   5.604   6.297 -0.3316 -0.2804 -0.7698
   30SAPC    HA 3974   2.182   5.532   6.276  0.0425 -0.4282  1.0768
   30SAPC    HB 3975   2.160   5.697   6.309  1.0485 -1.3132  0.7350
   30SAPC    C2 3976   2.032   5.543   6.423 -1.1264 -0.4219  0.4368
   30SAPC    HS 3977   2.101   5.566   6.507  2.0886 -0.7136 -1.9224
   30SAPC   O21 3978   2.016   5.400   6.405 -0.1772 -0.3194 -0.1889
   30SAPC   C21 3979   2.134   5.340   6.415  0.7318  1.4580  0.3467
   30SAPC   O22 3980   2.233   5.390   6.461 -0.6666  0.3430 -0.0572
   30SAPC   C22 3981   2.111   5.196   6.388 -0.2935  1.3236 -0.3221
   30SAPC   H2R 3982   2.012   5.162   6.426 -1.6237  3.4887 -1.6512
   30SAPC   H2S 3983   2.106   5.184   6.278  1.3356 -0.6057 -0.2547
   30SAPC    C3 3984   1.891   5.603   6.429  0.0586 -0.7447  0.3170
   30SAPC    HX 3985   1.840   5.565   6.339  1.6395  2.1300 -1.9725
   30SAPC    HY 3986   1.898   5.714   6.424  0.7948 -0.5924  2.9888
   30SAPC   O31 3987   1.826   5.577   6.556 -0.0383 -0.0097  0.4335
   30SAPC   C31 3988   1.760   5.466   6.568  0.7219  0.1006  0.2889
   30SAPC   O32 3989   1.717   5.395   6.473  0.2719  0.2024 -0.2610
   30SAPC   C32 3990   1.723   5.449   6.716  0.1592  0.4967 -0.8836
   30SAPC   H2X 3991   1.646   5.527   6.735  1.1295  1.2600 -0.0154
   30SAPC   H2Y 3992   1.818   5.474   6.767  0.2917 -1.3482 -0.1567
   30SAPC   C23 3993   2.227   5.121   6.460  0.4875 -0.0619 -0.2223
   30SAPC   H3R 3994   2.327   5.149   6.420 -0.0111  0.4401 -1.1607
   30SAPC   H3S 3995   2.220   5.011   6.443 -1.6764  0.0425 -0.2659
   30SAPC   C24 3996   2.224   5.124   6.614  0.0400  0.3236 -0.8642
   30SAPC   H4R 3997   2.264   5.224   6.641 -0.1999  0.3055 -0.4406
   30SAPC   H4S 3998   2.268   5.039   6.670  0.2142  0.4180 -0.8582
   30SAPC   C25 3999   2.087   5.120   6.683  0.5017  0.2467  0.0088
   30SAPC   H5R 4000   2.015   5.077   6.612 -0.4829  0.7403  0.6834
   30SAPC   C26 4001   2.056   5.173   6.795  0.1856 -0.3174  0.6195
   30SAPC   H6R 4002   1.952   5.159   6.830 -0.4803  1.4583 -0.5412
   30SAPC   C27 4003   2.137   5.247   6.889  0.0376  0.3703 -0.0593
   30SAPC   H7R 4004   2.085   5.344   6.907 -0.2148 -0.0136  1.3909
   30SAPC   H7S 4005   2.238   5.268   6.847  0.9524 -1.4425  1.0938
   30SAPC   C28 4006   2.144   5.176   7.019 -0.3741 -0.3879 -0.0800
   30SAPC   H8R 4007   2.197   5.080   7.014 -0.6959 -0.4916 -2.7802
   30SAPC   C29 4008   2.100   5.212   7.140 -0.9560 -0.3037  0.2503
   30SAPC   H9R 4009   2.120   5.142   7.222  0.0074 -1.9621 -1.3226
   30SAPC  C210 4010   2.026   5.332   7.186  0.0302 -0.7755  0.8429
   30SAPC  H10R 4011   2.002   5.402   7.104  1.0303 -1.0995  0.2686
   30SAPC  H10S 4012   2.081   5.379   7.270 -1.4288  1.2181  0.7493
   30SAPC  C211 4013   1.897   5.277   7.240  0.3415  0.0785  0.7803
   30SAPC  H11R 4014   1.840   5.216   7.168  0.1841  0.3196  0.7005
   30SAPC  C212 4015   1.852   5.288   7.363 -0.1395  0.3946 -0.8007
   30SAPC  H12R 4016   1.756   5.242   7.389  0.4841  0.3204  1.6034
   30SAPC  C213 4017   1.915   5.358   7.483 -0.0407  0.8888 -0.1201
   30SAPC  H13R 4018   1.870   5.459   7.492  1.5594  1.7635 -1.3397
   30SAPC  H13S 4019   2.020   5.390   7.462  0.1859 -0.2366 -0.8334
   30SAPC  C214 4020   1.920   5.280   7.610  0.1978  0.4644 -0.6020
   30SAPC  H14R 4021   1.949   5.175   7.601  0.5310  0.6939 -2.5988
   30SAPC  C215 4022   1.889   5.323   7.732 -0.5528 -0.5995  0.4880
   30SAPC  H15R 4023   1.912   5.253   7.814  1.3943  0.0822  0.5564
   30SAPC  C216 4024   1.847   5.462   7.773 -0.2933  0.4283 -0.3818
   30SAPC  H16R 4025   1.740   5.452   7.802 -0.6044  0.6092 -1.4469
   30SAPC  H16S 4026   1.852   5.531   7.687 -0.6403 -0.6555 -1.2920
   30SAPC  C217 4027   1.932   5.523   7.890 -0.1541 -0.0651 -0.2188
   30SAPC  H17R 4028   2.024   5.554   7.837 -1.0014 -1.2734 -2.5818
   30SAPC  H17S 4029   1.951   5.438   7.960 -0.0183  1.0295  1.1033
   30SAPC  C218 4030   1.890   5.655   7.949  0.3923  0.2900 -0.1472
   30SAPC  H18R 4031   1.788   5.651   7.993 -0.2967 -0.7000 -1.7355
   30SAPC  H18S 4032   1.896   5.729   7.866 -0.7055 -0.1332 -0.6332
   30SAPC  C219 4033   1.982   5.696   8.065 -0.2437 -0.7531 -0.1955
   30SAPC  H19R 4034   1.960   5.800   8.098  1.8168 -0.2419 -0.3217
   30SAPC  H19S 4035   2.088   5.689   8.032  0.3363 -2.5847  1.8704
   30SAPC  C220 4036   1.964   5.614   8.188  0.2104  0.2102  0.7393
   30SAPC  H20R 4037   1.859   5.611   8.223 -0.6892  0.8020 -1.7715
   30SAPC  H20S 4038   2.032   5.655   8.266  0.9285  1.0151 -0.2809
   30SAPC  H20T 4039   1.998   5.510   8.165 -2.3082 -0.7760  1.1876
   30SAPC   C33 4040   1.675   5.307   6.747 -0.6298 -0.1534  0.1561
   30SAPC   H3X 4041   1.746   5.233   6.705  0.4612 -0.1511  1.9003
   30SAPC   H3Y 4042   1.579   5.273   6.703 -0.9138  1.7656 -0.8008
   30SAPC   C34 4043   1.663   5.261   6.894 -0.1493 -0.3442  0.6568
   30SAPC   H4X 4044   1.764   5.258   6.939  0.4181  0.2067 -0.5484
   30SAPC   H4Y 4045   1.618   5.160   6.903 -1.6409  0.2871  0.5632
   30SAPC   C35 4046   1.572   5.349   6.981 -0.3735  0.1366  0.1689
   30SAPC   H5X 4047   1.464   5.358   6.957 -1.5534  4.2194  5.1380
   30SAPC   H5Y 4048   1.594   5.458   6.978 -2.6137  0.6356 -1.0446
   30SAPC   C36 4049   1.577   5.314   7.135  0.2566 -0.6303  0.2342
   30SAPC   H6X 4050   1.664   5.363   7.183 -1.1940  1.2161  1.1287
   30SAPC   H6Y 4051   1.563   5.205   7.153 -3.9640 -0.5546 -1.3765
   30SAPC   C37 4052   1.470   5.398   7.207 -0.2623 -0.3470 -0.6125
   30SAPC   H7X 4053   1.372   5.361   7.170  0.1571 -1.4133 -0.6885
   30SAPC   H7Y 4054   1.479   5.507   7.190 -0.1022 -0.3609 -0.6247
   30SAPC   C38 4055   1.476   5.367   7.359  0.3561  0.2815  0.2107
   30SAPC   H8X 4056   1.573   5.397   7.404  0.6086  0.4401 -0.4303
   30SAPC   H8Y 4057   1.468   5.263   7.396 -0.8436  1.0078  2.1353
   30SAPC   C39 4058   1.364   5.457   7.432  0.6907 -0.3545 -0.8524
   30SAPC   H9X 4059   1.272   5.454   7.370  0.6424 -1.1016 -0.7531
   30SAPC   H9Y 4060   1.398   5.563   7.425 -0.2606 -0.1496 -3.4869
   30SAPC  C310 4061   1.333   5.415   7.580 -0.3811 -0.4744  0.6827
   30SAPC  H10X 4062   1.422   5.415   7.647 -0.0606  2.1745  0.3574
   30SAPC  H10Y 4063   1.294   5.311   7.572 -1.1035 -0.0825 -1.9089
   30SAPC  C311 4064   1.220   5.499   7.646  0.1778  0.3194  0.0518
   30SAPC  H11X 4065   1.205   5.453   7.746  0.4027 -0.3744 -0.2249
   30SAPC  H11Y 4066   1.127   5.468   7.595  0.1163 -2.7549  1.7640
   30SAPC  C312 4067   1.255   5.644   7.653 -0.4695 -0.0945 -0.1181
   30SAPC  H12X 4068   1.262   5.689   7.552  0.3437 -0.3861 -0.2011
   30SAPC  H12Y 4069   1.358   5.662   7.693 -1.2848 -1.1161  2.7021
   30SAPC  C313 4070   1.149   5.721   7.740  0.8737  0.4605 -0.6559
   30SAPC  H13X 4071   1.163   5.692   7.847 -0.0055  1.7485 -0.1660
   30SAPC  H13Y 4072   1.045   5.691   7.716  1.1432 -2.1241  0.9655
   30SAPC  C314 4073   1.162   5.868   7.729 -0.3729 -0.4841 -0.6003
   30SAPC  H14X 4074   1.122   5.904   7.631 -0.4343 -1.4109 -0.9224
   30SAPC  H14Y 4075   1.268   5.897   7.742 -0.7457 -0.3111  2.9289
   30SAPC  C315 4076   1.092   5.948   7.845  0.1853  0.1856  0.3014
   30SAPC  H15X 4077   0.982   5.931   7.842 -0.0017  1.2935  0.5478
   30SAPC  H15Y 4078   1.109   6.054   7.815  0.3060 -0.1263 -0.7763
   30SAPC  C316 4079   1.143   5.924   7.984  0.5928 -0.3550  0.1002
   30SAPC  H16X 4080   1.246   5.965   7.985 -0.3103  2.1197  1.7354
   30SAPC  H16Y 4081   1.138   5.815   8.006 -2.5910 -0.2758  0.2503
   30SAPC  C317 4082   1.045   5.992   8.091  0.4347 -0.6478 -0.3443
   30SAPC  H17X 4083   0.947   5.943   8.075 -0.6533  1.7912 -1.5236
   30SAPC  H17Y 4084   1.030   6.100   8.070  2.2026 -0.7163 -2.3881
   30SAPC  C318 4085   1.093   5.974   8.233 -0.5404  0.1137 -0.1892
   30SAPC  H18X 4086   1.028   6.010   8.316 -1.1495 -1.0200 -0.1659
   30SAPC  H18Y 4087   1.190   6.028   8.243 -1.0955  0.9457  0.9009
   30SAPC  H18Z 4088   1.113   5.865   8.244 -0.9148  0.1881  1.6695
   31SAPC     N 4089   1.129   6.777   6.298  0.6221  0.5661  0.6497
   31SAPC   C12 4090   1.143   6.694   6.421 -0.6316 -0.3073 -0.2729
   31SAPC  H12A 4091   1.071   6.724   6.495  0.0975 -0.8194  0.6590
   31SAPC  H12B 4092   1.241   6.714   6.461 -0.2602  0.0901 -1.3472
   31SAPC   C13 4093   1.159   6.916   6.339 -0.3515 -0.2161 -0.6635
   31SAPC  H13A 4094   1.262   6.921   6.372 -0.9202  2.6248  1.0043
   31SAPC  H13B 4095   1.142   6.983   6.256 -0.6260  0.6401  0.0629
   31SAPC  H13C 4096   1.083   6.943   6.411  1.5182 -0.7528  1.6589
   31SAPC   C14 4097   1.221   6.728   6.192 -0.1836  0.3690 -0.3116
   31SAPC  H14A 4098   1.322   6.761   6.205  0.3653 -0.6368 -1.7761
   31SAPC  H14B 4099   1.217   6.620   6.190 -2.3468  0.4043 -2.5735
   31SAPC  H14C 4100   1.190   6.754   6.092 -2.3553 -2.4586 -0.4995
   31SAPC   C15 4101   0.984   6.761   6.241 -0.5791 -0.0044 -0.0781
   31SAPC  H15A 4102   0.921   6.777   6.327 -1.2778 -0.6301 -0.4604
   31SAPC  H15B 4103   0.954   6.825   6.159 -1.7065  0.9705  1.0638
   31SAPC  H15C 4104   0.969   6.666   6.191  0.9886  0.9764 -2.6744
   31SAPC   C11 4105   1.127   6.543   6.411  0.2583 -0.6732  0.4308
   31SAPC  H11A 4106   1.032   6.520   6.359 -1.2069  2.4046  1.5484
   31SAPC  H11B 4107   1.119   6.500   6.513 -1.4844  0.2806  0.7201
   31SAPC     P 4108   1.372   6.443   6.412  0.5501 -0.1484 -0.1998
   31SAPC   O13 4109   1.348   6.320   6.487  0.3221  0.3713  0.6079
   31SAPC   O14 4110   1.477   6.452   6.310 -0.6197 -0.2485  0.3215
   31SAPC   O12 4111   1.234   6.477   6.336  0.0057 -0.1723 -0.2106
   31SAPC   O11 4112   1.388   6.550   6.524  0.2921 -0.1119 -0.0869
   31SAPC    C1 4113   1.500   6.640   6.525  0.9296  0.4813 -0.0629
   31SAPC    HA 4114   1.527   6.678   6.424 -0.4255 -0.8476 -0.9618
   31SAPC    HB 4115   1.474   6.733   6.580  2.0759  2.9884 -3.4350
   31SAPC    C2 4116   1.610   6.575   6.608 -0.1301  0.4842 -1.0581
   31SAPC    HS 4117   1.627   6.470   6.576 -1.9602  0.1982 -1.2250
   31SAPC   O21 4118   1.579   6.595   6.743 -0.1498 -0.4566 -0.0662
   31SAPC   C21 4119   1.617   6.507   6.827 -0.2976 -0.4553 -0.4375
   31SAPC   O22 4120   1.675   6.402   6.805 -0.5859  0.5321  0.6391
   31SAPC   C22 4121   1.558   6.547   6.965 -0.8613 -0.5850  0.5244
   31SAPC   H2R 4122   1.574   6.650   7.003  0.9138 -0.6303 -0.0114
   31SAPC   H2S 4123   1.449   6.540   6.946 -0.9485  0.8840  0.3836
   31SAPC    C3 4124   1.742   6.655   6.590  0.0603 -0.1414 -0.6043
   31SAPC    HX 4125   1.723   6.759   6.624 -0.6780 -0.6533  0.6198
   31SAPC    HY 4126   1.760   6.656   6.481  0.6290 -0.8891 -0.5240
   31SAPC   O31 4127   1.843   6.589   6.670  0.3631  0.3576 -0.3658
   31SAPC   C31 4128   1.910   6.494   6.602 -0.1614  0.0939  0.2061
   31SAPC   O32 4129   1.888   6.461   6.486 -0.5972 -0.2886 -0.0713
   31SAPC   C32 4130   2.028   6.444   6.692  0.2615 -1.1725  0.7964
   31SAPC   H2X 4131   2.121   6.473   6.638  0.4939 -0.7717  1.4031
   31SAPC   H2Y 4132   2.016   6.334   6.683 -0.0177 -0.9841 -2.1571
   31SAPC   C23 4133   1.596   6.448   7.079 -0.3473 -0.0625 -0.2279
   31SAPC   H3R 4134   1.706   6.447   7.088 -0.4127  1.0011  0.8464
   31SAPC   H3S 4135   1.553   6.356   7.033 -0.6143 -0.3677  0.6067
   31SAPC   C24 4136   1.525   6.478   7.213 -0.3853  0.9810 -0.3710
   31SAPC   H4R 4137   1.540   6.387   7.274 -1.7596  1.0451  0.1072
   31SAPC   H4S 4138   1.416   6.481   7.188 -1.0903  0.7390  2.3814
   31SAPC   C25 4139   1.568   6.606   7.274 -0.8578  0.1228  0.2293
   31SAPC   H5R 4140   1.540   6.696   7.218  0.1384  0.8592  0.8987
   31SAPC   C26 4141   1.640   6.618   7.386  0.2985 -0.4417  0.1348
   31SAPC   H6R 4142   1.665   6.719   7.422  0.8891 -0.0134 -1.3812
   31SAPC   C27 4143   1.706   6.508   7.471  0.1926 -0.7159 -0.5360
   31SAPC   H7R 4144   1.793   6.559   7.519 -0.6673  2.4378 -2.0602
   31SAPC   H7S 4145   1.742   6.434   7.396  2.8711  0.4534 -0.5466
   31SAPC   C28 4146   1.615   6.433   7.560 -0.6279  0.1190 -0.4311
   31SAPC   H8R 4147   1.533   6.371   7.522  0.5621 -1.9277  0.2041
   31SAPC   C29 4148   1.640   6.416   7.693 -0.2281 -0.4384  0.3084
   31SAPC   H9R 4149   1.565   6.360   7.750 -0.1332 -2.0106 -1.0369
   31SAPC  C210 4150   1.753   6.462   7.780  0.2440  0.6596 -0.1971
   31SAPC  H10R 4151   1.731   6.567   7.807  2.8473  1.0251  0.7260
   31SAPC  H10S 4152   1.848   6.478   7.725  0.8737  0.5988  0.8497
   31SAPC  C211 4153   1.769   6.365   7.894  0.5192 -0.0061  1.0822
   31SAPC  H11R 4154   1.800   6.261   7.876 -4.1831 -1.9623  2.7613
   31SAPC  C212 4155   1.722   6.385   8.015  0.0096  0.1739  0.3954
   31SAPC  H12R 4156   1.743   6.317   8.099 -0.2426  0.3951  0.6440
   31SAPC  C213 4157   1.647   6.507   8.056  0.1609  0.0609  0.4833
   31SAPC  H13R 4158   1.591   6.552   7.971 -0.3765 -0.4874  0.5363
   31SAPC  H13S 4159   1.725   6.577   8.091  1.2336 -0.4020 -0.8631
   31SAPC  C214 4160   1.541   6.476   8.155 -0.3010 -0.1107  0.9552
   31SAPC  H14R 4161   1.455   6.428   8.106  1.9142  0.5549 -4.1977
   31SAPC  C215 4162   1.532   6.517   8.281 -0.5108  0.0912  0.2585
   31SAPC  H15R 4163   1.449   6.489   8.347  0.6207 -1.5492  1.0744
   31SAPC  C216 4164   1.634   6.609   8.346 -0.4269 -0.3331 -0.5829
   31SAPC  H16R 4165   1.580   6.693   8.396  0.7326  0.2413 -0.2460
   31SAPC  H16S 4166   1.692   6.663   8.269 -2.4457  1.3569 -1.0202
   31SAPC  C217 4167   1.734   6.547   8.448 -0.6114  0.0138 -0.5440
   31SAPC  H17R 4168   1.825   6.503   8.402 -0.2624  0.1592  0.0023
   31SAPC  H17S 4169   1.672   6.478   8.508 -2.1470  1.5665 -0.2618
   31SAPC  C218 4170   1.792   6.652   8.551 -0.4931 -0.6326 -0.2827
   31SAPC  H18R 4171   1.711   6.716   8.591  0.8717  0.0271  1.5910
   31SAPC  H18S 4172   1.848   6.723   8.487  1.8419 -0.0407  2.2329
   31SAPC  C219 4173   1.869   6.583   8.661  0.2236 -1.2658  0.9397
   31SAPC  H19R 4174   1.928   6.498   8.621  0.3188 -1.5377  1.6420
   31SAPC  H19S 4175   1.798   6.532   8.729 -2.0067  2.1198  1.4038
   31SAPC  C220 4176   1.953   6.677   8.744 -0.3740  0.6787 -0.1359
   31SAPC  H20R 4177   2.015   6.626   8.820  1.1670  2.5262 -0.0872
   31SAPC  H20S 4178   1.899   6.754   8.804  0.5867 -0.8800  2.9057
   31SAPC  H20T 4179   2.034   6.730   8.690  1.0309  1.5602  2.6415
   31SAPC   C33 4180   2.026   6.496   6.835  0.8627  0.1334 -0.7895
   31SAPC   H3X 4181   1.928   6.464   6.876  1.8989 -3.0479 -0.5202
   31SAPC   H3Y 4182   2.038   6.606   6.843 -1.3613  0.4479 -1.3124
   31SAPC   C34 4183   2.123   6.412   6.927  0.5825 -0.5387  0.5318
   31SAPC   H4X 4184   2.228   6.437   6.899 -0.1616  0.1582 -1.8401
   31SAPC   H4Y 4185   2.117   6.305   6.899  1.5708 -1.2630  2.8324
   31SAPC   C35 4186   2.113   6.431   7.081  0.9617 -0.5029 -0.5141
   31SAPC   H5X 4187   2.198   6.385   7.137 -0.4465  1.8065  4.1130
   31SAPC   H5Y 4188   2.019   6.386   7.118 -0.7206  3.6316  0.8744
   31SAPC   C36 4189   2.127   6.571   7.140  0.3980  0.0184 -0.0992
   31SAPC   H6X 4190   2.076   6.651   7.082  1.1138  0.9711  0.5420
   31SAPC   H6Y 4191   2.236   6.595   7.143  0.2430  0.6816  1.8456
   31SAPC   C37 4192   2.076   6.581   7.283  0.9290 -0.7222 -1.0209
   31SAPC   H7X 4193   1.970   6.548   7.287  1.0177 -0.8875  1.8274
   31SAPC   H7Y 4194   2.073   6.690   7.306  0.4498 -0.7444 -0.9782
   31SAPC   C38 4195   2.164   6.505   7.383  0.8586 -0.4393  0.4686
   31SAPC   H8X 4196   2.256   6.568   7.391  2.2965 -1.9682 -2.4166
   31SAPC   H8Y 4197   2.172   6.406   7.334 -0.3563  1.4059 -3.9975
   31SAPC   C39 4198   2.083   6.482   7.509 -0.6306  0.4211  0.1613
   31SAPC   H9X 4199   2.123   6.392   7.560 -3.2440  0.1942  2.0479
   31SAPC   H9Y 4200   1.981   6.450   7.477 -0.3936  1.4361 -1.7098
   31SAPC  C310 4201   2.092   6.593   7.607  0.3145  0.9090  0.5011
   31SAPC  H10X 4202   2.032   6.592   7.701  1.1629 -1.6669  1.1078
   31SAPC  H10Y 4203   2.058   6.686   7.556  0.2483  0.3170 -0.5683
   31SAPC  C311 4204   2.239   6.608   7.658  0.3702  0.3613 -0.2107
   31SAPC  H11X 4205   2.306   6.628   7.572  0.1123  0.5598 -0.3664
   31SAPC  H11Y 4206   2.270   6.507   7.692  1.2669  1.0559  1.1544
   31SAPC  C312 4207   2.255   6.713   7.767  0.1066  0.3367  0.3300
   31SAPC  H12X 4208   2.206   6.807   7.732  0.4454 -0.6282 -3.0890
   31SAPC  H12Y 4209   2.364   6.726   7.784  0.0841  1.1721 -0.1006
   31SAPC  C313 4210   2.198   6.667   7.899 -0.1374  0.5529 -0.1060
   31SAPC  H13X 4211   2.264   6.585   7.934  2.2954  1.0269 -3.1594
   31SAPC  H13Y 4212   2.091   6.638   7.896 -0.2023  0.8469 -1.1819
   31SAPC  C314 4213   2.229   6.783   7.995  0.5994  0.8566 -0.3792
   31SAPC  H14X 4214   2.171   6.875   7.971 -0.1838  0.2652 -0.8225
   31SAPC  H14Y 4215   2.329   6.826   7.977  0.0611  1.3636 -2.4400
   31SAPC  C315 4216   2.194   6.749   8.140  0.1599 -0.3999 -0.1424
   31SAPC  H15X 4217   2.086   6.745   8.164  0.8124  2.4551  4.7411
   31SAPC  H15Y 4218   2.216   6.841   8.198 -2.8325  0.2986  0.0114
   31SAPC  C316 4219   2.282   6.640   8.199  0.4973  0.9053 -0.1189
   31SAPC  H16X 4220   2.382   6.627   8.151  0.4258  0.3199 -0.1148
   31SAPC  H16Y 4221   2.227   6.545   8.189  0.5872  1.0119 -2.1818
   31SAPC  C317 4222   2.323   6.681   8.342 -0.2717  0.5290 -0.6390
   31SAPC  H17X 4223   2.365   6.783   8.330 -0.2485  0.6502  0.4113
   31SAPC  H17Y 4224   2.412   6.621   8.368 -0.4249  1.0485  1.1593
   31SAPC  C318 4225   2.210   6.679   8.444 -0.6678  0.0862 -0.0591
   31SAPC  H18X 4226   2.144   6.765   8.424  0.1928  0.3933 -1.7026
   31SAPC  H18Y 4227   2.242   6.683   8.550 -0.2300 -1.6895 -0.0872
   31SAPC  H18Z 4228   2.147   6.588   8.430 -0.4885  0.1748 -1.6323
   32SAPC     N 4229   4.507   5.854   6.208  0.2828  0.0398  0.0998
   32SAPC   C12 4230   4.516   5.913   6.060 -0.0177  0.0944  0.1576
   32SAPC  H12A 4231   4.524   5.826   5.997 -0.0689 -0.3418  0.7479
   32SAPC  H12B 4232   4.604   5.976   6.063  1.3182 -1.7134  0.9607
   32SAPC   C13 4233   4.628   5.776   6.240 -0.0159  0.0783 -0.2680
   32SAPC  H13A 4234   4.626   5.724   6.335 -0.1872  0.8253  0.1419
   32SAPC  H13B 4235   4.641   5.698   6.166  0.8522  1.5761 -1.7405
   32SAPC  H13C 4236   4.726   5.820   6.241  0.8723 -1.7583 -0.7185
   32SAPC   C14 4237   4.499   5.969   6.305  0.2781 -0.8010 -0.3708
   32SAPC  H14A 4238   4.516   5.931   6.405  1.1752 -0.4843 -0.3905
   32SAPC  H14B 4239   4.575   6.041   6.278 -2.2898  2.0531 -0.5085
   32SAPC  H14C 4240   4.404   6.019   6.302  1.2023  1.0035 -0.9794
   32SAPC   C15 4241   4.380   5.772   6.226  0.7715  0.5127  0.3811
   32SAPC  H15A 4242   4.375   5.679   6.172 -0.1442  1.2444 -0.8354
   32SAPC  H15B 4243   4.361   5.739   6.327  1.2841 -2.1707 -0.3234
   32SAPC  H15C 4244   4.293   5.823   6.188 -0.0475  0.3384  1.9368
   32SAPC   C11 4245   4.408   6.007   6.008  0.9469  0.1550  0.4984
   32SAPC  H11A 4246   4.316   5.945   6.005  1.0021  0.1017 -0.7889
   32SAPC  H11B 4247   4.428   6.021   5.899 -3.2599  0.1838 -0.4584
   32SAPC     P 4248   4.295   6.244   6.052 -0.2214 -0.0687  0.3227
   32SAPC   O13 4249   4.324   6.318   5.923  0.0082  0.0488 -0.0665
   32SAPC   O14 4250   4.159   6.193   6.074  0.1023 -0.0677 -0.0365
   32SAPC   O12 4251   4.400   6.134   6.071  0.1702 -0.2556 -0.1377
   32SAPC   O11 4252   4.310   6.347   6.169 -0.5339 -0.2622  0.0962
   32SAPC    C1 4253   4.443   6.400   6.180  1.0685  0.6477 -0.0142
   32SAPC    HA 4254   4.520   6.322   6.197  0.1544 -0.9448 -2.5394
   32SAPC    HB 4255   4.471   6.439   6.080 -0.9526 -2.8029 -2.1380
   32SAPC    C2 4256   4.463   6.513   6.282 -0.3133 -0.5807  0.2332
   32SAPC    HS 4257   4.570   6.528   6.307 -0.6468 -0.7504  1.8788
   32SAPC   O21 4258   4.377   6.491   6.393  0.1807 -0.0130 -0.4170
   32SAPC   C21 4259   4.429   6.394   6.470  0.1317  0.6820  0.0090
   32SAPC   O22 4260   4.532   6.337   6.447 -0.4585 -0.2911 -0.6846
   32SAPC   C22 4261   4.333   6.369   6.587  0.1892  0.3128 -0.2237
   32SAPC   H2R 4262   4.227   6.370   6.554  0.1505 -0.3070 -0.1256
   32SAPC   H2S 4263   4.360   6.269   6.627  2.4418 -0.4014 -3.1889
   32SAPC    C3 4264   4.424   6.644   6.214 -0.8190 -0.5472 -0.3366
   32SAPC    HX 4265   4.315   6.639   6.195 -0.3861 -0.3910 -3.2594
   32SAPC    HY 4266   4.475   6.651   6.116 -0.4935 -0.1171 -0.1413
   32SAPC   O31 4267   4.477   6.759   6.287 -0.2849 -0.4175  0.4509
   32SAPC   C31 4268   4.375   6.839   6.324  0.4627  0.2952  0.4534
   32SAPC   O32 4269   4.255   6.827   6.304 -0.8507 -0.1775  0.9770
   32SAPC   C32 4270   4.439   6.952   6.406 -0.6693 -0.9480 -0.4827
   32SAPC   H2X 4271   4.354   7.015   6.439 -0.7715 -1.8323  1.0530
   32SAPC   H2Y 4272   4.502   7.010   6.336  0.7700  1.5763  2.6414
   32SAPC   C23 4273   4.373   6.464   6.706  0.6424  0.5765  0.0858
   32SAPC   H3R 4274   4.356   6.567   6.669 -1.5546 -0.4825 -2.1672
   32SAPC   H3S 4275   4.478   6.448   6.741  0.0166 -0.3677  1.6195
   32SAPC   C24 4276   4.280   6.450   6.827 -0.3199 -0.0972  0.6017
   32SAPC   H4R 4277   4.175   6.466   6.797  0.1480 -1.3358 -1.8726
   32SAPC   H4S 4278   4.305   6.540   6.888  1.4493 -0.8590  1.0787
   32SAPC   C25 4279   4.305   6.330   6.908  0.3819  1.0114 -0.2478
   32SAPC   H5R 4280   4.276   6.241   6.850  0.7163 -0.5681  1.8861
   32SAPC   C26 4281   4.355   6.310   7.028 -0.1094 -0.0321 -0.8088
   32SAPC   H6R 4282   4.365   6.214   7.081 -0.3524  1.4953  2.2737
   32SAPC   C27 4283   4.393   6.417   7.134  0.1859  0.4231  0.0409
   32SAPC   H7R 4284   4.461   6.500   7.106  0.5713  0.0678 -0.1025
   32SAPC   H7S 4285   4.462   6.370   7.208  0.6757 -1.6311 -1.6312
   32SAPC   C28 4286   4.268   6.469   7.207  0.0006  0.0811  0.8404
   32SAPC   H8R 4287   4.220   6.552   7.154  2.0122  0.5680 -0.3287
   32SAPC   C29 4288   4.218   6.436   7.324 -0.5689 -0.1046  0.4002
   32SAPC   H9R 4289   4.126   6.485   7.361 -0.1503  0.1126  1.1645
   32SAPC  C210 4290   4.272   6.331   7.420 -0.2519 -0.3792  0.1126
   32SAPC  H10R 4291   4.301   6.234   7.375  2.9135 -0.9412  2.9420
   32SAPC  H10S 4292   4.190   6.299   7.487 -0.8652  1.5220  0.3408
   32SAPC  C211 4293   4.392   6.393   7.489 -0.1145  0.7056 -0.2382
   32SAPC  H11R 4294   4.480   6.419   7.428 -0.3813 -1.0073 -1.4231
   32SAPC  C212 4295   4.412   6.401   7.623 -0.6804  0.3395  0.4383
   32SAPC  H12R 4296   4.513   6.426   7.657 -0.9163  1.6389  0.2246
   32SAPC  C213 4297   4.324   6.352   7.735  0.1375  0.2162 -0.0729
   32SAPC  H13R 4298   4.379   6.280   7.799  1.9592  0.0307 -1.7499
   32SAPC  H13S 4299   4.228   6.304   7.704  0.0484 -1.9092  3.0417
   32SAPC  C214 4300   4.293   6.470   7.822  0.1318 -0.0620  0.5785
   32SAPC  H14R 4301   4.352   6.561   7.799 -0.4946  0.1488 -0.2332
   32SAPC  C215 4302   4.209   6.469   7.925 -0.3315 -0.7951  0.3875
   32SAPC  H15R 4303   4.217   6.557   7.990 -0.5234 -2.2671  2.5053
   32SAPC  C216 4304   4.129   6.349   7.974 -0.8724 -0.0542 -0.2208
   32SAPC  H16R 4305   4.134   6.269   7.896 -0.9885 -0.0732 -0.2093
   32SAPC  H16S 4306   4.023   6.376   7.989 -1.0006 -0.4033 -0.4718
   32SAPC  C217 4307   4.176   6.299   8.108 -0.2207 -0.1132 -0.5825
   32SAPC  H17R 4308   4.282   6.271   8.095 -0.4638  0.1217 -3.6674
   32SAPC  H17S 4309   4.108   6.212   8.124 -1.0052  0.4043 -1.0130
   32SAPC  C218 4310   4.158   6.397   8.224  0.0406  0.2131 -0.7291
   32SAPC  H18R 4311   4.051   6.409   8.251 -0.4362  0.3356 -2.5362
   32SAPC  H18S 4312   4.190   6.498   8.192  1.8566 -0.0526  0.1241
   32SAPC  C219 4313   4.236   6.356   8.354 -0.4293  0.0040  0.9587
   32SAPC  H19R 4314   4.344   6.372   8.334  0.4754 -3.1637  2.7611
   32SAPC  H19S 4315   4.227   6.247   8.373 -0.3633 -0.0866  0.4894
   32SAPC  C220 4316   4.212   6.446   8.471 -0.4211  0.4163  0.7626
   32SAPC  H20R 4317   4.188   6.552   8.446 -1.5125  0.4543  1.8769
   32SAPC  H20S 4318   4.296   6.444   8.544 -2.3023  0.1836  3.0546
   32SAPC  H20T 4319   4.128   6.402   8.530 -0.6554  0.0819  0.1931
   32SAPC   C33 4320   4.504   6.911   6.546 -0.2017  0.1598  0.3994
   32SAPC   H3X 4321   4.593   6.978   6.556 -1.3770  1.9620 -0.5260
   32SAPC   H3Y 4322   4.547   6.809   6.540  0.4429  0.2345  2.7423
   32SAPC   C34 4323   4.402   6.924   6.661 -0.2229 -0.3513  0.3480
   32SAPC   H4X 4324   4.314   6.858   6.643  0.6085 -0.9429 -1.7877
   32SAPC   H4Y 4325   4.356   7.025   6.653  1.6894  0.7416  2.1030
   32SAPC   C35 4326   4.466   6.910   6.804  0.4023 -0.2145 -0.1920
   32SAPC   H5X 4327   4.528   6.998   6.831  1.7161 -1.1221 -0.1548
   32SAPC   H5Y 4328   4.544   6.831   6.800  1.2917  0.6873 -1.5975
   32SAPC   C36 4329   4.373   6.875   6.929  0.1771 -0.7721  0.0100
   32SAPC   H6X 4330   4.318   6.779   6.918  1.2974 -1.5300  0.6904
   32SAPC   H6Y 4331   4.297   6.955   6.916  3.2331  2.1663 -1.3517
   32SAPC   C37 4332   4.446   6.899   7.061 -0.1446  0.5733  0.2389
   32SAPC   H7X 4333   4.486   7.003   7.066  0.2664  0.4114  0.3757
   32SAPC   H7Y 4334   4.526   6.822   7.063  0.3695  1.1045  0.7886
   32SAPC   C38 4335   4.363   6.871   7.198  0.3447 -0.0636 -0.9942
   32SAPC   H8X 4336   4.330   6.765   7.198  1.0467 -0.3418  1.2151
   32SAPC   H8Y 4337   4.268   6.929   7.195  0.1440 -0.4089 -1.4233
   32SAPC   C39 4338   4.441   6.897   7.324 -0.3711  0.0665 -0.0541
   32SAPC   H9X 4339   4.445   7.007   7.337 -3.1978  0.2316  0.0205
   32SAPC   H9Y 4340   4.536   6.839   7.323 -0.2950  0.1701  0.8067
   32SAPC  C310 4341   4.356   6.845   7.445 -0.7154  0.0750  0.0691
   32SAPC  H10X 4342   4.345   6.735   7.440  0.1326 -0.0508  0.6670
   32SAPC  H10Y 4343   4.258   6.895   7.428 -1.2049 -0.6538  0.7184
   32SAPC  C311 4344   4.400   6.885   7.583  0.2074  0.1524  0.3471
   32SAPC  H11X 4345   4.466   6.972   7.560 -0.0225 -0.3687 -2.7740
   32SAPC  H11Y 4346   4.457   6.801   7.627 -2.0364 -1.6181  0.0715
   32SAPC  C312 4347   4.284   6.923   7.681  0.3579 -0.1689 -1.2114
   32SAPC  H12X 4348   4.215   6.837   7.687  0.7507 -0.4468 -0.5541
   32SAPC  H12Y 4349   4.237   7.021   7.656  2.6227  1.0852 -0.8965
   32SAPC  C313 4350   4.345   6.937   7.834 -0.1140 -0.0907  0.9642
   32SAPC  H13X 4351   4.396   7.035   7.847  1.0243 -0.0824 -2.4990
   32SAPC  H13Y 4352   4.415   6.852   7.850 -0.6587 -1.0273 -1.2339
   32SAPC  C314 4353   4.230   6.922   7.939  0.5029 -0.2944  0.2178
   32SAPC  H14X 4354   4.200   6.815   7.925  2.9187 -1.4419  2.9190
   32SAPC  H14Y 4355   4.153   7.001   7.923 -1.7012 -2.5388 -1.1372
   32SAPC  C315 4356   4.272   6.925   8.082  0.0577  0.8154 -0.1514
   32SAPC  H15X 4357   4.193   6.910   8.159  0.2177  1.2494  0.0985
   32SAPC  H15Y 4358   4.305   7.028   8.105  1.1878  0.2031  1.1565
   32SAPC  C316 4359   4.393   6.831   8.123 -0.3905  0.2572  0.3500
   32SAPC  H16X 4360   4.486   6.888   8.100 -1.9431  2.5245 -0.6344
   32SAPC  H16Y 4361   4.385   6.734   8.070 -2.3358  0.6146 -0.0545
   32SAPC  C317 4362   4.391   6.791   8.267  0.4085 -0.0738  0.5827
   32SAPC  H17X 4363   4.287   6.752   8.269  0.0920  0.7188  0.2197
   32SAPC  H17Y 4364   4.389   6.882   8.330 -0.2972  2.4775 -2.8318
   32SAPC  C318 4365   4.508   6.695   8.300 -0.1425 -0.2619  0.2553
   32SAPC  H18X 4366   4.498   6.649   8.401 -3.8384 -1.7518 -0.6184
   32SAPC  H18Y 4367   4.590   6.771   8.296 -1.2750  1.0072  0.3996
   32SAPC  H18Z 4368   4.529   6.616   8.225  0.2793  1.4579 -1.5025
   33POPC     N 4369   2.035   1.146  10.920 -0.0962 -0.6385  0.3424
   33POPC   C12 4370   1.997   1.216  10.793  0.5156  0.0009  0.1004
   33POPC  H12A 4371   2.073   1.288  10.763 -0.2954 -0.1367 -2.6178
   33POPC  H12B 4372   1.900   1.263  10.796 -1.0062 -2.7539 -1.7304
   33POPC   C13 4373   1.929   1.054  10.951  0.3765  0.7244 -0.0051
   33POPC  H13A 4374   1.927   0.972  10.880  3.4177 -1.5317  2.2540
   33POPC  H13B 4375   1.940   0.998  11.043  0.0873 -0.6309 -0.7611
   33POPC  H13C 4376   1.831   1.096  10.933 -0.1755 -0.8245 -0.8281
   33POPC   C14 4377   2.171   1.080  10.909 -0.2499 -0.0470  0.7297
   33POPC  H14A 4378   2.179   1.040  10.809  1.1097  1.7276  0.0593
   33POPC  H14B 4379   2.256   1.144  10.930  0.7036 -1.7295  2.2486
   33POPC  H14C 4380   2.182   0.996  10.976  1.9444  0.1669  0.7351
   33POPC   C15 4381   2.049   1.242  11.031 -0.2916 -0.9665  0.1233
   33POPC  H15A 4382   2.093   1.211  11.124  1.7294  0.3456 -0.3201
   33POPC  H15B 4383   1.953   1.286  11.054 -0.2320 -0.2415 -0.9157
   33POPC  H15C 4384   2.115   1.325  11.009  0.7113 -1.8319 -0.2002
   33POPC   C11 4385   1.991   1.128  10.658 -0.2706 -0.3254  0.1303
   33POPC  H11A 4386   2.091   1.094  10.622  0.1295 -2.1718  2.6611
   33POPC  H11B 4387   1.957   1.203  10.585 -0.8121  0.2262  0.9342
   33POPC     P 4388   1.775   0.998  10.596  0.0081  0.4242  0.0829
   33POPC   O13 4389   1.658   1.057  10.673 -0.0243  0.6540  0.0642
   33POPC   O14 4390   1.757   0.852  10.569  0.7905  0.4767 -0.3933
   33POPC   O12 4391   1.909   1.010  10.670  0.8063 -0.1202  0.4378
   33POPC   O11 4392   1.785   1.073  10.459 -0.2477 -0.6225 -0.6710
   33POPC    C1 4393   1.680   1.155  10.409 -0.6494  0.1771 -0.3166
   33POPC    HA 4394   1.633   1.219  10.487 -0.7307 -2.4088  1.8981
   33POPC    HB 4395   1.739   1.215  10.336  1.3190  0.6871  1.5865
   33POPC    C2 4396   1.581   1.086  10.311 -0.4799  0.6215 -0.4659
   33POPC    HS 4397   1.509   1.025  10.370 -0.2268 -0.4983 -1.2781
   33POPC   O21 4398   1.651   0.993  10.227 -0.3125 -0.0065 -0.0245
   33POPC   C21 4399   1.571   0.905  10.173 -0.1375 -0.3489 -0.7021
   33POPC   O22 4400   1.453   0.902  10.193  0.4030 -0.2444  0.5509
   33POPC   C22 4401   1.652   0.817  10.085  0.3152 -0.5031  0.0781
   33POPC   H2R 4402   1.650   0.709  10.111 -0.4501 -0.5756 -0.2442
   33POPC   H2S 4403   1.756   0.854  10.074  0.1727 -0.1334 -0.0277
   33POPC    C3 4404   1.496   1.185  10.234 -0.3813 -0.2348  0.1113
   33POPC    HX 4405   1.471   1.273  10.296  1.2871  1.5370 -1.5821
   33POPC    HY 4406   1.395   1.147  10.211 -0.7560  1.4922 -1.3434
   33POPC   O31 4407   1.558   1.233  10.115  0.5133 -0.3716  0.1417
   33POPC   C31 4408   1.621   1.351  10.117 -0.0105  0.0571 -0.1632
   33POPC   O32 4409   1.651   1.421  10.210 -0.0606 -0.3737 -0.4186
   33POPC   C32 4410   1.635   1.391   9.974 -0.2405  0.1571  0.3335
   33POPC   H2X 4411   1.539   1.369   9.923  0.0137  0.1092 -0.1268
   33POPC   H2Y 4412   1.720   1.334   9.931  1.4785 -0.1962  3.7671
   33POPC   C23 4413   1.598   0.830   9.943 -0.4511 -0.3688 -0.0149
   33POPC   H3R 4414   1.496   0.790   9.928  0.8896 -3.4802 -1.9038
   33POPC   H3S 4415   1.662   0.759   9.886  0.4467 -0.3592  0.9442
   33POPC   C24 4416   1.612   0.966   9.878  0.3409  0.8780 -0.1096
   33POPC   H4R 4417   1.716   0.999   9.898  1.0478 -2.0779  1.7685
   33POPC   H4S 4418   1.545   1.034   9.936  1.4530  1.2677  0.7582
   33POPC   C25 4419   1.589   0.966   9.727 -0.2818  0.2480  0.4385
   33POPC   H5R 4420   1.495   0.918   9.695 -0.4963  2.8928 -3.5119
   33POPC   H5S 4421   1.679   0.914   9.686 -0.7506 -0.4035  0.2235
   33POPC   C26 4422   1.584   1.111   9.676 -0.2860  0.4331 -0.1681
   33POPC   H6R 4423   1.668   1.164   9.726  0.4490 -0.2482 -0.6418
   33POPC   H6S 4424   1.489   1.162   9.702 -0.0602  0.2717  1.0077
   33POPC   C27 4425   1.610   1.114   9.529 -0.9199  0.2756  0.3882
   33POPC   H7R 4426   1.542   1.041   9.481 -0.8879  0.4847  0.0245
   33POPC   H7S 4427   1.716   1.084   9.514 -1.2925 -0.9385  0.1499
   33POPC   C28 4428   1.571   1.254   9.467 -0.3802  0.3961  0.0964
   33POPC   H8R 4429   1.631   1.339   9.504 -0.1774  0.0682  0.5387
   33POPC   H8S 4430   1.467   1.270   9.504 -0.9291  0.2578 -1.3276
   33POPC   C29 4431   1.585   1.249   9.318 -1.1171 -0.1815  0.1095
   33POPC   H91 4432   1.680   1.212   9.277 -1.0063  0.3391 -0.1061
   33POPC  C210 4433   1.488   1.277   9.232  0.1236  0.6149 -0.3960
   33POPC  H101 4434   1.518   1.272   9.126  0.9779  0.6544 -0.1568
   33POPC  C211 4435   1.351   1.337   9.260  0.0780 -0.6250  0.1251
   33POPC  H11R 4436   1.311   1.285   9.350  0.1986 -1.7908 -0.4853
   33POPC  H11S 4437   1.283   1.307   9.178  0.1836 -0.2384 -0.1059
   33POPC  C212 4438   1.357   1.490   9.270 -0.2322  0.7956 -0.4576
   33POPC  H12R 4439   1.406   1.515   9.367  1.4390  0.1688 -1.1232
   33POPC  H12S 4440   1.253   1.527   9.288 -0.8781 -1.3583  0.6957
   33POPC  C213 4441   1.422   1.567   9.152 -0.2435  0.0588 -0.1120
   33POPC  H13R 4442   1.523   1.523   9.139 -0.3457  0.2206 -1.5861
   33POPC  H13S 4443   1.429   1.677   9.164 -4.4485  0.3982  0.7871
   33POPC  C214 4444   1.357   1.541   9.014  0.5369 -0.5617  0.1414
   33POPC  H14R 4445   1.247   1.548   9.026  0.5655 -2.2486  1.7579
   33POPC  H14S 4446   1.366   1.437   8.977 -1.8953 -0.3587 -1.2134
   33POPC  C215 4447   1.414   1.634   8.903  0.1627 -0.6986  0.5775
   33POPC  H15R 4448   1.523   1.618   8.895  0.5395  2.3276 -2.7216
   33POPC  H15S 4449   1.397   1.741   8.926  3.0197 -0.5699  2.6872
   33POPC  C216 4450   1.348   1.610   8.770 -0.1768  0.5495  0.0247
   33POPC  H16R 4451   1.377   1.696   8.706  2.0883  1.1839  1.7531
   33POPC  H16S 4452   1.239   1.591   8.774 -0.0940 -0.0823 -0.6279
   33POPC  C217 4453   1.413   1.499   8.683  0.7867 -0.0000  0.1363
   33POPC  H17R 4454   1.361   1.492   8.585  1.1888  0.1125 -0.0871
   33POPC  H17S 4455   1.375   1.404   8.725 -1.8840 -0.1074 -2.2001
   33POPC  C218 4456   1.562   1.502   8.661  0.0652  0.3903  0.2780
   33POPC  H18R 4457   1.588   1.420   8.591 -1.6845 -0.6517  0.7883
   33POPC  H18S 4458   1.605   1.468   8.758 -3.3219 -1.6537  1.2525
   33POPC  H18T 4459   1.618   1.594   8.635  1.3599 -1.1139 -2.7641
   33POPC   C33 4460   1.676   1.545   9.958 -0.4228 -0.0140  0.6466
   33POPC   H3X 4461   1.780   1.557   9.994 -0.0514 -1.0748 -0.0304
   33POPC   H3Y 4462   1.612   1.597  10.033 -0.3176  1.6460 -0.3656
   33POPC   C34 4463   1.669   1.602   9.818 -0.0815  0.3626 -0.3119
   33POPC   H4X 4464   1.689   1.711   9.829  0.1991  0.4557 -1.6167
   33POPC   H4Y 4465   1.568   1.601   9.772  0.6003 -0.5037 -1.8804
   33POPC   C35 4466   1.765   1.536   9.718 -0.2197  0.4321 -0.2570
   33POPC   H5X 4467   1.736   1.431   9.701 -1.2658  0.8681 -1.2930
   33POPC   H5Y 4468   1.863   1.533   9.770 -1.3634 -1.8908  1.9305
   33POPC   C36 4469   1.750   1.613   9.588 -0.2908  0.0693  0.3227
   33POPC   H6X 4470   1.769   1.721   9.606  0.2816  0.2352 -1.0698
   33POPC   H6Y 4471   1.648   1.599   9.548 -0.5523  0.7677  0.7307
   33POPC   C37 4472   1.856   1.569   9.485 -0.5226  0.3715 -0.1538
   33POPC   H7X 4473   1.843   1.462   9.461  1.9660 -0.2284  0.9414
   33POPC   H7Y 4474   1.961   1.584   9.515 -0.0412 -0.7091 -1.2250
   33POPC   C38 4475   1.838   1.648   9.357 -0.1137  0.3338  0.0998
   33POPC   H8X 4476   1.875   1.752   9.366 -0.7049  0.4142  1.8218
   33POPC   H8Y 4477   1.728   1.645   9.339 -0.3580 -2.7439  1.4688
   33POPC   C39 4478   1.924   1.577   9.250  0.5187 -0.3830  0.3477
   33POPC   H9X 4479   1.941   1.474   9.288  0.7074  0.7364  3.5601
   33POPC   H9Y 4480   2.023   1.626   9.263 -0.5262  3.0415 -2.8086
   33POPC  C310 4481   1.863   1.590   9.114  0.5541  0.0188  0.3856
   33POPC  H10X 4482   1.825   1.694   9.101 -2.9797 -1.1842  0.1076
   33POPC  H10Y 4483   1.780   1.519   9.096 -1.3373  2.2780 -0.2324
   33POPC  C311 4484   1.971   1.557   9.007 -0.2013  0.2003  0.0560
   33POPC  H11X 4485   2.003   1.452   9.028 -1.6045 -0.0041  1.3818
   33POPC  H11Y 4486   2.062   1.617   9.029  0.0031 -0.2372  0.4450
   33POPC  C312 4487   1.907   1.578   8.865  0.4638 -1.2629 -0.8787
   33POPC  H12X 4488   1.877   1.685   8.871 -0.3534 -1.4792  4.8270
   33POPC  H12Y 4489   1.807   1.528   8.862 -0.3618 -0.2576  2.9954
   33POPC  C313 4490   1.994   1.537   8.744 -0.5364 -0.2106  0.0950
   33POPC  H13X 4491   1.988   1.426   8.739  0.4309 -0.2070 -1.6821
   33POPC  H13Y 4492   2.091   1.576   8.782 -1.2916  1.2446  0.6095
   33POPC  C314 4493   1.947   1.612   8.619 -0.3158 -0.1024  0.3943
   33POPC  H14X 4494   1.977   1.719   8.629 -0.2636 -0.1397  0.6349
   33POPC  H14Y 4495   1.837   1.614   8.609 -0.4462 -1.0550  1.4574
   33POPC  C315 4496   2.015   1.560   8.499 -0.7552 -0.0006  0.1849
   33POPC  H15X 4497   2.125   1.576   8.504 -0.4494 -0.5015 -2.8228
   33POPC  H15Y 4498   1.999   1.635   8.418 -0.4432 -1.2109 -1.0344
   33POPC  C316 4499   1.978   1.418   8.455  0.5384 -0.1422 -0.9509
   33POPC  H16X 4500   1.999   1.337   8.528  0.0214 -0.7074 -1.4182
   33POPC  H16Y 4501   2.025   1.380   8.362 -0.5037 -1.9898 -0.7827
   33POPC  H16Z 4502   1.868   1.410   8.440  0.2040 -0.7254  1.3422
   34POPC     N 4503   0.730   3.782  10.478  0.3729 -0.5616 -0.3098
   34POPC   C12 4504   0.629   3.889  10.447 -0.3511 -0.4504  0.3807
   34POPC  H12A 4505   0.665   3.939  10.359  1.6179 -0.0092  1.3900
   34POPC  H12B 4506   0.645   3.970  10.517  1.9652 -1.3420  0.9761
   34POPC   C13 4507   0.706   3.679  10.370  0.2365  0.5707 -0.1361
   34POPC  H13A 4508   0.601   3.653  10.370  0.5360 -0.8040  1.0678
   34POPC  H13B 4509   0.746   3.703  10.273  0.8433 -1.1175 -0.3322
   34POPC  H13C 4510   0.751   3.584  10.395 -3.0866 -0.7868  1.3378
   34POPC   C14 4511   0.872   3.831  10.468 -0.0388 -0.0877  1.2671
   34POPC  H14A 4512   0.898   3.882  10.376 -0.7839 -0.8770  0.6053
   34POPC  H14B 4513   0.891   3.912  10.537  2.4218  0.8099 -0.3129
   34POPC  H14C 4514   0.938   3.747  10.482 -1.9451 -1.5159  2.1313
   34POPC   C15 4515   0.710   3.734  10.622  0.6574  0.0596  0.1972
   34POPC  H15A 4516   0.772   3.646  10.634 -2.8286 -2.7089 -0.1491
   34POPC  H15B 4517   0.606   3.709  10.638 -0.2579  1.6469 -2.5883
   34POPC  H15C 4518   0.737   3.812  10.691 -0.3431  1.4029 -0.8773
   34POPC   C11 4519   0.479   3.861  10.437 -0.6183 -0.3523 -0.9637
   34POPC  H11A 4520   0.462   3.785  10.358 -0.9825 -1.8916  0.5250
   34POPC  H11B 4521   0.421   3.948  10.398  0.0966 -0.8543 -3.3016
   34POPC     P 4522   0.390   3.904  10.676 -0.0650 -0.5444 -0.4124
   34POPC   O13 4523   0.479   4.024  10.683  0.0339 -0.1712  0.2709
   34POPC   O14 4524   0.390   3.811  10.795 -0.3765  0.2490 -0.1977
   34POPC   O12 4525   0.424   3.811  10.559 -0.4123 -0.6573  0.2443
   34POPC   O11 4526   0.232   3.951  10.652  0.2193  0.3288  0.0640
   34POPC    C1 4527   0.213   4.064  10.569 -1.0771  0.2524  0.3608
   34POPC    HA 4528   0.302   4.096  10.511  1.0927  1.0862  3.8556
   34POPC    HB 4529   0.190   4.151  10.635 -1.1291  1.7565 -1.5633
   34POPC    C2 4530   0.096   4.044  10.462  0.8605  0.2154 -0.5446
   34POPC    HS 4531   0.007   4.019  10.523 -0.3065  3.6647 -0.6609
   34POPC   O21 4532   0.143   3.932  10.385 -0.1595 -0.0948  0.9018
   34POPC   C21 4533   0.099   3.812  10.419  0.1336 -0.3242  0.6961
   34POPC   O22 4534   0.032   3.780  10.514 -0.0423 -0.9307  0.1688
   34POPC   C22 4535   0.157   3.715  10.318  0.0480  0.5430  0.3816
   34POPC   H2R 4536   0.268   3.715  10.327  0.1121  4.3593  1.1437
   34POPC   H2S 4537   0.126   3.757  10.220  0.7751 -0.5650 -0.3511
   34POPC    C3 4538   0.071   4.167  10.383  0.7072 -0.1963  0.1602
   34POPC    HX 4539   0.174   4.201  10.356  1.1164  0.6670  2.5206
   34POPC    HY 4540   0.039   4.252  10.447  2.1359  0.1131  0.5189
   34POPC   O31 4541  -0.012   4.137  10.272  0.5121 -0.1675  0.5338
   34POPC   C31 4542  -0.138   4.143  10.294  0.2546 -0.9745 -0.1221
   34POPC   O32 4543  -0.195   4.150  10.401  0.2853  0.5446  0.0540
   34POPC   C32 4544  -0.211   4.140  10.162  0.2212  0.6583  0.8565
   34POPC   H2X 4545  -0.177   4.056  10.098 -1.7947  1.5744 -1.6144
   34POPC   H2Y 4546  -0.198   4.240  10.115 -2.2691  0.3973 -0.5630
   34POPC   C23 4547   0.098   3.572  10.334 -0.2942  0.4701 -0.1980
   34POPC   H3R 4548  -0.010   3.577  10.310 -0.0403 -0.5058 -1.6809
   34POPC   H3S 4549   0.103   3.553  10.443  0.0537 -0.4719 -0.3694
   34POPC   C24 4550   0.172   3.473  10.252  0.5037 -0.2510 -0.4931
   34POPC   H4R 4551   0.131   3.370  10.258 -1.6808  0.5046 -1.2501
   34POPC   H4S 4552   0.278   3.477  10.286  0.2354 -1.4649  0.5469
   34POPC   C25 4553   0.170   3.501  10.102 -0.4208  0.3195 -0.4514
   34POPC   H5R 4554   0.180   3.611  10.091 -2.7371  0.9921  2.8032
   34POPC   H5S 4555   0.071   3.461  10.071 -0.3223 -0.8130  0.5851
   34POPC   C26 4556   0.279   3.435  10.020  1.0116  0.9480 -0.0185
   34POPC   H6R 4557   0.375   3.482  10.052  1.0582 -0.6043  2.3445
   34POPC   H6S 4558   0.262   3.456   9.912 -1.9146 -2.5946 -0.4456
   34POPC   C27 4559   0.284   3.278  10.043  0.1791  0.1446  0.3492
   34POPC   H7R 4560   0.179   3.243  10.039 -0.1364  1.1077 -0.4864
   34POPC   H7S 4561   0.326   3.260  10.144 -1.3902  1.2664  1.2461
   34POPC   C28 4562   0.370   3.212   9.936 -0.8204  0.6915 -0.2406
   34POPC   H8R 4563   0.390   3.110   9.977 -0.6301 -0.3655 -2.7751
   34POPC   H8S 4564   0.472   3.254   9.924  0.3292 -1.6652  0.5375
   34POPC   C29 4565   0.305   3.203   9.805 -0.1002 -0.3679 -0.3826
   34POPC   H91 4566   0.314   3.300   9.756  0.7176 -0.0996  0.2750
   34POPC  C210 4567   0.246   3.100   9.745  0.8235 -0.2727  0.8279
   34POPC  H101 4568   0.195   3.110   9.648 -0.0605 -0.7984  1.2179
   34POPC  C211 4569   0.244   2.965   9.819 -0.0283 -0.0598  0.3712
   34POPC  H11R 4570   0.203   2.969   9.922  1.4267  1.3203  0.9449
   34POPC  H11S 4571   0.350   2.936   9.836  0.8707  2.2133 -0.8360
   34POPC  C212 4572   0.164   2.863   9.738 -0.1004  0.0175  0.5307
   34POPC  H12R 4573   0.055   2.885   9.732 -0.3480 -1.4140 -1.0935
   34POPC  H12S 4574   0.184   2.775   9.803  1.4888  0.3136  0.4639
   34POPC  C213 4575   0.223   2.837   9.598  0.4475  0.0553  0.4609
   34POPC  H13R 4576   0.334   2.838   9.588  0.5811 -1.0909  1.6022
   34POPC  H13S 4577   0.180   2.916   9.532 -0.3611 -1.7800 -1.3017
   34POPC  C214 4578   0.177   2.701   9.537  0.2978 -0.1763 -0.1820
   34POPC  H14R 4579   0.067   2.685   9.540  0.5468 -2.0888 -0.3454
   34POPC  H14S 4580   0.204   2.618   9.606  1.5704  1.9700  2.0455
   34POPC  C215 4581   0.216   2.696   9.390  0.4223 -0.3756 -0.2268
   34POPC  H15R 4582   0.241   2.591   9.361 -0.8904 -0.8160  0.1411
   34POPC  H15S 4583   0.316   2.744   9.389 -0.3577  1.3711  0.9698
   34POPC  C216 4584   0.122   2.780   9.296 -0.2486  0.2252 -0.0468
   34POPC  H16R 4585   0.185   2.840   9.227  0.1291 -0.1275 -0.0163
   34POPC  H16S 4586   0.058   2.845   9.359  0.4930 -0.3772  1.3656
   34POPC  C217 4587   0.028   2.693   9.216  1.1911  0.0248  0.3615
   34POPC  H17R 4588  -0.052   2.758   9.174  1.3251  0.8384  1.3171
   34POPC  H17S 4589  -0.017   2.621   9.287  1.2441  1.3181  1.7543
   34POPC  C218 4590   0.102   2.625   9.102  0.3812 -0.5969  0.3885
   34POPC  H18R 4591   0.170   2.544   9.135  1.0229  0.3356  1.3882
   34POPC  H18S 4592   0.155   2.702   9.042 -0.4313  0.7436  1.3286
   34POPC  H18T 4593   0.034   2.569   9.033 -1.0183  0.1545  1.1251
   34POPC   C33 4594  -0.367   4.140  10.177 -0.4319 -0.4568 -0.0147
   34POPC   H3X 4595  -0.393   4.237  10.224 -0.2581 -0.6260  0.4447
   34POPC   H3Y 4596  -0.400   4.055  10.241 -0.7428 -0.4914 -0.2180
   34POPC   C34 4597  -0.438   4.121  10.033  0.0142 -0.8928 -0.4074
   34POPC   H4X 4598  -0.377   4.062   9.961  0.8487 -0.7107  0.1281
   34POPC   H4Y 4599  -0.422   4.227  10.005 -3.0949 -0.7243 -1.9237
   34POPC   C35 4600  -0.578   4.078  10.047  0.2329  0.9682 -0.1790
   34POPC   H5X 4601  -0.639   4.121  10.129 -0.1537 -0.6088  0.3813
   34POPC   H5Y 4602  -0.572   3.967  10.053  3.7990  0.8012 -3.2501
   34POPC   C36 4603  -0.671   4.098   9.926  0.1751  0.8979 -0.0674
   34POPC   H6X 4604  -0.719   4.197   9.940  1.3315  1.2648  1.5878
   34POPC   H6Y 4605  -0.747   4.017   9.926  1.7420 -0.7879 -3.2466
   34POPC   C37 4606  -0.596   4.092   9.794 -0.4019  0.4811  0.7712
   34POPC   H7X 4607  -0.555   3.990   9.782 -1.6122 -0.2267  2.2448
   34POPC   H7Y 4608  -0.522   4.174   9.784 -1.3670  1.1311 -1.7895
   34POPC   C38 4609  -0.681   4.098   9.667 -0.2928 -0.0207  0.0205
   34POPC   H8X 4610  -0.752   4.183   9.670  0.3209  0.5548 -1.1215
   34POPC   H8Y 4611  -0.747   4.009   9.680  1.3803 -0.9478  3.0004
   34POPC   C39 4612  -0.598   4.100   9.539 -0.8336  0.2309 -0.7936
   34POPC   H9X 4613  -0.507   4.036   9.544 -0.0397  1.2954 -1.3856
   34POPC   H9Y 4614  -0.564   4.202   9.515  1.4615  0.3267  2.2510
   34POPC  C310 4615  -0.663   4.042   9.409  0.0278  0.2865  0.2308
   34POPC  H10X 4616  -0.764   4.086   9.396 -1.5468 -2.6567  1.3606
   34POPC  H10Y 4617  -0.676   3.933   9.426  1.6308 -0.2165 -1.4767
   34POPC  C311 4618  -0.585   4.053   9.275 -0.5403 -0.3739 -0.2703
   34POPC  H11X 4619  -0.486   4.004   9.283 -0.1079  0.7441  2.0598
   34POPC  H11Y 4620  -0.573   4.163   9.259  0.7376 -0.5657 -0.7619
   34POPC  C312 4621  -0.661   3.999   9.153  0.3336  0.9167 -0.3831
   34POPC  H12X 4622  -0.696   3.896   9.177 -0.6844  1.3279 -0.0917
   34POPC  H12Y 4623  -0.582   3.980   9.076  1.8243  3.6887  0.3424
   34POPC  C313 4624  -0.775   4.095   9.102 -0.1932 -0.5570  0.6511
   34POPC  H13X 4625  -0.748   4.201   9.120 -0.9806 -0.2410  0.0089
   34POPC  H13Y 4626  -0.869   4.078   9.160 -0.9051 -0.2344 -0.3798
   34POPC  C314 4627  -0.808   4.069   8.952 -0.2486 -1.1387 -0.5462
   34POPC  H14X 4628  -0.847   3.966   8.935  0.5398 -1.6566  0.6070
   34POPC  H14Y 4629  -0.712   4.083   8.898 -0.4354  2.2445 -0.1709
   34POPC  C315 4630  -0.908   4.164   8.893  0.2169  0.5213  1.0941
   34POPC  H15X 4631  -0.854   4.261   8.888 -1.9607  1.7315 -1.5990
   34POPC  H15Y 4632  -0.997   4.180   8.959 -1.3158  0.6110 -0.8946
   34POPC  C316 4633  -0.938   4.125   8.747  0.0796  0.0771 -0.4213
   34POPC  H16X 4634  -0.976   4.206   8.681  2.0868  0.4124 -1.2195
   34POPC  H16Y 4635  -0.991   4.027   8.748 -0.9897  0.6424  0.4598
   34POPC  H16Z 4636  -0.840   4.110   8.696  0.3028  0.3421 -0.0689
   35POPC     N 4637   6.685   5.392  11.010 -0.1134  0.3007 -0.3493
   35POPC   C12 4638   6.578   5.491  11.047  0.1184  0.1681 -0.2446
   35POPC  H12A 4639   6.520   5.450  11.128 -0.3321  1.1283 -0.0655
   35POPC  H12B 4640   6.517   5.498  10.958  0.7887 -1.7328 -0.9172
   35POPC   C13 4641   6.750   5.441  10.883 -0.3214 -0.8948  0.1854
   35POPC  H13A 4642   6.821   5.376  10.835  0.5108  1.1360 -1.4691
   35POPC  H13B 4643   6.679   5.455  10.803  0.5255 -2.6180 -0.9319
   35POPC  H13C 4644   6.797   5.537  10.898  2.6950 -2.0148 -1.3100
   35POPC   C14 4645   6.803   5.388  11.104  0.4733  0.1650 -0.3413
   35POPC  H14A 4646   6.846   5.486  11.122 -0.1308 -0.0929  3.1848
   35POPC  H14B 4647   6.762   5.361  11.200  1.4241 -1.5350 -0.3780
   35POPC  H14C 4648   6.873   5.316  11.065  2.1694  2.3115 -1.5122
   35POPC   C15 4649   6.618   5.255  11.000 -0.3543  0.0711  0.1920
   35POPC  H15A 4650   6.565   5.256  10.906  1.5965 -1.4950 -0.9979
   35POPC  H15B 4651   6.551   5.244  11.085 -1.7081 -1.1454 -0.9871
   35POPC  H15C 4652   6.700   5.187  10.984  0.4295  1.0022  0.1137
   35POPC   C11 4653   6.624   5.638  11.068 -0.6366 -0.1653 -0.1352
   35POPC  H11A 4654   6.663   5.677  10.972  1.0178 -1.7066 -0.1374
   35POPC  H11B 4655   6.700   5.636  11.149 -1.2530 -0.9156  0.4473
   35POPC     P 4656   6.492   5.865  11.076 -0.0548  0.0198  0.2697
   35POPC   O13 4657   6.600   5.944  11.138  0.1980 -0.4222 -0.3760
   35POPC   O14 4658   6.351   5.903  11.112  0.3240  0.4946 -0.1198
   35POPC   O12 4659   6.508   5.706  11.107 -0.3799  0.1356  0.1234
   35POPC   O11 4660   6.507   5.874  10.913 -0.6942  0.5880 -0.4432
   35POPC    C1 4661   6.413   5.798  10.834  0.0700 -0.4983 -0.5249
   35POPC    HA 4662   6.307   5.831  10.843  0.4525  0.6826 -0.1522
   35POPC    HB 4663   6.424   5.688  10.841  0.2802 -0.4202  0.3740
   35POPC    C2 4664   6.440   5.825  10.679  0.2058  0.2232  0.5931
   35POPC    HS 4665   6.400   5.740  10.620  1.0845 -0.5864  1.1189
   35POPC   O21 4666   6.581   5.845  10.646 -0.1971  0.1240  0.0443
   35POPC   C21 4667   6.651   5.730  10.637  0.0507  0.7620 -0.0476
   35POPC   O22 4668   6.612   5.620  10.660 -0.0369  0.3718 -0.1832
   35POPC   C22 4669   6.785   5.762  10.581 -0.5614  0.7853  0.1753
   35POPC   H2R 4670   6.862   5.779  10.659 -1.1082  1.7252  0.5175
   35POPC   H2S 4671   6.789   5.862  10.532 -1.4436  0.9400  0.4094
   35POPC    C3 4672   6.369   5.959  10.640  0.2383 -0.0664 -0.7273
   35POPC    HX 4673   6.375   6.038  10.718 -1.2146 -1.6176  1.0463
   35POPC    HY 4674   6.259   5.939  10.643 -0.1483  1.4808 -2.5045
   35POPC   O31 4675   6.389   6.013  10.508 -0.4429  0.4485  1.1142
   35POPC   C31 4676   6.488   6.100  10.496 -0.5671 -0.3284 -0.3023
   35POPC   O32 4677   6.567   6.139  10.580  0.6838  0.1773  0.4699
   35POPC   C32 4678   6.481   6.148  10.345 -0.0083 -0.0948 -0.5042
   35POPC   H2X 4679   6.398   6.222  10.344  0.4459  0.4161 -0.7516
   35POPC   H2Y 4680   6.452   6.062  10.281 -0.5659  0.1323 -0.5568
   35POPC   C23 4681   6.842   5.656  10.477  0.1956 -0.4033 -0.0413
   35POPC   H3R 4682   6.867   5.557  10.520 -0.2237  0.2512  1.7730
   35POPC   H3S 4683   6.933   5.714  10.452  0.2586 -0.9547 -1.1742
   35POPC   C24 4684   6.750   5.648  10.354  0.5006  0.8466  0.8901
   35POPC   H4R 4685   6.654   5.594  10.365  0.0918  1.0890 -1.1148
   35POPC   H4S 4686   6.800   5.581  10.281  0.5593 -0.4624  2.1012
   35POPC   C25 4687   6.724   5.784  10.293 -0.7807 -0.0071  0.2979
   35POPC   H5R 4688   6.816   5.846  10.301 -0.8943  0.3226 -0.7666
   35POPC   H5S 4689   6.649   5.845  10.348 -0.1268  1.6121 -0.5361
   35POPC   C26 4690   6.686   5.774  10.139  0.0249 -0.6665  0.4638
   35POPC   H6R 4691   6.601   5.707  10.112 -2.9000  2.0663  2.1701
   35POPC   H6S 4692   6.781   5.757  10.085 -1.4096 -1.8305 -1.9012
   35POPC   C27 4693   6.608   5.904  10.098 -0.1632 -0.6497  0.3622
   35POPC   H7R 4694   6.685   5.984  10.110 -0.4354 -0.3133 -0.1026
   35POPC   H7S 4695   6.526   5.923  10.169  1.3420  0.0762  1.9838
   35POPC   C28 4696   6.551   5.892   9.958 -0.0897 -0.3324 -0.4247
   35POPC   H8R 4697   6.462   5.957   9.941 -1.7205 -2.7689 -1.8998
   35POPC   H8S 4698   6.520   5.786   9.942  2.9348 -1.2921 -0.6909
   35POPC   C29 4699   6.659   5.929   9.854 -0.9321 -0.4116 -0.1305
   35POPC   H91 4700   6.759   5.893   9.882 -1.0612  0.9009  2.2074
   35POPC  C210 4701   6.649   5.998   9.739  0.9101 -0.4359  0.3209
   35POPC  H101 4702   6.732   6.007   9.666  1.4044  0.9659  1.0248
   35POPC  C211 4703   6.518   6.059   9.690 -0.3416 -0.4820  0.6193
   35POPC  H11R 4704   6.481   6.132   9.765 -0.6983  0.2310 -0.2322
   35POPC  H11S 4705   6.446   5.975   9.685  1.6658 -2.2391 -3.9199
   35POPC  C212 4706   6.511   6.104   9.546 -0.0513  0.0631 -0.3183
   35POPC  H12R 4707   6.596   6.174   9.531  0.8944 -1.0178 -0.1191
   35POPC  H12S 4708   6.422   6.169   9.532  0.0645  0.0445 -1.1922
   35POPC  C213 4709   6.510   5.984   9.454 -0.1658  1.3701 -0.2078
   35POPC  H13R 4710   6.428   5.912   9.476 -0.6969  1.7630 -0.8448
   35POPC  H13S 4711   6.609   5.935   9.467 -0.1606  1.5728  0.5575
   35POPC  C214 4712   6.471   6.031   9.310  0.8762 -0.5765 -0.1192
   35POPC  H14R 4713   6.540   5.984   9.237  1.4774 -0.2325  0.2160
   35POPC  H14S 4714   6.479   6.142   9.308 -1.9807 -0.2786  0.5979
   35POPC  C215 4715   6.323   6.011   9.260 -0.0469  0.5482  0.2360
   35POPC  H15R 4716   6.245   6.034   9.336  0.0646 -0.8874  0.8033
   35POPC  H15S 4717   6.313   5.905   9.229 -1.5655  0.7189  0.0650
   35POPC  C216 4718   6.280   6.100   9.137 -0.1740 -0.2407  0.3779
   35POPC  H16R 4719   6.315   6.202   9.163  0.0905 -0.1634 -0.2726
   35POPC  H16S 4720   6.169   6.110   9.126  0.1327  1.0434 -2.3413
   35POPC  C217 4721   6.327   6.048   9.005 -0.3624 -0.7102  0.2074
   35POPC  H17R 4722   6.278   5.949   8.994  1.4977 -1.5436 -1.3811
   35POPC  H17S 4723   6.438   6.037   9.007 -0.4491 -2.7651 -1.3815
   35POPC  C218 4724   6.279   6.150   8.900 -0.0159  0.4473 -0.0497
   35POPC  H18R 4725   6.169   6.134   8.901  0.0666 -0.9406 -2.9174
   35POPC  H18S 4726   6.308   6.120   8.797  1.7919  1.8326 -0.0075
   35POPC  H18T 4727   6.306   6.256   8.923 -0.0750  0.5696 -0.5230
   35POPC   C33 4728   6.617   6.204  10.296 -0.1155 -0.8025  0.3659
   35POPC   H3X 4729   6.696   6.126  10.287 -0.3158 -0.8232 -1.8026
   35POPC   H3Y 4730   6.650   6.296  10.349  2.5003 -1.9840  0.9631
   35POPC   C34 4731   6.589   6.262  10.153  0.1725 -0.0877 -0.4720
   35POPC   H4X 4732   6.497   6.324  10.162 -0.6711 -1.5326  2.0272
   35POPC   H4Y 4733   6.570   6.173  10.088 -1.2739 -0.4753  0.4238
   35POPC   C35 4734   6.704   6.337  10.083  0.7891  0.9209 -0.0865
   35POPC   H5X 4735   6.692   6.318   9.975  4.4425  0.6260 -0.5641
   35POPC   H5Y 4736   6.797   6.277  10.097  0.1793 -0.0830 -0.2355
   35POPC   C36 4737   6.715   6.482  10.121  0.1577  0.6639  0.0248
   35POPC   H6X 4738   6.724   6.493  10.231 -2.7666 -1.2020  0.5489
   35POPC   H6Y 4739   6.626   6.539  10.088 -0.8355 -0.7129  0.2524
   35POPC   C37 4740   6.837   6.535  10.045  0.8649  0.2488 -0.4412
   35POPC   H7X 4741   6.915   6.457  10.053  0.8417  0.3339  0.7174
   35POPC   H7Y 4742   6.876   6.624  10.099 -2.6869  0.5986  1.8874
   35POPC   C38 4743   6.812   6.568   9.896 -0.1343  0.9117 -0.5818
   35POPC   H8X 4744   6.744   6.655   9.898 -1.6820 -0.2653  0.5050
   35POPC   H8Y 4745   6.755   6.483   9.854 -2.1207  1.2505  1.2447
   35POPC   C39 4746   6.935   6.602   9.807 -0.6853  0.4698 -0.6727
   35POPC   H9X 4747   7.005   6.517   9.795 -0.8582  0.5154 -2.2170
   35POPC   H9Y 4748   6.998   6.676   9.860  0.4965 -0.6881 -0.3986
   35POPC  C310 4749   6.904   6.640   9.667 -0.2896  0.4847  0.1328
   35POPC  H10X 4750   7.006   6.666   9.632  0.3005  1.1092  2.1448
   35POPC  H10Y 4751   6.853   6.738   9.660 -0.1621  0.5675  0.3241
   35POPC  C311 4752   6.831   6.541   9.574  1.0295  0.3095 -0.3582
   35POPC  H11X 4753   6.742   6.496   9.623  0.1966  0.8141 -1.3515
   35POPC  H11Y 4754   6.886   6.448   9.548 -0.1835  0.3054 -3.2866
   35POPC  C312 4755   6.793   6.607   9.439  0.0895  0.6366 -0.4781
   35POPC  H12X 4756   6.878   6.666   9.400 -0.0176 -0.4163 -2.4154
   35POPC  H12Y 4757   6.708   6.670   9.473 -0.4921 -0.1998 -0.3253
   35POPC  C313 4758   6.742   6.497   9.342 -0.4345 -0.2877 -0.6477
   35POPC  H13X 4759   6.663   6.445   9.400 -1.4771 -0.2804 -2.0083
   35POPC  H13Y 4760   6.820   6.423   9.317  0.9658  1.3913 -1.4324
   35POPC  C314 4761   6.689   6.551   9.215 -0.0273 -0.2242 -0.5087
   35POPC  H14X 4762   6.620   6.632   9.248  1.7417  0.9353  0.5260
   35POPC  H14Y 4763   6.629   6.476   9.160 -0.7150  1.8137 -2.6904
   35POPC  C315 4764   6.803   6.612   9.135  0.5770 -0.7495 -0.4593
   35POPC  H15X 4765   6.892   6.551   9.163 -0.6895 -2.7369 -0.5665
   35POPC  H15Y 4766   6.821   6.717   9.166 -0.7193 -0.4739 -0.5666
   35POPC  C316 4767   6.789   6.599   8.982 -0.0022  0.7065 -0.7495
   35POPC  H16X 4768   6.894   6.604   8.945  0.7197 -2.2494  0.6138
   35POPC  H16Y 4769   6.727   6.682   8.942 -3.1239 -0.1508  1.9090
   35POPC  H16Z 4770   6.750   6.503   8.944  0.6782 -0.1822  0.7037
   36POPC     N 4771   0.209   4.684  10.826 -0.5882  0.1825  0.3416
   36POPC   C12 4772   0.103   4.582  10.842  0.1005 -0.2934  0.2668
   36POPC  H12A 4773   0.156   4.493  10.873  0.9365  0.4655  1.0831
   36POPC  H12B 4774   0.065   4.552  10.745  2.5983  0.0800 -0.8876
   36POPC   C13 4775   0.279   4.712  10.952 -0.0544  0.3660  0.2040
   36POPC  H13A 4776   0.359   4.782  10.937  0.3523 -0.1742 -0.1896
   36POPC  H13B 4777   0.214   4.751  11.030  0.0898 -0.5779  0.8061
   36POPC  H13C 4778   0.333   4.626  10.987  2.0306  1.9103  0.9729
   36POPC   C14 4779   0.306   4.650  10.716 -0.1356 -0.6409 -0.2115
   36POPC  H14A 4780   0.249   4.633  10.626 -2.8030  1.2471  0.9835
   36POPC  H14B 4781   0.373   4.734  10.700 -0.3735 -0.4244 -0.0831
   36POPC  H14C 4782   0.368   4.563  10.736  0.2736 -0.2052  0.4776
   36POPC   C15 4783   0.154   4.818  10.774  0.1105 -0.2970 -0.0170
   36POPC  H15A 4784   0.069   4.850  10.832  0.1504  2.2463 -1.2452
   36POPC  H15B 4785   0.118   4.810  10.673 -0.3197 -2.5602  0.2593
   36POPC  H15C 4786   0.233   4.891  10.782 -1.2542  1.0244  2.6384
   36POPC   C11 4787  -0.008   4.598  10.943  0.5846 -0.8438 -0.7191
   36POPC  H11A 4788   0.047   4.609  11.039 -1.9965 -2.4134  1.0549
   36POPC  H11B 4789  -0.077   4.512  10.954 -0.7499 -0.0197 -2.3167
   36POPC     P 4790  -0.193   4.717  10.798 -0.5150  0.3460 -0.1897
   36POPC   O13 4791  -0.187   4.851  10.731  0.0487  0.2127  0.6573
   36POPC   O14 4792  -0.319   4.670  10.862 -0.5159  0.0513  0.1957
   36POPC   O12 4793  -0.086   4.714  10.912 -0.2910 -0.1857 -0.0200
   36POPC   O11 4794  -0.144   4.605  10.693  0.2552 -0.4546 -0.0557
   36POPC    C1 4795  -0.230   4.516  10.628  1.2874  0.2677  0.4014
   36POPC    HA 4796  -0.333   4.499  10.667  1.9416 -2.5363  1.1944
   36POPC    HB 4797  -0.192   4.412  10.621  0.9367  0.1759 -0.2244
   36POPC    C2 4798  -0.250   4.557  10.481 -0.0890  0.1883 -0.0486
   36POPC    HS 4799  -0.276   4.461  10.430 -2.0656  1.1572 -0.9568
   36POPC   O21 4800  -0.129   4.617  10.424 -0.3720 -0.5333 -0.5655
   36POPC   C21 4801  -0.059   4.545  10.339  0.1101 -0.7250 -0.6993
   36POPC   O22 4802  -0.095   4.443  10.286  0.2437  0.0999 -0.0916
   36POPC   C22 4803   0.058   4.619  10.282 -0.0598  0.6482 -0.3968
   36POPC   H2R 4804   0.133   4.553  10.235 -1.1150  0.5195 -1.9898
   36POPC   H2S 4805   0.104   4.674  10.367 -3.7066  2.4701  0.6148
   36POPC    C3 4806  -0.361   4.659  10.467  0.3498  0.2780  0.5321
   36POPC    HX 4807  -0.334   4.752  10.520  3.9476 -0.4873  0.2618
   36POPC    HY 4808  -0.458   4.622  10.507  0.6654 -0.7417  0.3868
   36POPC   O31 4809  -0.372   4.688  10.323  0.1186 -0.5422  0.1130
   36POPC   C31 4810  -0.440   4.597  10.260 -0.5318  1.0033 -0.2418
   36POPC   O32 4811  -0.505   4.506  10.306  0.3517  0.0353  0.1984
   36POPC   C32 4812  -0.436   4.619  10.113  0.0992  0.2622  0.1536
   36POPC   H2X 4813  -0.499   4.709  10.094  1.6692  1.1511 -1.0837
   36POPC   H2Y 4814  -0.497   4.538  10.067 -1.3079 -0.0701  2.4213
   36POPC   C23 4815   0.007   4.727  10.185 -0.3267 -0.4449  0.4894
   36POPC   H3R 4816  -0.072   4.785  10.237  2.3771  1.9352  2.2173
   36POPC   H3S 4817  -0.043   4.686  10.095 -0.9329  1.5415 -0.1359
   36POPC   C24 4818   0.131   4.811  10.140 -0.0670 -0.3585 -0.1383
   36POPC   H4R 4819   0.214   4.749  10.101  0.2608 -0.0274  0.0328
   36POPC   H4S 4820   0.161   4.863  10.233  1.4248 -2.4993  0.6516
   36POPC   C25 4821   0.077   4.922  10.037 -0.3375  0.2742  0.2668
   36POPC   H5R 4822  -0.008   4.973  10.087  0.5865 -0.5966  2.9060
   36POPC   H5S 4823   0.048   4.867   9.945  3.5440  0.8436 -1.4962
   36POPC   C26 4824   0.189   5.024  10.001 -0.0835  0.6563  0.7090
   36POPC   H6R 4825   0.281   4.970   9.968 -1.6449 -2.6177  1.3409
   36POPC   H6S 4826   0.223   5.083  10.089  2.8676 -0.0088  0.1226
   36POPC   C27 4827   0.165   5.131   9.890  0.2018 -0.2285 -0.8699
   36POPC   H7R 4828   0.237   5.213   9.907 -1.1199  0.6287  0.9448
   36POPC   H7S 4829   0.059   5.164   9.901  0.1206 -1.2702  2.8071
   36POPC   C28 4830   0.183   5.062   9.754 -0.4975 -0.6560  0.0423
   36POPC   H8R 4831   0.117   4.974   9.737  1.3171 -2.1039  0.1798
   36POPC   H8S 4832   0.280   5.008   9.753  0.7840  1.4824  0.6915
   36POPC   C29 4833   0.177   5.148   9.626  0.6803  0.5485 -0.7625
   36POPC   H91 4834   0.126   5.244   9.644 -2.8684 -1.0662 -1.2100
   36POPC  C210 4835   0.242   5.135   9.510  1.1833  0.4583  0.6198
   36POPC  H101 4836   0.220   5.203   9.426  0.2881  0.0752  0.5381
   36POPC  C211 4837   0.336   5.021   9.468 -0.1525  0.1368  0.5984
   36POPC  H11R 4838   0.346   4.954   9.556  2.0006 -0.4273 -0.0208
   36POPC  H11S 4839   0.437   5.061   9.447 -0.2042 -0.2937 -0.5736
   36POPC  C212 4840   0.286   4.918   9.364 -0.5162  0.2530  0.4295
   36POPC  H12R 4841   0.175   4.913   9.367 -0.6920  2.3935 -0.7224
   36POPC  H12S 4842   0.329   4.819   9.391 -1.4862  0.0816  1.4328
   36POPC  C213 4843   0.307   4.957   9.219  0.6512  0.0826  0.1470
   36POPC  H13R 4844   0.261   5.057   9.210 -0.6902 -0.4075  1.1810
   36POPC  H13S 4845   0.246   4.886   9.158  1.4540 -1.1724  0.7539
   36POPC  C214 4846   0.452   4.936   9.158  0.8951 -0.3262 -0.7030
   36POPC  H14R 4847   0.476   4.828   9.165 -1.9295 -0.9215  2.0114
   36POPC  H14S 4848   0.530   4.989   9.217  1.0711  2.3908 -3.1747
   36POPC  C215 4849   0.460   4.969   9.007 -0.4903  0.4438 -0.1647
   36POPC  H15R 4850   0.482   5.077   8.993  1.0278  0.2512  0.4860
   36POPC  H15S 4851   0.364   4.934   8.965 -0.2255 -2.7618  1.6165
   36POPC  C216 4852   0.583   4.898   8.945 -0.0062 -0.4774  0.5983
   36POPC  H16R 4853   0.567   4.788   8.952  0.8443 -0.5653  1.3328
   36POPC  H16S 4854   0.669   4.925   9.009  0.1962  1.4502 -0.4266
   36POPC  C217 4855   0.601   4.952   8.799  0.2373 -0.6447 -0.3730
   36POPC  H17R 4856   0.667   5.040   8.817  0.0220 -0.4226 -0.6701
   36POPC  H17S 4857   0.499   4.977   8.763  0.4517 -0.5485 -0.9192
   36POPC  C218 4858   0.670   4.862   8.691  0.6559  0.2015  0.2211
   36POPC  H18R 4859   0.660   4.917   8.595  2.0765  1.7700  0.9034
   36POPC  H18S 4860   0.619   4.764   8.684  0.2585  0.3881  0.4448
   36POPC  H18T 4861   0.778   4.852   8.714  1.1838  2.0358 -1.1369
   36POPC   C33 4862  -0.293   4.633  10.064 -0.3159  0.1453  0.1349
   36POPC   H3X 4863  -0.238   4.550  10.114  0.0409  0.3190  0.0380
   36POPC   H3Y 4864  -0.248   4.732  10.087 -0.3325  0.8343 -2.4992
   36POPC   C34 4865  -0.281   4.612   9.916  0.0798 -0.1922  0.0167
   36POPC   H4X 4866  -0.212   4.681   9.863  0.3127  0.9666  1.7444
   36POPC   H4Y 4867  -0.381   4.637   9.874  0.6936  2.5488 -0.0413
   36POPC   C35 4868  -0.253   4.461   9.869  0.1985 -0.3753  0.2474
   36POPC   H5X 4869  -0.332   4.398   9.916  0.3043 -1.0071 -0.4066
   36POPC   H5Y 4870  -0.152   4.428   9.900  0.7797  1.8546  0.9497
   36POPC   C36 4871  -0.267   4.424   9.724  0.3079 -0.3418  0.4165
   36POPC   H6X 4872  -0.188   4.480   9.669 -0.1577  0.4670  0.5590
   36POPC   H6Y 4873  -0.373   4.440   9.692 -0.3447  0.7734  2.8978
   36POPC   C37 4874  -0.248   4.269   9.714  0.1755 -0.4904 -0.3626
   36POPC   H7X 4875  -0.314   4.214   9.784  1.9666  0.9080  2.6239
   36POPC   H7Y 4876  -0.146   4.249   9.754  1.5995  0.6067 -3.1848
   36POPC   C38 4877  -0.252   4.209   9.568  0.6533  0.0991 -0.7886
   36POPC   H8X 4878  -0.354   4.204   9.524  1.1783  1.5753 -2.3038
   36POPC   H8Y 4879  -0.227   4.102   9.581 -2.5376 -0.6936 -0.4250
   36POPC   C39 4880  -0.165   4.297   9.474 -0.0983 -0.1109 -0.4210
   36POPC   H9X 4881  -0.073   4.308   9.536 -0.5752  0.0254  0.2728
   36POPC   H9Y 4882  -0.210   4.398   9.458 -2.6084 -1.2736 -1.0879
   36POPC  C310 4883  -0.142   4.231   9.342 -0.0829  0.3856  0.2550
   36POPC  H10X 4884  -0.234   4.184   9.301  1.0731 -0.2075 -1.8273
   36POPC  H10Y 4885  -0.068   4.149   9.352 -1.7177 -0.9505  2.2612
   36POPC  C311 4886  -0.101   4.333   9.236 -0.3418 -0.7450  0.0751
   36POPC  H11X 4887  -0.004   4.370   9.276  0.5656 -1.1187 -1.7197
   36POPC  H11Y 4888  -0.169   4.421   9.229 -0.2337 -0.7745 -1.5738
   36POPC  C312 4889  -0.080   4.281   9.090  0.2581  0.3791  0.2793
   36POPC  H12X 4890  -0.032   4.180   9.092 -3.5856 -1.6252  0.1195
   36POPC  H12Y 4891  -0.013   4.346   9.030 -0.0418  0.0449 -0.4357
   36POPC  C313 4892  -0.198   4.274   8.995  0.4160 -1.1456 -0.5861
   36POPC  H13X 4893  -0.162   4.245   8.894  0.7172  0.3763 -0.9477
   36POPC  H13Y 4894  -0.223   4.382   8.988 -1.1546 -1.5212 -1.2068
   36POPC  C314 4895  -0.321   4.194   9.037  0.5235  0.3944 -0.1077
   36POPC  H14X 4896  -0.377   4.239   9.122  0.6287 -0.6914  0.5558
   36POPC  H14Y 4897  -0.287   4.097   9.079  2.6178 -0.1513 -2.8050
   36POPC  C315 4898  -0.411   4.170   8.919  0.1852  0.5489  0.1490
   36POPC  H15X 4899  -0.512   4.137   8.953  0.1871  0.9943  0.6039
   36POPC  H15Y 4900  -0.367   4.090   8.856 -0.0020  1.4414 -1.1420
   36POPC  C316 4901  -0.436   4.301   8.842 -0.8381 -0.5021  0.2986
   36POPC  H16X 4902  -0.518   4.284   8.768  0.1198 -3.0488 -0.2783
   36POPC  H16Y 4903  -0.357   4.354   8.785 -1.2642 -1.0528 -0.8488
   36POPC  H16Z 4904  -0.480   4.365   8.922  2.0700 -0.1296  1.7159
   37POPC     N 4905   0.158   1.968   6.373 -0.0806 -0.2639 -0.2263
   37POPC   C12 4906   0.165   1.842   6.464  0.4530 -0.8126  0.4269
   37POPC  H12A 4907   0.264   1.840   6.508 -0.0803 -1.0359  1.6705
   37POPC  H12B 4908   0.151   1.764   6.391  0.1751  0.4139 -0.8650
   37POPC   C13 4909   0.269   1.975   6.274  0.7640  0.4740 -0.2512
   37POPC  H13A 4910   0.257   1.902   6.195  2.0043  2.5150 -2.4770
   37POPC  H13B 4911   0.272   2.068   6.218 -0.1464  1.2897  1.0228
   37POPC  H13C 4912   0.364   1.964   6.324 -0.2929 -0.2844  1.6586
   37POPC   C14 4913   0.035   1.975   6.287  0.3168 -0.0799 -0.1478
   37POPC  H14A 4914   0.029   1.895   6.215 -0.2500 -1.0048  0.8999
   37POPC  H14B 4915  -0.044   1.962   6.359  1.5284 -1.2522  1.0303
   37POPC  H14C 4916   0.034   2.070   6.235 -3.7205  2.0127  3.2116
   37POPC   C15 4917   0.175   2.096   6.444  0.3038 -0.2899  0.2008
   37POPC  H15A 4918   0.270   2.103   6.494 -0.2503 -0.0375  1.2334
   37POPC  H15B 4919   0.090   2.125   6.504  0.8624 -0.4277  1.0783
   37POPC  H15C 4920   0.173   2.172   6.367 -0.2429  0.5876  1.0607
   37POPC   C11 4921   0.066   1.837   6.582 -0.4749  0.6282  0.8635
   37POPC  H11A 4922   0.071   1.927   6.647  0.0410  1.8120 -0.7518
   37POPC  H11B 4923   0.095   1.751   6.647  3.0303  2.6606  2.3168
   37POPC     P 4924  -0.126   1.697   6.472  0.4741  0.0500 -0.1422
   37POPC   O13 4925  -0.033   1.632   6.380  0.6605  0.1812  0.3864
   37POPC   O14 4926  -0.263   1.725   6.418 -0.6895  0.0316  0.1953
   37POPC   O12 4927  -0.062   1.830   6.522  0.2322  0.5880 -0.3043
   37POPC   O11 4928  -0.140   1.611   6.600 -0.4547  0.1622  0.0823
   37POPC    C1 4929  -0.197   1.669   6.727 -0.9081 -0.0100  0.9850
   37POPC    HA 4930  -0.274   1.745   6.699  0.2200  0.8051  0.0108
   37POPC    HB 4931  -0.108   1.706   6.781 -0.1146 -1.7450  0.9152
   37POPC    C2 4932  -0.278   1.570   6.818  0.0199 -0.3900 -0.3497
   37POPC    HS 4933  -0.345   1.616   6.893  1.1389  0.9294 -0.1127
   37POPC   O21 4934  -0.189   1.478   6.885 -0.0156  0.0376  0.0574
   37POPC   C21 4935  -0.134   1.542   6.984 -0.1975 -0.0103 -0.4335
   37POPC   O22 4936  -0.160   1.658   7.016 -0.5567  0.2363  0.3516
   37POPC   C22 4937  -0.015   1.464   7.045  0.2912 -0.3390 -0.4371
   37POPC   H2R 4938   0.081   1.501   7.004  0.0599  2.2143  1.1049
   37POPC   H2S 4939  -0.034   1.362   7.008  0.8052  0.3562 -2.7605
   37POPC    C3 4940  -0.376   1.490   6.721  0.4694  0.0080 -0.0091
   37POPC    HX 4941  -0.321   1.416   6.660 -1.2439 -0.8969 -0.5163
   37POPC    HY 4942  -0.411   1.566   6.647 -0.4774  0.0181  0.4369
   37POPC   O31 4943  -0.495   1.446   6.781 -0.6491 -0.1781  0.1055
   37POPC   C31 4944  -0.557   1.338   6.729 -0.5535  0.1594 -0.0950
   37POPC   O32 4945  -0.505   1.267   6.649 -0.2599  0.1001  0.0527
   37POPC   C32 4946  -0.692   1.331   6.797 -0.4255  0.1582 -0.0749
   37POPC   H2X 4947  -0.748   1.239   6.770  1.6357 -1.0476 -0.5141
   37POPC   H2Y 4948  -0.751   1.423   6.780 -1.9443 -0.8724 -0.6290
   37POPC   C23 4949  -0.012   1.475   7.199 -0.3263  0.1447  0.1638
   37POPC   H3R 4950   0.053   1.396   7.242 -1.2613 -1.0223 -0.5376
   37POPC   H3S 4951  -0.110   1.462   7.249  0.6821 -0.0767  2.1716
   37POPC   C24 4952   0.047   1.601   7.266  0.0986  0.0581  0.9863
   37POPC   H4R 4953  -0.007   1.696   7.245  3.0839  2.0667  1.6947
   37POPC   H4S 4954   0.145   1.622   7.216  0.3044 -0.1965  1.2784
   37POPC   C25 4955   0.065   1.582   7.421 -0.1403  0.4670 -0.1155
   37POPC   H5R 4956   0.150   1.632   7.473  0.9034 -0.5562 -0.8038
   37POPC   H5S 4957   0.078   1.473   7.437 -2.0544 -0.4581 -3.8487
   37POPC   C26 4958  -0.065   1.603   7.504 -0.1297 -1.0401  0.0381
   37POPC   H6R 4959  -0.073   1.546   7.599  1.6258 -2.1470 -0.4356
   37POPC   H6S 4960  -0.138   1.550   7.441  0.9483 -0.8765 -1.4064
   37POPC   C27 4961  -0.105   1.753   7.511 -0.2317  0.4173 -0.6860
   37POPC   H7R 4962  -0.212   1.755   7.542 -0.5921  3.7921 -1.7880
   37POPC   H7S 4963  -0.096   1.791   7.407  0.0376  0.0217 -0.8074
   37POPC   C28 4964  -0.017   1.830   7.615  0.6286  0.0637 -0.7632
   37POPC   H8R 4965  -0.053   1.934   7.627 -0.3385 -0.3770  0.2038
   37POPC   H8S 4966   0.081   1.825   7.561  1.3575  0.2647  0.5153
   37POPC   C29 4967  -0.012   1.755   7.751  0.4594 -0.4369  0.0555
   37POPC   H91 4968   0.064   1.675   7.755  1.1540  0.2482  0.9001
   37POPC  C210 4969  -0.090   1.779   7.860 -0.0644  0.3672 -0.4712
   37POPC  H101 4970  -0.071   1.729   7.956 -0.8124 -2.5591 -1.7318
   37POPC  C211 4971  -0.208   1.870   7.862 -0.2125 -0.5563  0.3881
   37POPC  H11R 4972  -0.289   1.835   7.794  0.4950 -0.1379 -0.7147
   37POPC  H11S 4973  -0.186   1.969   7.815 -1.7959  0.3546  1.4882
   37POPC  C212 4974  -0.271   1.909   7.994 -0.4582 -0.0215 -0.7010
   37POPC  H12R 4975  -0.203   1.967   8.059 -0.3794 -0.7954 -0.0796
   37POPC  H12S 4976  -0.293   1.812   8.044  2.2476  1.1358  3.1838
   37POPC  C213 4977  -0.412   1.979   7.981 -0.8834  0.3065  0.5147
   37POPC  H13R 4978  -0.481   1.906   7.934 -0.0293  1.5828 -3.0488
   37POPC  H13S 4979  -0.406   2.067   7.913  1.0409 -0.0835  0.1233
   37POPC  C214 4980  -0.471   2.021   8.114 -0.3191  0.3694 -0.3322
   37POPC  H14R 4981  -0.388   2.076   8.163  1.6975 -1.5348 -1.4424
   37POPC  H14S 4982  -0.475   1.936   8.185 -0.0890 -0.5107 -1.3485
   37POPC  C215 4983  -0.604   2.099   8.095 -0.0396  0.2355  0.4563
   37POPC  H15R 4984  -0.687   2.027   8.078  0.4315 -0.2985  0.4050
   37POPC  H15S 4985  -0.580   2.156   8.003  1.7853  0.5666  1.0987
   37POPC  C216 4986  -0.632   2.214   8.195  0.4468 -0.1923  0.9317
   37POPC  H16R 4987  -0.715   2.276   8.153  1.6250 -0.1542 -1.5588
   37POPC  H16S 4988  -0.537   2.271   8.201 -0.1228  0.9050 -0.0081
   37POPC  C217 4989  -0.668   2.159   8.335  0.1757  0.1212  0.0585
   37POPC  H17R 4990  -0.618   2.060   8.342  0.7104  0.4823  2.0991
   37POPC  H17S 4991  -0.777   2.142   8.323  0.0871  1.5341 -1.4961
   37POPC  C218 4992  -0.639   2.253   8.451  0.9464  0.7745  0.4606
   37POPC  H18R 4993  -0.531   2.277   8.447  1.1680 -0.2570 -0.0713
   37POPC  H18S 4994  -0.665   2.218   8.553 -0.8372  0.0697 -0.1891
   37POPC  H18T 4995  -0.698   2.345   8.427 -1.3116 -0.7346 -0.1086
   37POPC   C33 4996  -0.666   1.304   6.953 -0.5726 -0.3512 -0.0582
   37POPC   H3X 4997  -0.597   1.382   6.991  2.1806 -1.6725 -1.9857
   37POPC   H3Y 4998  -0.615   1.206   6.953 -1.3584 -0.7659  0.3306
   37POPC   C34 4999  -0.796   1.299   7.032 -0.2387 -0.5380  0.3013
   37POPC   H4X 5000  -0.867   1.235   6.976 -0.0320 -0.9741  0.5406
   37POPC   H4Y 5001  -0.830   1.405   7.039  1.4239 -0.1137  3.9963
   37POPC   C35 5002  -0.777   1.241   7.173 -0.1935  1.2099  0.0266
   37POPC   H5X 5003  -0.731   1.140   7.171  0.6516  1.5843 -1.9521
   37POPC   H5Y 5004  -0.882   1.224   7.207  0.8829 -1.0829  2.5243
   37POPC   C36 5005  -0.696   1.316   7.278 -0.1716  0.4578  0.0711
   37POPC   H6X 5006  -0.709   1.423   7.254  0.2149  0.9280  1.7904
   37POPC   H6Y 5007  -0.585   1.301   7.280 -0.2314  0.0266  0.4880
   37POPC   C37 5008  -0.757   1.272   7.415 -0.4271  0.2775 -0.1722
   37POPC   H7X 5009  -0.683   1.294   7.494  1.6539  1.3586 -2.2778
   37POPC   H7Y 5010  -0.759   1.161   7.418 -0.6880  0.2981  0.3726
   37POPC   C38 5011  -0.899   1.334   7.448 -0.3592  0.0147 -0.4867
   37POPC   H8X 5012  -0.955   1.352   7.353  1.6769  0.2677 -1.6902
   37POPC   H8Y 5013  -0.876   1.428   7.503  0.5303  0.1906 -1.1354
   37POPC   C39 5014  -0.980   1.237   7.537 -0.0971 -1.0717  0.1829
   37POPC   H9X 5015  -0.966   1.141   7.484  2.5090  0.3290 -1.9633
   37POPC   H9Y 5016  -1.089   1.259   7.539  0.1523  0.3383 -0.2341
   37POPC  C310 5017  -0.926   1.237   7.686 -0.0667 -0.2073  0.1478
   37POPC  H10X 5018  -0.923   1.341   7.724 -0.3869 -0.4588  0.8881
   37POPC  H10Y 5019  -0.817   1.215   7.675  0.0373  0.6446 -0.7238
   37POPC  C311 5020  -0.997   1.146   7.789  0.0970  0.4372  0.7518
   37POPC  H11X 5021  -0.977   1.040   7.763 -2.3882 -0.2451  1.3956
   37POPC  H11Y 5022  -1.106   1.146   7.767  0.3255 -0.2861 -0.4320
   37POPC  C312 5023  -0.975   1.186   7.937  0.1860 -0.7101 -0.5981
   37POPC  H12X 5024  -1.007   1.292   7.942 -1.8679 -1.2670 -1.1703
   37POPC  H12Y 5025  -0.866   1.182   7.961  0.6437  1.1217 -2.1606
   37POPC  C313 5026  -1.052   1.092   8.025 -0.0185  0.3247  0.0867
   37POPC  H13X 5027  -0.997   0.996   8.036  1.7556  1.3685  0.7114
   37POPC  H13Y 5028  -1.149   1.064   7.979  1.3180 -1.0855 -2.0427
   37POPC  C314 5029  -1.096   1.150   8.170 -0.3847 -0.7906  0.1253
   37POPC  H14X 5030  -1.128   1.256   8.175  1.7669 -0.0267 -1.1142
   37POPC  H14Y 5031  -0.997   1.152   8.219  0.7178 -1.5550 -1.9515
   37POPC  C315 5032  -1.184   1.051   8.245  0.1666 -0.8545  0.6376
   37POPC  H15X 5033  -1.142   0.950   8.227  0.8806 -0.7902  1.8336
   37POPC  H15Y 5034  -1.291   1.052   8.217 -0.0362 -5.2166  0.6668
   37POPC  C316 5035  -1.178   1.090   8.393  0.2139  0.0634 -0.7197
   37POPC  H16X 5036  -1.238   1.183   8.403  0.1423  0.2508 -2.5585
   37POPC  H16Y 5037  -1.073   1.098   8.429 -0.1832 -1.4112  0.8714
   37POPC  H16Z 5038  -1.239   1.020   8.454  0.5304  0.1709 -0.2722
   38POPC     N 5039   1.248   4.976   6.192  0.4679  0.3139  0.2202
   38POPC   C12 5040   1.368   4.965   6.281  0.0038 -0.2977  0.0352
   38POPC  H12A 5041   1.384   5.061   6.329 -0.4106  0.3826 -1.1305
   38POPC  H12B 5042   1.450   4.952   6.211 -0.1400  1.7382 -0.5849
   38POPC   C13 5043   1.269   5.074   6.084  0.1880  0.6232 -0.2222
   38POPC  H13A 5044   1.181   5.081   6.023 -0.1758  0.0095  0.2193
   38POPC  H13B 5045   1.298   5.170   6.124 -0.0671 -0.0971  1.7996
   38POPC  H13C 5046   1.353   5.054   6.019 -1.1756  0.2852 -1.9493
   38POPC   C14 5047   1.218   4.844   6.119  0.0398 -1.0055 -0.8156
   38POPC  H14A 5048   1.296   4.832   6.045  0.8890  0.5175 -0.2182
   38POPC  H14B 5049   1.222   4.766   6.194 -1.7972  0.6540  1.1283
   38POPC  H14C 5050   1.125   4.845   6.065 -0.8067 -2.8017  0.4886
   38POPC   C15 5051   1.124   5.017   6.268 -0.0604  0.7054 -0.7649
   38POPC  H15A 5052   1.093   4.944   6.342 -1.9513  1.3717 -0.8369
   38POPC  H15B 5053   1.038   5.027   6.203 -1.4510 -0.1457  0.8669
   38POPC  H15C 5054   1.136   5.115   6.311  1.5642  0.9652 -1.7411
   38POPC   C11 5055   1.379   4.846   6.379  0.2353  0.1307 -0.1334
   38POPC  H11A 5056   1.279   4.859   6.426 -0.4388  0.7760 -1.6813
   38POPC  H11B 5057   1.454   4.856   6.461 -1.8820  0.4398  1.8728
   38POPC     P 5058   1.527   4.678   6.249  0.2316 -0.2709  0.1049
   38POPC   O13 5059   1.588   4.795   6.189  0.1677  0.0328  0.7823
   38POPC   O14 5060   1.506   4.560   6.163 -0.5193  0.0844 -0.4602
   38POPC   O12 5061   1.392   4.720   6.318  0.3064  0.1491  0.0199
   38POPC   O11 5062   1.615   4.627   6.370  0.3773 -0.2395 -0.3740
   38POPC    C1 5063   1.555   4.534   6.472 -0.9835  0.3630  0.0027
   38POPC    HA 5064   1.633   4.459   6.499  0.0333  1.4126  0.0583
   38POPC    HB 5065   1.473   4.474   6.427 -1.6685  0.8147  0.6131
   38POPC    C2 5066   1.501   4.598   6.604  0.2879 -1.1315 -0.1551
   38POPC    HS 5067   1.412   4.657   6.576  0.1269  0.1237  2.7123
   38POPC   O21 5068   1.617   4.679   6.652  0.0990 -0.2730  0.0612
   38POPC   C21 5069   1.583   4.798   6.703 -0.8760  0.2217 -0.1993
   38POPC   O22 5070   1.476   4.840   6.726  0.5912 -0.0711 -0.0342
   38POPC   C22 5071   1.718   4.863   6.744 -0.2869 -0.0289 -0.1160
   38POPC   H2R 5072   1.724   4.972   6.728  1.5446 -0.1989 -0.7664
   38POPC   H2S 5073   1.804   4.830   6.682  0.8896  0.2349  1.3095
   38POPC    C3 5074   1.451   4.487   6.704  0.2601 -0.5063 -0.3837
   38POPC    HX 5075   1.544   4.429   6.721  0.2344 -0.6372 -0.6860
   38POPC    HY 5076   1.377   4.423   6.652 -1.7730  4.0290 -3.7872
   38POPC   O31 5077   1.409   4.542   6.833 -0.6121  0.0443  0.0576
   38POPC   C31 5078   1.302   4.614   6.835  1.0862  0.4677 -0.2539
   38POPC   O32 5079   1.224   4.623   6.742  0.1367 -0.1020 -0.1590
   38POPC   C32 5080   1.287   4.674   6.977  0.0638  0.0955 -0.5908
   38POPC   H2X 5081   1.187   4.721   6.975  0.1734  0.3790  0.2078
   38POPC   H2Y 5082   1.360   4.756   6.990  0.3003 -0.3646  1.3800
   38POPC   C23 5083   1.742   4.830   6.895  1.1555 -0.6122 -0.2476
   38POPC   H3R 5084   1.758   4.720   6.906  0.4949 -0.7931 -1.0160
   38POPC   H3S 5085   1.654   4.860   6.955  2.1222  3.3774 -0.5295
   38POPC   C24 5086   1.858   4.900   6.960 -0.6574  0.7289  0.1589
   38POPC   H4R 5087   1.845   5.009   6.943 -0.1703  0.9354  1.0468
   38POPC   H4S 5088   1.954   4.873   6.910 -1.0807  0.9456 -0.7811
   38POPC   C25 5089   1.888   4.849   7.110 -0.0375  0.1856 -0.6336
   38POPC   H5R 5090   1.976   4.903   7.151 -0.2783  1.9775 -2.3576
   38POPC   H5S 5091   1.897   4.738   7.111  0.1538  0.1598 -2.6677
   38POPC   C26 5092   1.764   4.890   7.202 -0.0683 -0.4151 -0.3901
   38POPC   H6R 5093   1.674   4.830   7.178 -1.3987  1.7342 -1.0325
   38POPC   H6S 5094   1.739   4.996   7.178 -0.7324 -1.0559 -2.7565
   38POPC   C27 5095   1.792   4.871   7.351 -0.5204 -0.2599 -0.0672
   38POPC   H7R 5096   1.877   4.940   7.369  0.3764 -1.2080 -0.5696
   38POPC   H7S 5097   1.830   4.769   7.375  1.1188  0.3292 -0.0446
   38POPC   C28 5098   1.673   4.917   7.434  0.2086 -0.0065  0.0423
   38POPC   H8R 5099   1.585   4.850   7.421  0.7075 -0.7439  0.3890
   38POPC   H8S 5100   1.652   5.017   7.391  1.8658 -0.6569 -2.5229
   38POPC   C29 5101   1.713   4.921   7.579 -0.0786 -0.2562 -1.1025
   38POPC   H91 5102   1.792   4.849   7.605 -1.0461 -0.9572 -0.0404
   38POPC  C210 5103   1.653   5.004   7.668 -0.2487 -0.5509  0.5918
   38POPC  H101 5104   1.692   5.006   7.771 -0.1139 -0.2692  0.5366
   38POPC  C211 5105   1.551   5.114   7.644 -0.1818 -0.3714  0.2009
   38POPC  H11R 5106   1.478   5.083   7.566 -0.2384  3.9097 -1.7311
   38POPC  H11S 5107   1.599   5.209   7.614  0.1663 -0.5256  0.2683
   38POPC  C212 5108   1.468   5.159   7.774  0.5326  1.0007 -0.8684
   38POPC  H12R 5109   1.407   5.070   7.802 -1.0403  2.6279  1.2106
   38POPC  H12S 5110   1.384   5.231   7.762  0.9892  1.3486 -2.1268
   38POPC  C213 5111   1.550   5.207   7.892 -0.3392  0.3430 -0.4425
   38POPC  H13R 5112   1.608   5.294   7.855  0.2853  0.6288  1.1160
   38POPC  H13S 5113   1.623   5.128   7.917 -1.4620 -0.5318  0.1843
   38POPC  C214 5114   1.472   5.245   8.017  0.3031  0.1458 -0.3656
   38POPC  H14R 5115   1.418   5.154   8.049 -2.6396  1.8284 -0.1651
   38POPC  H14S 5116   1.388   5.314   7.992 -0.1449 -0.2974 -0.0856
   38POPC  C215 5117   1.547   5.314   8.131  0.1453 -0.3658 -0.8241
   38POPC  H15R 5118   1.634   5.252   8.160 -0.1639  0.4483  2.1546
   38POPC  H15S 5119   1.480   5.318   8.220 -0.5775 -0.0919 -1.3676
   38POPC  C216 5120   1.587   5.464   8.106 -0.1079  0.4146 -0.1920
   38POPC  H16R 5121   1.644   5.461   8.011 -1.6177  0.3368 -1.1355
   38POPC  H16S 5122   1.653   5.497   8.189 -0.6123  2.1213 -0.4418
   38POPC  C217 5123   1.482   5.566   8.109 -0.0929  0.8057  0.2155
   38POPC  H17R 5124   1.512   5.660   8.161 -0.4383  0.5729  0.8467
   38POPC  H17S 5125   1.384   5.537   8.153  0.2678 -0.7202  0.0492
   38POPC  C218 5126   1.453   5.614   7.970  0.5025 -0.1970 -0.4907
   38POPC  H18R 5127   1.540   5.660   7.920  0.6142 -1.4238 -1.4901
   38POPC  H18S 5128   1.378   5.696   7.965  2.1252  1.4041  0.2431
   38POPC  H18T 5129   1.410   5.536   7.903  2.1862 -0.1637 -1.6630
   38POPC   C33 5130   1.289   4.554   7.078 -0.3873 -0.0110 -0.4688
   38POPC   H3X 5131   1.386   4.500   7.086 -0.3595  0.3661  4.0534
   38POPC   H3Y 5132   1.210   4.478   7.063 -0.4871 -0.1089  0.5223
   38POPC   C34 5133   1.277   4.610   7.222 -0.6475 -0.7007  0.1917
   38POPC   H4X 5134   1.186   4.674   7.228  1.4834  2.7530 -1.1788
   38POPC   H4Y 5135   1.365   4.676   7.232 -0.8354 -0.1522 -1.4449
   38POPC   C35 5136   1.282   4.502   7.332  0.0813  0.2971  0.5156
   38POPC   H5X 5137   1.384   4.458   7.333 -0.1124 -0.1781 -0.2606
   38POPC   H5Y 5138   1.214   4.417   7.310  2.1792 -1.4237  0.3528
   38POPC   C36 5139   1.235   4.564   7.471  0.3308 -0.4007  1.1996
   38POPC   H6X 5140   1.204   4.482   7.539 -2.2322 -0.8055 -0.3277
   38POPC   H6Y 5141   1.159   4.644   7.457  1.1098 -0.0054 -1.2938
   38POPC   C37 5142   1.348   4.633   7.538 -0.0533  0.1701  0.5311
   38POPC   H7X 5143   1.388   4.708   7.467 -1.1052 -0.1652 -0.4421
   38POPC   H7Y 5144   1.420   4.552   7.564 -0.2924 -0.8441 -1.7299
   38POPC   C38 5145   1.299   4.690   7.675  0.0606  0.2779  0.7074
   38POPC   H8X 5146   1.228   4.619   7.722 -2.2146  1.6499 -0.4585
   38POPC   H8Y 5147   1.249   4.785   7.644  1.7850  1.3416  1.0727
   38POPC   C39 5148   1.414   4.730   7.771  0.0734  0.2397 -0.1502
   38POPC   H9X 5149   1.381   4.797   7.853 -0.8264 -1.6625  1.1249
   38POPC   H9Y 5150   1.489   4.786   7.711  0.3209 -0.1096 -0.1689
   38POPC  C310 5151   1.489   4.605   7.838 -0.2653 -0.2364 -0.3840
   38POPC  H10X 5152   1.546   4.562   7.753  0.2738 -2.0610  0.8548
   38POPC  H10Y 5153   1.413   4.532   7.872 -0.2341 -0.5377 -0.9570
   38POPC  C311 5154   1.585   4.643   7.949  0.0964 -0.0371  0.0840
   38POPC  H11X 5155   1.673   4.690   7.899  0.2176 -0.3843 -0.0314
   38POPC  H11Y 5156   1.615   4.544   7.989 -1.9377 -0.5178  0.5249
   38POPC  C312 5157   1.522   4.723   8.062 -0.0087 -1.2474  0.5613
   38POPC  H12X 5158   1.430   4.669   8.096 -0.8769  0.6692  1.4353
   38POPC  H12Y 5159   1.489   4.826   8.036  1.6734 -0.8264  0.0062
   38POPC  C313 5160   1.610   4.741   8.188  0.3348  0.0048 -0.0234
   38POPC  H13X 5161   1.691   4.809   8.155  0.6151 -0.2628  0.1089
   38POPC  H13Y 5162   1.654   4.640   8.203  2.0093  0.0463 -3.6071
   38POPC  C314 5163   1.530   4.801   8.307 -0.7860  0.3727 -0.8946
   38POPC  H14X 5164   1.602   4.797   8.392  0.3871  1.9377 -1.7851
   38POPC  H14Y 5165   1.446   4.731   8.328 -1.0831  1.5336  2.4807
   38POPC  C315 5166   1.482   4.952   8.303  0.4844  0.5299  0.6231
   38POPC  H15X 5167   1.422   4.957   8.210  1.1396 -1.2879  0.0605
   38POPC  H15Y 5168   1.575   5.013   8.295  0.3503  1.1203  2.7791
   38POPC  C316 5169   1.400   5.002   8.429 -0.4576 -0.5453  0.1913
   38POPC  H16X 5170   1.403   5.111   8.448 -2.1848 -0.1008 -1.7200
   38POPC  H16Y 5171   1.449   4.960   8.520 -2.3956 -0.5952  1.2751
   38POPC  H16Z 5172   1.294   4.970   8.436 -1.3773  1.9040 -1.3980
   39POPC     N 5173   5.061   1.232   5.882 -0.3339  0.0404 -0.6134
   39POPC   C12 5174   5.174   1.260   5.984  0.4790  0.3326  0.1332
   39POPC  H12A 5175   5.173   1.364   6.011  1.9574  0.0439  1.4434
   39POPC  H12B 5176   5.269   1.243   5.934  0.2900  1.1657 -0.5363
   39POPC   C13 5177   4.932   1.224   5.947  0.1340  0.7317  1.0678
   39POPC  H13A 5178   4.915   1.122   5.981 -0.3964  0.1536 -0.8139
   39POPC  H13B 5179   4.932   1.279   6.040  1.7133  0.8595  1.0161
   39POPC  H13C 5180   4.848   1.244   5.882 -0.3316  0.8266  1.6893
   39POPC   C14 5181   5.063   1.344   5.782 -0.3504 -0.4083 -0.4960
   39POPC  H14A 5182   4.986   1.337   5.707  0.6206 -0.7382 -1.4877
   39POPC  H14B 5183   5.058   1.435   5.841 -1.2233 -0.5077 -0.4075
   39POPC  H14C 5184   5.158   1.348   5.730 -0.3530  3.3142 -0.4819
   39POPC   C15 5185   5.085   1.110   5.808  0.2146 -0.9395  0.4093
   39POPC  H15A 5186   5.087   1.015   5.858  0.7749 -0.9002  0.4725
   39POPC  H15B 5187   5.179   1.117   5.755 -0.8733 -0.8928 -1.6132
   39POPC  H15C 5188   5.008   1.104   5.734  0.5528  1.3671 -0.2281
   39POPC   C11 5189   5.149   1.187   6.128 -0.4692 -0.8787 -0.1666
   39POPC  H11A 5190   5.063   1.231   6.183 -0.2071 -0.9517  0.3054
   39POPC  H11B 5191   5.240   1.214   6.186 -0.7765 -2.5611  1.1667
   39POPC     P 5192   5.245   0.945   6.121  0.0130 -0.3386  0.4556
   39POPC   O13 5193   5.356   1.023   6.061  0.1193  0.4062  0.6726
   39POPC   O14 5194   5.196   0.828   6.043  0.3404  0.7450  0.2387
   39POPC   O12 5195   5.125   1.049   6.128 -0.2348 -0.3379 -0.2958
   39POPC   O11 5196   5.275   0.909   6.271 -0.1813  0.3747 -0.2511
   39POPC    C1 5197   5.319   1.002   6.369  0.1099  0.1243 -0.2942
   39POPC    HA 5198   5.312   1.109   6.339  1.7095  0.3089 -0.1197
   39POPC    HB 5199   5.426   0.986   6.396  0.0697 -1.3901 -0.9025
   39POPC    C2 5200   5.229   0.985   6.504 -0.4562 -0.1448  0.2933
   39POPC    HS 5201   5.261   1.060   6.580  1.4358  1.0124 -1.5569
   39POPC   O21 5202   5.250   0.857   6.562 -0.0202  0.5584  0.1388
   39POPC   C21 5203   5.371   0.841   6.621  0.3909 -0.1636  0.0514
   39POPC   O22 5204   5.454   0.924   6.644  0.4174 -0.5631  0.3729
   39POPC   C22 5205   5.400   0.701   6.661  0.0320  0.0713  0.4770
   39POPC   H2R 5206   5.510   0.696   6.667 -0.0257 -1.0573  0.8408
   39POPC   H2S 5207   5.371   0.632   6.578 -0.2979  2.4529 -1.5153
   39POPC    C3 5208   5.078   1.008   6.468 -0.1904 -0.3805  0.0614
   39POPC    HX 5209   5.053   0.930   6.393  0.0854 -1.6376  1.2395
   39POPC    HY 5210   5.060   1.106   6.420  1.4700  0.7589  1.6255
   39POPC   O31 5211   4.990   0.998   6.581  0.4222 -0.1824 -0.2177
   39POPC   C31 5212   4.868   0.952   6.558  0.0009  0.2519  0.6499
   39POPC   O32 5213   4.826   0.917   6.447  0.1783  0.2678  0.0863
   39POPC   C32 5214   4.793   0.955   6.688  0.1353 -0.6088 -0.0287
   39POPC   H2X 5215   4.830   1.037   6.754  1.6096 -0.4084 -1.0593
   39POPC   H2Y 5216   4.686   0.978   6.672  0.8405  2.6056 -0.7651
   39POPC   C23 5217   5.342   0.665   6.803  0.2173  0.9931  0.5164
   39POPC   H3R 5218   5.234   0.691   6.804  0.1768  0.8248  1.6283
   39POPC   H3S 5219   5.381   0.736   6.879 -0.1100  1.2887  0.4126
   39POPC   C24 5220   5.380   0.517   6.831  0.2923  0.1796  0.0122
   39POPC   H4R 5221   5.488   0.508   6.859  0.6228 -1.1206 -1.5001
   39POPC   H4S 5222   5.365   0.472   6.731  1.7667 -1.5344  0.5045
   39POPC   C25 5223   5.292   0.445   6.934  0.5893 -0.3660 -0.1102
   39POPC   H5R 5224   5.305   0.335   6.935 -0.9741 -0.6943  3.8574
   39POPC   H5S 5225   5.185   0.458   6.908  0.4301  1.6998  1.3078
   39POPC   C26 5226   5.321   0.490   7.074  0.0091  0.1135  0.1380
   39POPC   H6R 5227   5.282   0.594   7.079 -0.0763  0.2696 -2.4775
   39POPC   H6S 5228   5.432   0.487   7.072 -0.0136 -0.3117 -2.1850
   39POPC   C27 5229   5.251   0.424   7.192 -0.5563 -0.1921 -0.1442
   39POPC   H7R 5230   5.243   0.316   7.170 -1.1001 -0.5476  1.6299
   39POPC   H7S 5231   5.145   0.460   7.189 -0.1449  1.0859  0.1389
   39POPC   C28 5232   5.314   0.450   7.334  0.8100 -1.0606  0.3639
   39POPC   H8R 5233   5.424   0.438   7.331  1.0729 -0.1172  3.0625
   39POPC   H8S 5234   5.274   0.374   7.405  1.0163  0.4192  2.1569
   39POPC   C29 5235   5.287   0.584   7.394 -0.0742 -1.4768 -0.1112
   39POPC   H91 5236   5.285   0.663   7.318 -0.3641 -1.9058 -0.5526
   39POPC  C210 5237   5.261   0.616   7.525 -0.2111  0.1414  0.3610
   39POPC  H101 5238   5.233   0.721   7.544  1.6898  0.6023  0.7966
   39POPC  C211 5239   5.261   0.516   7.635 -0.1572  0.4398 -0.7344
   39POPC  H11R 5240   5.338   0.438   7.615 -1.2764 -0.7369 -0.6110
   39POPC  H11S 5241   5.163   0.463   7.633  0.1226 -0.0861 -0.7942
   39POPC  C212 5242   5.270   0.569   7.777  0.8854 -0.1918  0.1692
   39POPC  H12R 5243   5.183   0.638   7.789  0.3297 -1.1991  2.3601
   39POPC  H12S 5244   5.370   0.613   7.796  1.6497 -1.5252 -0.6370
   39POPC  C213 5245   5.236   0.461   7.875  0.2345 -0.2391  0.7664
   39POPC  H13R 5246   5.285   0.367   7.839 -0.0120  0.6643 -2.1956
   39POPC  H13S 5247   5.128   0.439   7.859  0.3956 -1.2757  1.0064
   39POPC  C214 5248   5.278   0.504   8.009  0.4258  0.2796  0.2057
   39POPC  H14R 5249   5.197   0.576   8.033  0.4930  0.4962 -0.1941
   39POPC  H14S 5250   5.380   0.546   8.015  1.0123 -0.3457 -3.1683
   39POPC  C215 5251   5.268   0.390   8.107  0.1173  0.5392 -0.6142
   39POPC  H15R 5252   5.368   0.342   8.103  0.5417  1.1838  1.1347
   39POPC  H15S 5253   5.185   0.320   8.084  1.4291 -1.2127 -0.2766
   39POPC  C216 5254   5.232   0.438   8.257  0.0790  0.1631  0.7753
   39POPC  H16R 5255   5.171   0.530   8.246  0.6435  0.4575 -0.0080
   39POPC  H16S 5256   5.329   0.469   8.302  1.4711 -0.2714 -1.7405
   39POPC  C217 5257   5.160   0.338   8.350  0.3613 -0.4343 -0.1118
   39POPC  H17R 5258   5.219   0.244   8.360  1.2911  0.3526  3.2697
   39POPC  H17S 5259   5.065   0.316   8.297  0.0442 -0.9118  0.6377
   39POPC  C218 5260   5.122   0.384   8.491 -0.1788  0.1583 -0.3188
   39POPC  H18R 5261   5.089   0.491   8.494 -0.7328 -0.0257  0.3482
   39POPC  H18S 5262   5.212   0.373   8.555 -1.1288 -1.5610  0.7819
   39POPC  H18T 5263   5.041   0.319   8.530  0.9485 -1.8444 -1.1649
   39POPC   C33 5264   4.802   0.824   6.766 -0.2805 -0.2927  0.8432
   39POPC   H3X 5265   4.780   0.737   6.700 -0.3814  0.9907 -0.8916
   39POPC   H3Y 5266   4.728   0.817   6.848 -0.9892 -0.2663  0.2202
   39POPC   C34 5267   4.943   0.803   6.816  0.0927  0.0865 -0.2647
   39POPC   H4X 5268   4.995   0.895   6.851  1.3882 -0.3264 -1.0520
   39POPC   H4Y 5269   5.004   0.759   6.735 -1.4217  0.5299 -1.7099
   39POPC   C35 5270   4.935   0.708   6.936  0.1392  0.1962  0.2358
   39POPC   H5X 5271   5.024   0.640   6.933  0.3567  0.4856 -2.9686
   39POPC   H5Y 5272   4.853   0.634   6.922 -1.0050  1.5215 -0.2236
   39POPC   C36 5273   4.915   0.779   7.072 -0.3672  0.3328  0.0357
   39POPC   H6X 5274   4.839   0.860   7.065 -1.0072 -0.3654 -1.5382
   39POPC   H6Y 5275   5.007   0.835   7.102 -0.6180 -0.1173  1.7551
   39POPC   C37 5276   4.886   0.676   7.188  0.3482  0.3352  0.3755
   39POPC   H7X 5277   4.966   0.600   7.181 -0.0299  0.0147 -0.5880
   39POPC   H7Y 5278   4.796   0.614   7.165  0.5983  0.7088 -1.7824
   39POPC   C38 5279   4.876   0.732   7.329 -0.1365 -0.1347  0.2096
   39POPC   H8X 5280   4.785   0.796   7.334  0.4336  0.6121  2.0843
   39POPC   H8Y 5281   4.965   0.793   7.355 -0.5837  0.0675  1.3304
   39POPC   C39 5282   4.865   0.624   7.437 -0.5936  0.9513 -0.3063
   39POPC   H9X 5283   4.965   0.575   7.449 -0.7502  1.0372  1.9480
   39POPC   H9Y 5284   4.789   0.551   7.403  0.7719  0.2906 -2.0680
   39POPC  C310 5285   4.807   0.694   7.569 -0.1378  0.8988  0.2240
   39POPC  H10X 5286   4.730   0.772   7.551  0.3832  2.2757  3.3847
   39POPC  H10Y 5287   4.887   0.764   7.603  0.6407  0.8952 -1.4681
   39POPC  C311 5288   4.782   0.602   7.688  0.4340 -0.3484 -0.0267
   39POPC  H11X 5289   4.876   0.545   7.704  0.2602 -0.3314  1.1737
   39POPC  H11Y 5290   4.703   0.530   7.661 -1.6845  2.4222 -1.8002
   39POPC  C312 5291   4.767   0.678   7.819  0.3129 -0.7172  0.3830
   39POPC  H12X 5292   4.682   0.750   7.814  1.3675  0.5087 -0.6211
   39POPC  H12Y 5293   4.851   0.750   7.825  0.1260 -0.5736  1.7023
   39POPC  C313 5294   4.772   0.595   7.942 -1.1311  0.5821 -0.2131
   39POPC  H13X 5295   4.856   0.522   7.941 -2.3241 -0.8717 -1.7802
   39POPC  H13Y 5296   4.685   0.525   7.951 -1.0825  0.7616  2.1763
   39POPC  C314 5297   4.776   0.676   8.080 -0.4702 -0.1370  0.1339
   39POPC  H14X 5298   4.766   0.602   8.163  0.8333 -1.5932 -0.9330
   39POPC  H14Y 5299   4.687   0.741   8.092 -1.3902 -1.6954  2.3727
   39POPC  C315 5300   4.912   0.736   8.105  0.4714 -0.5632 -0.8149
   39POPC  H15X 5301   4.934   0.816   8.031 -2.4244  1.5493  0.4003
   39POPC  H15Y 5302   4.978   0.648   8.090  0.4587 -0.3144 -2.5951
   39POPC  C316 5303   4.926   0.788   8.253  0.0440 -0.1754  0.2008
   39POPC  H16X 5304   5.034   0.774   8.275  0.6837  1.3267 -1.7158
   39POPC  H16Y 5305   4.867   0.718   8.316 -1.3605  2.2554  1.7977
   39POPC  H16Z 5306   4.874   0.887   8.260 -4.0284 -2.0805 -0.1383
   40POPC     N 5307   3.641   4.697   6.032  0.1083 -0.5885  0.7227
   40POPC   C12 5308   3.733   4.756   6.143 -0.1526  0.0534  0.5160
   40POPC  H12A 5309   3.764   4.855   6.113  3.6797 -1.3212 -0.6132
   40POPC  H12B 5310   3.825   4.700   6.153  0.0286  0.0292 -1.0014
   40POPC   C13 5311   3.581   4.572   6.059  0.2240  0.0950  0.1989
   40POPC  H13A 5312   3.544   4.554   6.159 -0.8588  1.2943  0.0486
   40POPC  H13B 5313   3.501   4.552   5.989  0.0017  0.2198  0.4155
   40POPC  H13C 5314   3.641   4.489   6.026 -0.9488 -1.6014  2.0646
   40POPC   C14 5315   3.536   4.797   6.006 -0.2329 -0.4581 -1.0323
   40POPC  H14A 5316   3.582   4.895   6.007 -1.4418  0.1290 -0.2802
   40POPC  H14B 5317   3.493   4.775   5.910 -0.7489 -2.4009 -0.4046
   40POPC  H14C 5318   3.466   4.802   6.088 -0.7641  0.2818 -1.5144
   40POPC   C15 5319   3.714   4.678   5.908  0.1342 -0.4895  0.4905
   40POPC  H15A 5320   3.638   4.688   5.831 -0.0358 -0.6266  0.6401
   40POPC  H15B 5321   3.774   4.589   5.901  0.5718 -0.2043  0.5616
   40POPC  H15C 5322   3.772   4.768   5.895 -1.4692  0.4298 -0.7419
   40POPC   C11 5323   3.672   4.764   6.286 -0.0683 -0.0760 -0.2576
   40POPC  H11A 5324   3.754   4.791   6.356  2.5241 -0.4022 -2.9731
   40POPC  H11B 5325   3.645   4.659   6.312  1.6967 -0.6308 -0.5670
   40POPC     P 5326   3.573   4.999   6.313  0.2273 -0.2689  0.3898
   40POPC   O13 5327   3.430   5.053   6.315 -0.0301  0.2547  0.3700
   40POPC   O14 5328   3.664   5.040   6.206 -0.0196 -0.4802 -0.7550
   40POPC   O12 5329   3.553   4.849   6.295  0.5483 -0.1989  0.3985
   40POPC   O11 5330   3.634   5.014   6.454 -0.5585 -0.0543 -0.2592
   40POPC    C1 5331   3.589   5.114   6.542  0.3907 -0.2624  0.0335
   40POPC    HA 5332   3.479   5.118   6.555  0.2116  1.2677 -1.5451
   40POPC    HB 5333   3.615   5.215   6.502 -1.5600 -0.6734 -2.5083
   40POPC    C2 5334   3.638   5.099   6.686 -0.3060 -0.6072 -0.1626
   40POPC    HS 5335   3.553   5.126   6.752 -0.7488  1.0168 -1.3397
   40POPC   O21 5336   3.769   5.160   6.718 -0.5126 -0.4498 -0.5446
   40POPC   C21 5337   3.764   5.288   6.734  0.5889  0.6708  0.7926
   40POPC   O22 5338   3.672   5.366   6.705  0.6275  0.5349 -0.0622
   40POPC   C22 5339   3.894   5.325   6.807 -0.0641  0.1106 -1.0818
   40POPC   H2R 5340   3.962   5.364   6.728 -1.1655 -0.4021 -2.3271
   40POPC   H2S 5341   3.946   5.237   6.850  0.1702 -0.1476 -1.8798
   40POPC    C3 5342   3.657   4.946   6.723  0.1736  0.9564 -0.4420
   40POPC    HX 5343   3.745   4.905   6.669  0.5450  2.1400 -0.7778
   40POPC    HY 5344   3.569   4.885   6.697  0.3570  0.0868  0.9122
   40POPC   O31 5345   3.698   4.941   6.864 -0.3944  0.2105 -0.3175
   40POPC   C31 5346   3.615   4.895   6.955  0.0887 -0.2703  0.1348
   40POPC   O32 5347   3.499   4.868   6.933  0.1358  0.4217 -0.2171
   40POPC   C32 5348   3.688   4.889   7.090  0.0699 -0.3446  0.0097
   40POPC   H2X 5349   3.775   4.958   7.090 -2.3418  2.9282 -0.4644
   40POPC   H2Y 5350   3.727   4.786   7.111 -1.0517 -0.4954  1.4843
   40POPC   C23 5351   3.864   5.432   6.914 -0.6512 -0.6925 -0.0355
   40POPC   H3R 5352   3.791   5.505   6.872 -1.0569 -0.6579  0.7170
   40POPC   H3S 5353   3.958   5.486   6.938 -0.1544 -1.2467 -0.7291
   40POPC   C24 5354   3.815   5.374   7.042  0.4430  0.3435 -0.1743
   40POPC   H4R 5355   3.900   5.311   7.077  1.0369  2.5941  2.7774
   40POPC   H4S 5356   3.728   5.308   7.019  0.9165 -0.0112 -0.9665
   40POPC   C25 5357   3.757   5.470   7.149 -0.0723 -0.9677  0.1451
   40POPC   H5R 5358   3.667   5.524   7.112 -0.2005 -0.8977  0.5505
   40POPC   H5S 5359   3.837   5.546   7.163  1.7328 -2.9839  1.4108
   40POPC   C26 5360   3.735   5.410   7.284 -0.0700 -0.2630 -1.1853
   40POPC   H6R 5361   3.830   5.363   7.316 -0.6306 -0.0471  0.9618
   40POPC   H6S 5362   3.661   5.330   7.263 -0.2513 -0.7707  1.1195
   40POPC   C27 5363   3.687   5.502   7.395 -0.7683 -0.1034  0.3477
   40POPC   H7R 5364   3.593   5.545   7.352  0.3167  1.2901 -0.7434
   40POPC   H7S 5365   3.762   5.582   7.417 -1.3521  0.8431 -0.9679
   40POPC   C28 5366   3.675   5.434   7.533  0.5996 -0.3787 -0.1522
   40POPC   H8R 5367   3.598   5.354   7.533 -1.0760  1.1759  0.1000
   40POPC   H8S 5368   3.627   5.502   7.606 -0.2676 -4.4259  3.4698
   40POPC   C29 5369   3.807   5.377   7.574 -0.3098  0.2742 -0.0907
   40POPC   H91 5370   3.833   5.289   7.514  2.2679  1.8504 -1.4888
   40POPC  C210 5371   3.881   5.410   7.681 -0.5296  0.3168 -0.5571
   40POPC  H101 5372   3.972   5.348   7.694 -1.4380 -1.9576 -3.7274
   40POPC  C211 5373   3.842   5.517   7.777  0.1453 -0.8642 -1.3871
   40POPC  H11R 5374   3.779   5.593   7.726  0.3862  0.0361 -0.3886
   40POPC  H11S 5375   3.931   5.568   7.820 -0.7722  0.2233 -0.6984
   40POPC  C212 5376   3.762   5.473   7.902 -0.3730  0.9802 -0.7297
   40POPC  H12R 5377   3.671   5.418   7.870  0.6407 -0.7305 -0.7711
   40POPC  H12S 5378   3.725   5.566   7.949 -1.3671  0.5224 -0.5848
   40POPC  C213 5379   3.834   5.378   8.003  0.1540 -0.1416 -0.0870
   40POPC  H13R 5380   3.875   5.289   7.951  2.7411  1.5567 -1.1969
   40POPC  H13S 5381   3.754   5.345   8.072  1.6450 -0.2554  1.6480
   40POPC  C214 5382   3.939   5.455   8.089  0.0872 -0.3218  0.5540
   40POPC  H14R 5383   3.894   5.550   8.124  0.0982 -0.6489  1.4772
   40POPC  H14S 5384   4.010   5.488   8.011 -0.3343 -0.7134 -0.0009
   40POPC  C215 5385   4.004   5.373   8.200  0.1601  0.6057 -0.3282
   40POPC  H15R 5386   4.039   5.279   8.152 -2.1223 -1.9258  2.5649
   40POPC  H15S 5387   3.922   5.329   8.260  0.6180 -0.7346 -0.6495
   40POPC  C216 5388   4.106   5.458   8.272 -0.4815  1.0244  0.2012
   40POPC  H16R 5389   4.063   5.551   8.314  0.8546  2.0016 -0.5191
   40POPC  H16S 5390   4.175   5.489   8.191 -0.8039 -0.0007 -0.4808
   40POPC  C217 5391   4.196   5.386   8.376 -0.3165 -0.4558  0.0727
   40POPC  H17R 5392   4.292   5.443   8.386  0.1466 -0.5529 -2.8938
   40POPC  H17S 5393   4.231   5.291   8.330 -0.4017  0.6421 -2.4432
   40POPC  C218 5394   4.123   5.361   8.507 -0.2237  0.2019  0.1907
   40POPC  H18R 5395   4.015   5.336   8.499  0.0333 -0.8626 -0.1140
   40POPC  H18S 5396   4.124   5.451   8.572 -0.8457  0.6304 -0.3783
   40POPC  H18T 5397   4.178   5.279   8.558 -0.2679  1.2590  2.0445
   40POPC   C33 5398   3.604   4.941   7.214 -0.4937 -0.2298 -0.1198
   40POPC   H3X 5399   3.512   4.878   7.224 -1.0545  0.2442 -1.9632
   40POPC   H3Y 5400   3.572   5.047   7.207  0.7796  0.0814 -1.6244
   40POPC   C34 5401   3.685   4.920   7.337 -0.2638 -0.2672  0.4462
   40POPC   H4X 5402   3.780   4.974   7.315  0.0497 -0.7357  0.6296
   40POPC   H4Y 5403   3.708   4.812   7.354 -0.7000 -0.6841 -1.3045
   40POPC   C35 5404   3.646   4.992   7.468  0.2679 -0.4755  0.9043
   40POPC   H5X 5405   3.594   5.082   7.430 -1.6514 -3.1274 -3.5575
   40POPC   H5Y 5406   3.736   5.017   7.529 -0.0479  0.5257  0.9721
   40POPC   C36 5407   3.542   4.908   7.543 -0.6508  0.0383  0.2180
   40POPC   H6X 5408   3.592   4.813   7.572 -1.0010 -0.3798 -0.5436
   40POPC   H6Y 5409   3.459   4.882   7.474 -1.9668  1.9228  0.9950
   40POPC   C37 5410   3.497   4.979   7.676  0.2386 -0.0079 -0.0973
   40POPC   H7X 5411   3.407   4.925   7.709  0.9831 -0.1942  1.7322
   40POPC   H7Y 5412   3.461   5.076   7.635 -0.2630 -0.7765 -1.5644
   40POPC   C38 5413   3.603   4.985   7.779  0.0206 -0.8245  0.3709
   40POPC   H8X 5414   3.706   5.010   7.748  0.3225  0.9090  2.5319
   40POPC   H8Y 5415   3.618   4.895   7.844 -0.8707 -1.0825  0.2387
   40POPC   C39 5416   3.576   5.094   7.896 -0.5448  0.2480 -0.1722
   40POPC   H9X 5417   3.469   5.118   7.911 -1.0398 -0.6075 -2.1278
   40POPC   H9Y 5418   3.623   5.189   7.862  1.2175 -0.8408 -0.9296
   40POPC  C310 5419   3.642   5.062   8.033 -0.1352 -0.0784  0.3630
   40POPC  H10X 5420   3.626   5.149   8.100 -0.8586  0.4507 -0.4718
   40POPC  H10Y 5421   3.752   5.061   8.023  0.0851  1.3908  2.1985
   40POPC  C311 5422   3.596   4.940   8.103  0.2502  0.3724  0.0672
   40POPC  H11X 5423   3.636   4.845   8.061 -2.5558 -0.1900 -1.5830
   40POPC  H11Y 5424   3.487   4.934   8.084  0.5663 -2.9988 -1.2276
   40POPC  C312 5425   3.610   4.959   8.257 -0.0406  0.2020 -0.2102
   40POPC  H12X 5426   3.558   4.874   8.307  1.9542 -0.6380  0.5635
   40POPC  H12Y 5427   3.547   5.049   8.271 -0.8198  0.1111 -2.6553
   40POPC  C313 5428   3.761   4.966   8.297 -0.0355 -0.3668 -0.4898
   40POPC  H13X 5429   3.806   5.061   8.262  0.3962  0.5171  2.2661
   40POPC  H13Y 5430   3.820   4.888   8.245 -0.9817 -1.4508  0.0008
   40POPC  C314 5431   3.789   4.961   8.449  0.1395  0.0965  0.7323
   40POPC  H14X 5432   3.775   4.858   8.487 -1.4479 -0.1263 -0.3838
   40POPC  H14Y 5433   3.716   5.039   8.477 -1.9963 -1.0898 -1.2105
   40POPC  C315 5434   3.929   5.023   8.482 -1.0814 -0.5601  0.1805
   40POPC  H15X 5435   3.937   5.119   8.427  0.4009 -1.9570 -2.1765
   40POPC  H15Y 5436   4.012   4.960   8.445  0.3256  0.7586  0.9752
   40POPC  C316 5437   3.948   5.047   8.634 -0.6463  0.2625  1.1102
   40POPC  H16X 5438   4.028   5.121   8.656 -1.7447  2.1922 -0.9706
   40POPC  H16Y 5439   3.964   4.944   8.672  0.3433 -0.5110 -1.2513
   40POPC  H16Z 5440   3.852   5.070   8.685 -3.0176 -1.2136 -2.3354
   41CHL1    C3 5441   1.911   3.894  10.132  0.6821  0.4640 -0.7408
   41CHL1    H3 5442   1.843   3.981  10.135 -0.0648 -0.1084 -0.8386
   41CHL1    O3 5443   1.905   3.819  10.249 -0.5072 -0.5074 -0.7497
   41CHL1   H3' 5444   1.858   3.740  10.222 -0.3284 -0.3284 -1.6070
   41CHL1    C4 5445   1.858   3.812  10.014  0.5521  0.2352  0.0623
   41CHL1   H4A 5446   1.906   3.713  10.011 -0.9509 -0.4964 -1.1629
   41CHL1   H4B 5447   1.751   3.797  10.041  0.4771 -0.2469 -0.5010
   41CHL1    C5 5448   1.875   3.879   9.880 -0.5161  0.4391  0.2727
   41CHL1    C6 5449   1.774   3.908   9.796 -0.5120  0.5930 -0.4462
   41CHL1    H6 5450   1.672   3.878   9.826 -1.7812  1.8972 -3.0722
   41CHL1    C7 5451   1.792   3.968   9.658  0.6786  0.0585  0.1094
   41CHL1   H7A 5452   1.723   3.915   9.590  0.5179  0.8997 -0.3983
   41CHL1   H7B 5453   1.741   4.067   9.655 -1.2671 -0.9123  0.0007
   41CHL1    C8 5454   1.933   3.949   9.614  0.3368 -0.4210  0.2169
   41CHL1    H8 5455   1.956   3.845   9.584 -1.7661 -1.2526  1.2819
   41CHL1   C14 5456   1.944   4.041   9.489  0.2082  0.4165  0.2918
   41CHL1   H14 5457   1.926   4.143   9.529  2.3407  1.0606 -0.2950
   41CHL1   C15 5458   1.846   4.019   9.366  0.4854 -0.0826  0.2268
   41CHL1  H15A 5459   1.832   3.910   9.349  1.4331 -0.3431  1.0390
   41CHL1  H15B 5460   1.742   4.056   9.379  0.5795 -0.1256  1.1358
   41CHL1   C16 5461   1.921   4.088   9.257 -0.6944 -0.1187  0.9364
   41CHL1  H16A 5462   1.928   4.021   9.169 -0.4371  1.9020 -0.6533
   41CHL1  H16B 5463   1.880   4.184   9.220 -0.1933 -0.1471  0.2952
   41CHL1   C17 5464   2.061   4.134   9.305  0.7415  0.7830  0.0596
   41CHL1   H17 5465   2.046   4.236   9.346  0.4112 -0.0449  2.1610
   41CHL1   C13 5466   2.088   4.040   9.424 -0.4116 -0.1366 -0.0916
   41CHL1   C18 5467   2.135   3.908   9.377  0.6171 -0.0987 -0.1688
   41CHL1  H18A 5468   2.244   3.924   9.359  0.1752  1.5389 -1.7084
   41CHL1  H18B 5469   2.119   3.836   9.460 -0.1584 -0.5012 -0.6524
   41CHL1  H18C 5470   2.096   3.864   9.283 -0.9860 -0.3559  0.5973
   41CHL1   C12 5471   2.180   4.101   9.537 -0.0803 -0.2188  0.8658
   41CHL1  H12A 5472   2.281   4.128   9.501 -0.2495  2.3287  2.1030
   41CHL1  H12B 5473   2.147   4.202   9.568  1.9407  0.1189  2.0885
   41CHL1   C11 5474   2.177   4.009   9.661  0.1584 -0.4868  0.4302
   41CHL1  H11A 5475   2.216   3.909   9.632 -1.7089 -1.0169 -0.4342
   41CHL1  H11B 5476   2.228   4.063   9.743  2.0586 -1.5662 -0.0057
   41CHL1    C9 5477   2.033   3.993   9.719  1.0710 -0.6945  0.1324
   41CHL1    H9 5478   2.001   4.094   9.753  0.2951 -0.5213 -1.0752
   41CHL1   C10 5479   2.025   3.916   9.848 -0.4441  0.1257 -0.2568
   41CHL1   C19 5480   2.100   3.789   9.830  0.0170 -0.0153  0.8608
   41CHL1  H19A 5481   2.209   3.807   9.817 -0.1862  1.4781  1.0870
   41CHL1  H19B 5482   2.089   3.726   9.922  4.2987 -0.3275  1.3841
   41CHL1  H19C 5483   2.064   3.732   9.742  1.9758 -0.0266  0.0092
   41CHL1    C1 5484   2.078   3.998   9.967 -0.0273  0.0020  0.5525
   41CHL1   H1A 5485   2.184   4.020   9.942 -0.1225 -0.7819 -0.6479
   41CHL1   H1B 5486   2.013   4.087   9.977  0.3585  0.1840  1.5379
   41CHL1    C2 5487   2.053   3.936  10.105  0.4510  0.4350 -0.3395
   41CHL1   H2A 5488   2.076   4.006  10.188  0.6144 -0.2091  0.1683
   41CHL1   H2B 5489   2.128   3.857  10.125 -0.4887  0.0639  2.0011
   41CHL1   C20 5490   2.154   4.133   9.182  0.9974 -0.1169  0.6837
   41CHL1   H20 5491   2.173   4.029   9.147  1.0157  0.0674  0.1349
   41CHL1   C21 5492   2.292   4.176   9.229 -0.4470  0.3923  0.2002
   41CHL1  H21A 5493   2.278   4.254   9.307  1.4676 -1.4310  2.5340
   41CHL1  H21B 5494   2.353   4.215   9.144 -1.7795 -0.6862 -1.3282
   41CHL1  H21C 5495   2.350   4.095   9.277 -0.4166  1.8306  2.7606
   41CHL1   C22 5496   2.104   4.214   9.057  0.0502  0.1209 -0.3982
   41CHL1  H22A 5497   1.999   4.187   9.031 -0.0308  1.2729 -1.3535
   41CHL1  H22B 5498   2.104   4.324   9.073 -1.8072 -0.0903  1.4418
   41CHL1   C23 5499   2.190   4.184   8.935 -0.0157 -0.6528  0.5949
   41CHL1  H23A 5500   2.289   4.227   8.958 -0.7682  1.1199  0.6415
   41CHL1  H23B 5501   2.208   4.075   8.920  3.5207 -0.0978 -0.0570
   41CHL1   C24 5502   2.124   4.246   8.813 -0.8707  0.0769 -0.3701
   41CHL1  H24A 5503   2.015   4.229   8.799 -0.5270 -1.1882 -1.8384
   41CHL1  H24B 5504   2.143   4.354   8.825  1.8623 -0.3652 -0.0596
   41CHL1   C25 5505   2.197   4.208   8.673 -0.5721  0.4930  0.0918
   41CHL1   H25 5506   2.205   4.098   8.664 -0.9156  0.4069  0.7629
   41CHL1   C26 5507   2.117   4.255   8.557 -0.5133  0.1530  0.3802
   41CHL1  H26A 5508   2.099   4.365   8.562  0.3093  0.3473 -0.5990
   41CHL1  H26B 5509   2.169   4.229   8.462 -0.6361  0.4092  0.2411
   41CHL1  H26C 5510   2.024   4.196   8.568 -1.6278  2.0922  2.1532
   41CHL1   C27 5511   2.337   4.272   8.680  0.9655 -0.2895 -0.7106
   41CHL1  H27A 5512   2.332   4.379   8.709 -3.0236 -0.3228 -0.6381
   41CHL1  H27B 5513   2.391   4.217   8.760  0.5590  0.8003  0.3382
   41CHL1  H27C 5514   2.390   4.252   8.584  1.1381 -0.8510 -0.5026
   42CHL1    C3 5515   1.735   3.254   9.865  0.2574 -0.4403  0.3668
   42CHL1    H3 5516   1.844   3.270   9.862  0.2719 -0.6393 -1.0572
   42CHL1    O3 5517   1.702   3.228   9.991  0.3617 -0.5865 -0.4545
   42CHL1   H3' 5518   1.608   3.212   9.987  0.1684  0.2982  0.1902
   42CHL1    C4 5519   1.668   3.387   9.822 -0.4978  0.3986  0.3343
   42CHL1   H4A 5520   1.558   3.375   9.818 -0.7057  2.2641 -2.1649
   42CHL1   H4B 5521   1.689   3.462   9.901  1.1084  1.7079 -1.2327
   42CHL1    C5 5522   1.716   3.424   9.675  0.1665  0.2951 -1.0104
   42CHL1    C6 5523   1.773   3.541   9.644 -0.5581 -0.1987 -0.3067
   42CHL1    H6 5524   1.785   3.611   9.729 -1.0831 -0.1471 -0.2715
   42CHL1    C7 5525   1.805   3.590   9.502  0.2719  0.2534  0.0295
   42CHL1   H7A 5526   1.757   3.686   9.471  0.7222  0.5037  0.0942
   42CHL1   H7B 5527   1.914   3.610   9.505 -0.0226  2.1514 -0.1978
   42CHL1    C8 5528   1.769   3.488   9.399 -0.4363 -0.2541  0.2720
   42CHL1    H8 5529   1.664   3.505   9.366 -0.7021 -0.3843  1.0334
   42CHL1   C14 5530   1.853   3.504   9.269  0.6421  0.2330 -0.3606
   42CHL1   H14 5531   1.953   3.463   9.298 -0.5108 -0.6323  2.8246
   42CHL1   C15 5532   1.884   3.644   9.207 -0.2090  0.8492 -0.7261
   42CHL1  H15A 5533   1.788   3.698   9.209 -0.0891  1.0475  0.7120
   42CHL1  H15B 5534   1.963   3.704   9.257  2.3162 -2.2957 -0.6068
   42CHL1   C16 5535   1.943   3.611   9.064  0.3143  0.5596 -0.1638
   42CHL1  H16A 5536   1.890   3.664   8.982  1.7905 -2.7236 -3.5366
   42CHL1  H16B 5537   2.052   3.631   9.059  0.5436 -0.5235  0.0716
   42CHL1   C17 5538   1.911   3.461   9.039 -0.3351 -0.4147  0.4747
   42CHL1   H17 5539   2.008   3.415   9.069  0.4416  1.2979  0.7317
   42CHL1   C13 5540   1.820   3.416   9.152  0.4790 -0.3829  0.7314
   42CHL1   C18 5541   1.680   3.460   9.107  0.4118  0.3614  0.2247
   42CHL1  H18A 5542   1.601   3.436   9.181  1.5162 -0.0412  1.2999
   42CHL1  H18B 5543   1.670   3.568   9.083 -0.3410  0.6596  1.7694
   42CHL1  H18C 5544   1.654   3.397   9.019 -1.0847 -0.0997  0.9746
   42CHL1   C12 5545   1.822   3.274   9.195  0.0665  0.2227 -0.4763
   42CHL1  H12A 5546   1.783   3.206   9.117 -1.5511  1.1700 -0.5343
   42CHL1  H12B 5547   1.925   3.236   9.215  0.2966  2.6001  4.0267
   42CHL1   C11 5548   1.740   3.255   9.324 -0.0360 -0.3278  0.1031
   42CHL1  H11A 5549   1.634   3.256   9.291  0.5390  0.0529 -1.8686
   42CHL1  H11B 5550   1.747   3.148   9.353 -1.2253 -1.5020 -3.4720
   42CHL1    C9 5551   1.779   3.346   9.439 -0.2606 -0.4324 -0.0327
   42CHL1    H9 5552   1.886   3.321   9.458 -0.5361  0.3874  3.1052
   42CHL1   C10 5553   1.703   3.308   9.569 -0.3732  0.2145 -0.4640
   42CHL1   C19 5554   1.552   3.298   9.530  0.5470 -0.4035  0.0294
   42CHL1  H19A 5555   1.486   3.311   9.618 -1.8814  1.1672 -1.8862
   42CHL1  H19B 5556   1.512   3.375   9.460  0.3283 -1.3654 -0.9359
   42CHL1  H19C 5557   1.533   3.197   9.490  0.6362 -1.3952  2.3580
   42CHL1    C1 5558   1.753   3.173   9.634  0.0395 -0.7583 -0.0479
   42CHL1   H1A 5559   1.723   3.094   9.563 -0.2809 -1.3873  0.7723
   42CHL1   H1B 5560   1.864   3.170   9.636  0.0894 -0.1523 -1.0531
   42CHL1    C2 5561   1.691   3.141   9.773 -0.2054  0.1213  1.1115
   42CHL1   H2A 5562   1.739   3.048   9.811 -0.2779 -0.5248 -0.3111
   42CHL1   H2B 5563   1.580   3.137   9.762 -0.3468  1.6322  1.7670
   42CHL1   C20 5564   1.883   3.417   8.889 -0.1817 -0.1094  0.4438
   42CHL1   H20 5565   1.779   3.445   8.859 -1.1044 -3.1915  0.4314
   42CHL1   C21 5566   1.875   3.262   8.874 -0.8855  0.1958 -0.1488
   42CHL1  H21A 5567   1.778   3.223   8.912 -0.8790  1.3049  1.0973
   42CHL1  H21B 5568   1.962   3.214   8.924 -0.2576  0.9868 -0.4487
   42CHL1  H21C 5569   1.882   3.234   8.767 -1.0262 -1.6573  0.2960
   42CHL1   C22 5570   1.988   3.474   8.791 -0.0144  0.9365 -0.0011
   42CHL1  H22A 5571   1.958   3.441   8.690  2.3726 -0.0497 -0.4483
   42CHL1  H22B 5572   1.975   3.584   8.787 -2.7762  0.6366 -1.2014
   42CHL1   C23 5573   2.130   3.427   8.808 -0.4458  0.0692 -0.4495
   42CHL1  H23A 5574   2.160   3.441   8.914 -1.2777 -1.4319  0.0078
   42CHL1  H23B 5575   2.130   3.318   8.789  1.5861  0.0604 -0.6399
   42CHL1   C24 5576   2.231   3.508   8.722  0.4906 -0.3583 -0.2740
   42CHL1  H24A 5577   2.183   3.606   8.704  0.0845 -0.6375 -0.7683
   42CHL1  H24B 5578   2.324   3.527   8.780  0.1914  3.0063 -0.7117
   42CHL1   C25 5579   2.266   3.452   8.586  0.9365  0.5720 -0.2412
   42CHL1   H25 5580   2.172   3.408   8.545  0.2029  0.7119  1.2298
   42CHL1   C26 5581   2.307   3.558   8.482  0.4775  0.3675  0.1911
   42CHL1  H26A 5582   2.398   3.611   8.516 -0.8070  0.8836  3.1571
   42CHL1  H26B 5583   2.318   3.498   8.389 -1.4866  0.8827 -0.4205
   42CHL1  H26C 5584   2.226   3.634   8.482  0.8292  1.1051  5.4190
   42CHL1   C27 5585   2.372   3.343   8.598  0.0292 -0.5396  0.3026
   42CHL1  H27A 5586   2.466   3.384   8.641 -0.4974 -1.7630  2.8246
   42CHL1  H27B 5587   2.335   3.266   8.669 -4.4272  2.6164  1.8309
   42CHL1  H27C 5588   2.395   3.298   8.499  1.0544  1.6266 -0.5075
   43CHL1    C3 5589   2.644   2.973   9.935 -0.1455 -0.1680 -0.3486
   43CHL1    H3 5590   2.693   3.072   9.923  0.5255 -0.6298 -1.5472
   43CHL1    O3 5591   2.620   2.932  10.072 -0.5841 -0.5974 -0.3857
   43CHL1   H3' 5592   2.549   2.991  10.098 -0.6826  0.5481 -2.9904
   43CHL1    C4 5593   2.508   2.979   9.855  0.0425 -0.2534 -0.9007
   43CHL1   H4A 5594   2.470   2.877   9.878  1.9366 -0.6128  1.0441
   43CHL1   H4B 5595   2.435   3.044   9.908  0.4380 -1.1794  0.8616
   43CHL1    C5 5596   2.524   3.011   9.704  0.2251  0.2183 -0.5870
   43CHL1    C6 5597   2.462   3.116   9.647 -0.5159  0.3951  0.5114
   43CHL1    H6 5598   2.404   3.185   9.710  1.4677 -0.3555  3.3135
   43CHL1    C7 5599   2.468   3.131   9.495  0.4350 -0.0547  0.4992
   43CHL1   H7A 5600   2.363   3.152   9.469  0.2988 -2.3498 -1.1286
   43CHL1   H7B 5601   2.534   3.216   9.466 -0.6527  0.3905 -0.7569
   43CHL1    C8 5602   2.525   3.017   9.413  0.3203 -0.3017 -0.2512
   43CHL1    H8 5603   2.453   2.933   9.416 -0.1713  0.1103  2.6413
   43CHL1   C14 5604   2.558   3.057   9.269 -0.1417  0.5312 -0.2131
   43CHL1   H14 5605   2.639   3.134   9.270  0.6643 -0.2332 -1.8373
   43CHL1   C15 5606   2.457   3.132   9.182 -0.7617  0.3664 -0.0385
   43CHL1  H15A 5607   2.355   3.088   9.190 -0.1734 -0.7964  1.4028
   43CHL1  H15B 5608   2.444   3.237   9.216  1.1593  0.1849  1.4380
   43CHL1   C16 5609   2.509   3.111   9.035 -0.0994  0.0678  0.1527
   43CHL1  H16A 5610   2.426   3.067   8.975 -0.0057 -3.0539  2.0953
   43CHL1  H16B 5611   2.538   3.209   8.992  0.4461 -0.5468 -0.9445
   43CHL1   C17 5612   2.631   3.019   9.047  0.1146 -0.9235 -0.0719
   43CHL1   H17 5613   2.717   3.087   9.065 -1.6469  0.6763  3.1746
   43CHL1   C13 5614   2.612   2.944   9.182 -0.1094 -0.1840  0.1667
   43CHL1   C18 5615   2.517   2.828   9.169  0.7957 -0.7297 -0.2607
   43CHL1  H18A 5616   2.495   2.780   9.267 -2.0367 -0.0188 -0.4642
   43CHL1  H18B 5617   2.417   2.867   9.140 -0.0483  0.0795  3.2741
   43CHL1  H18C 5618   2.553   2.742   9.109  1.6201 -1.1953  0.8703
   43CHL1   C12 5619   2.746   2.897   9.251  0.7471 -0.0167 -0.1039
   43CHL1  H12A 5620   2.789   2.817   9.188  0.9037  0.3916 -0.5200
   43CHL1  H12B 5621   2.811   2.987   9.245  0.5725  0.3251  2.0508
   43CHL1   C11 5622   2.733   2.857   9.394 -0.8370  0.5922  0.9092
   43CHL1  H11A 5623   2.699   2.751   9.396  1.2716 -0.1959 -0.8378
   43CHL1  H11B 5624   2.827   2.860   9.452 -1.0673  0.9121  1.2705
   43CHL1    C9 5625   2.649   2.951   9.484 -0.9040  0.1490 -0.3245
   43CHL1    H9 5626   2.715   3.040   9.494  0.6760 -1.0060 -0.1702
   43CHL1   C10 5627   2.619   2.909   9.629  0.3415 -0.1835 -0.1157
   43CHL1   C19 5628   2.556   2.764   9.620 -0.9046  0.0114  0.3615
   43CHL1  H19A 5629   2.491   2.762   9.529  3.2446 -0.4927 -2.9099
   43CHL1  H19B 5630   2.630   2.681   9.621 -1.0992 -0.1862 -0.4731
   43CHL1  H19C 5631   2.499   2.747   9.713  2.5746 -2.2590  2.2760
   43CHL1    C1 5632   2.745   2.907   9.718  0.2278 -0.4095  0.4437
   43CHL1   H1A 5633   2.814   2.828   9.679  1.6633  0.2628  1.5103
   43CHL1   H1B 5634   2.804   3.001   9.718  1.0707 -0.8994 -0.8920
   43CHL1    C2 5635   2.735   2.868   9.870 -0.2365  0.3300 -0.7084
   43CHL1   H2A 5636   2.835   2.865   9.916 -0.5055 -1.4214 -0.1626
   43CHL1   H2B 5637   2.676   2.773   9.873  0.5008 -0.1967 -1.9333
   43CHL1   C20 5638   2.655   2.931   8.919  0.3459 -0.4761  0.5126
   43CHL1   H20 5639   2.572   2.857   8.916  0.2547 -0.3828  0.7489
   43CHL1   C21 5640   2.800   2.880   8.936  0.3433  0.5936 -0.3600
   43CHL1  H21A 5641   2.857   2.866   8.842  1.8453 -3.4025  0.9130
   43CHL1  H21B 5642   2.814   2.784   8.991  3.3203  1.6055  0.8757
   43CHL1  H21C 5643   2.862   2.948   8.999 -1.0089  0.0553  1.6461
   43CHL1   C22 5644   2.642   3.012   8.786  0.4844 -0.0786 -0.1097
   43CHL1  H22A 5645   2.544   3.061   8.770  0.8986  0.2115 -1.9552
   43CHL1  H22B 5646   2.717   3.094   8.786 -2.1926  2.5741  1.2225
   43CHL1   C23 5647   2.657   2.922   8.663 -0.0013  0.9253 -0.3274
   43CHL1  H23A 5648   2.750   2.862   8.650 -1.0917 -1.0641  0.7654
   43CHL1  H23B 5649   2.585   2.838   8.666  2.8758 -1.6930  1.8883
   43CHL1   C24 5650   2.646   3.008   8.534  0.1501  0.4911 -0.0650
   43CHL1  H24A 5651   2.540   3.039   8.523 -0.4294 -0.6265  1.9292
   43CHL1  H24B 5652   2.699   3.103   8.557 -1.8682  1.1231  2.3628
   43CHL1   C25 5653   2.680   2.939   8.400 -0.1741 -0.4493  0.5190
   43CHL1   H25 5654   2.782   2.895   8.413  0.3209  0.8190  1.1063
   43CHL1   C26 5655   2.585   2.827   8.351  0.1182 -0.4872 -0.4939
   43CHL1  H26A 5656   2.475   2.843   8.362  0.0280 -1.9214  1.1475
   43CHL1  H26B 5657   2.607   2.802   8.245 -1.9666 -0.9222 -0.8780
   43CHL1  H26C 5658   2.597   2.729   8.403  0.7510 -0.9889 -1.5491
   43CHL1   C27 5659   2.694   3.048   8.291 -0.6405 -0.2262 -0.0562
   43CHL1  H27A 5660   2.596   3.096   8.274 -1.4962 -2.0649 -0.5516
   43CHL1  H27B 5661   2.767   3.128   8.319 -1.1008  0.5366 -0.9768
   43CHL1  H27C 5662   2.725   3.004   8.194  0.3366 -0.2793  0.2699
   44CHL1    C3 5663   3.011   3.405  10.021  0.0107  1.1582 -0.5035
   44CHL1    H3 5664   3.110   3.449   9.995  0.5964 -0.8425 -1.9424
   44CHL1    O3 5665   3.002   3.377  10.160  0.2768 -0.0528  0.1015
   44CHL1   H3' 5666   2.922   3.327  10.174  1.7347 -2.2071  1.2400
   44CHL1    C4 5667   2.899   3.505   9.978 -0.3808  0.1601 -0.2924
   44CHL1   H4A 5668   2.801   3.462  10.006 -0.4732  0.1397 -0.6443
   44CHL1   H4B 5669   2.907   3.594  10.044 -3.1461  0.5116 -0.3185
   44CHL1    C5 5670   2.901   3.540   9.833 -0.4981 -0.6974 -0.4656
   44CHL1    C6 5671   2.908   3.661   9.778  0.2333 -0.1261  0.7355
   44CHL1    H6 5672   2.928   3.753   9.836  0.4930  0.8724 -0.8579
   44CHL1    C7 5673   2.904   3.694   9.631 -0.0402  0.7281 -0.5007
   44CHL1   H7A 5674   2.828   3.772   9.609 -0.0085  1.6919  2.4123
   44CHL1   H7B 5675   2.996   3.738   9.586 -0.7850  0.9778 -1.8246
   44CHL1    C8 5676   2.852   3.572   9.546 -0.1675  0.0284  0.1481
   44CHL1    H8 5677   2.742   3.562   9.543 -0.1019 -0.7169  0.0123
   44CHL1   C14 5678   2.886   3.601   9.399  0.2037 -0.8349  0.0816
   44CHL1   H14 5679   2.993   3.631   9.398 -0.1713  0.6225  0.9386
   44CHL1   C15 5680   2.817   3.719   9.338  0.2231 -0.5194  0.5683
   44CHL1  H15A 5681   2.708   3.714   9.359 -0.2583  0.3633 -1.4554
   44CHL1  H15B 5682   2.859   3.815   9.373 -3.7487  2.5750 -2.2577
   44CHL1   C16 5683   2.830   3.681   9.189 -0.8352 -0.6051  1.0248
   44CHL1  H16A 5684   2.728   3.689   9.147  0.1143  4.3997 -1.0728
   44CHL1  H16B 5685   2.884   3.754   9.124 -0.4365 -1.2159  0.6617
   44CHL1   C17 5686   2.911   3.544   9.177 -0.0601 -0.0955 -0.3749
   44CHL1   H17 5687   3.018   3.574   9.180  0.1694 -0.9597  1.1947
   44CHL1   C13 5688   2.867   3.483   9.312 -0.2283 -0.1349  0.0087
   44CHL1   C18 5689   2.722   3.433   9.304 -0.3777  0.4139 -0.2833
   44CHL1  H18A 5690   2.723   3.340   9.243 -0.5115  0.0362  0.2829
   44CHL1  H18B 5691   2.668   3.417   9.400 -0.5130 -0.0112 -0.4308
   44CHL1  H18C 5692   2.664   3.506   9.243 -0.2914  1.4513  0.8272
   44CHL1   C12 5693   2.956   3.364   9.356  0.0064  0.3274 -0.0074
   44CHL1  H12A 5694   2.936   3.280   9.287 -0.8514  0.2593  0.3160
   44CHL1  H12B 5695   3.062   3.397   9.346 -1.0053  3.3420 -2.1873
   44CHL1   C11 5696   2.919   3.337   9.500 -0.5192  0.7702 -0.1819
   44CHL1  H11A 5697   2.824   3.280   9.495 -0.3127  0.5012 -3.6763
   44CHL1  H11B 5698   2.990   3.261   9.540 -2.3325 -0.5580  0.6262
   44CHL1    C9 5699   2.922   3.451   9.597 -0.5125 -0.4197 -0.1432
   44CHL1    H9 5700   3.029   3.478   9.594 -0.1872 -1.1752  2.6675
   44CHL1   C10 5701   2.896   3.407   9.747 -0.3751 -0.7838 -0.1893
   44CHL1   C19 5702   2.754   3.345   9.751 -0.1658  0.0529  0.4237
   44CHL1  H19A 5703   2.673   3.408   9.708 -2.3754 -1.6991  1.8197
   44CHL1  H19B 5704   2.754   3.247   9.700  1.4793  1.5208 -2.6717
   44CHL1  H19C 5705   2.716   3.322   9.853 -1.3024  2.8979  0.7265
   44CHL1    C1 5706   3.000   3.299   9.797 -0.5010  0.0064 -0.3388
   44CHL1   H1A 5707   2.989   3.204   9.741 -1.4838  0.7516 -1.4423
   44CHL1   H1B 5708   3.101   3.342   9.777  0.2090 -1.7030 -0.5759
   44CHL1    C2 5709   2.996   3.274   9.943 -0.2327  0.0544  0.6564
   44CHL1   H2A 5710   3.088   3.218   9.970  0.5910  0.6034 -0.9000
   44CHL1   H2B 5711   2.906   3.215   9.970  1.4614 -1.8210  2.6666
   44CHL1   C20 5712   2.868   3.472   9.046 -0.5264 -0.3947  0.9577
   44CHL1   H20 5713   2.759   3.453   9.048 -0.0514 -3.6364  0.3598
   44CHL1   C21 5714   2.946   3.339   9.022  0.2045  0.3127 -0.2050
   44CHL1  H21A 5715   3.049   3.380   9.015 -0.4413  1.8366 -1.3129
   44CHL1  H21B 5716   2.924   3.285   8.928 -0.1020  0.3173 -0.1374
   44CHL1  H21C 5717   2.936   3.256   9.095 -0.1365 -1.4743 -2.1874
   44CHL1   C22 5718   2.893   3.566   8.927  0.6049  0.2403  0.4323
   44CHL1  H22A 5719   2.831   3.657   8.948 -0.0065  0.7321 -2.9149
   44CHL1  H22B 5720   3.002   3.589   8.927  0.1337  2.8935 -0.1846
   44CHL1   C23 5721   2.848   3.514   8.792 -0.1557  0.7670  0.2800
   44CHL1  H23A 5722   2.890   3.414   8.772  0.8190  1.1385  0.4284
   44CHL1  H23B 5723   2.741   3.491   8.812 -0.1434  0.4565 -0.0232
   44CHL1   C24 5724   2.880   3.610   8.678 -0.4101 -0.3378 -0.1646
   44CHL1  H24A 5725   2.836   3.709   8.703 -1.3088 -1.5055  3.5017
   44CHL1  H24B 5726   2.991   3.611   8.681 -0.4244  0.8671  0.9593
   44CHL1   C25 5727   2.857   3.563   8.534  0.0733  0.2349 -0.0085
   44CHL1   H25 5728   2.920   3.474   8.517 -0.6012  0.1495 -2.3442
   44CHL1   C26 5729   2.718   3.516   8.512  0.3985  0.0640  0.0876
   44CHL1  H26A 5730   2.643   3.589   8.550 -0.7248 -0.1411 -1.6141
   44CHL1  H26B 5731   2.702   3.502   8.403  0.2802 -0.2161  0.1406
   44CHL1  H26C 5732   2.697   3.417   8.558  2.7109 -0.6183 -0.1986
   44CHL1   C27 5733   2.903   3.664   8.423 -0.5478 -0.8875 -1.1349
   44CHL1  H27A 5734   3.002   3.712   8.440 -1.3186  1.6764 -3.1157
   44CHL1  H27B 5735   2.892   3.600   8.333  0.1240 -0.3451 -1.6117
   44CHL1  H27C 5736   2.825   3.743   8.413  0.2868  0.2451  0.7667
   45CHL1    C3 5737   5.490   1.455  10.218 -0.8138 -0.8162  0.1803
   45CHL1    H3 5738   5.561   1.527  10.265 -1.0920  1.4320 -2.5939
   45CHL1    O3 5739   5.422   1.409  10.332  0.3735  0.7063  0.3217
   45CHL1   H3' 5740   5.483   1.359  10.387 -0.0322 -0.7995 -0.5306
   45CHL1    C4 5741   5.401   1.537  10.122  0.4658 -0.3307  0.4696
   45CHL1   H4A 5742   5.324   1.464  10.087  2.2325 -2.1836  0.2241
   45CHL1   H4B 5743   5.354   1.618  10.181 -1.2449 -1.3891  0.6385
   45CHL1    C5 5744   5.467   1.598   9.999 -0.7345 -0.3060 -0.3921
   45CHL1    C6 5745   5.455   1.732   9.973 -0.8566 -0.0219  0.6685
   45CHL1    H6 5746   5.399   1.802  10.037 -0.4260  2.8830 -1.8874
   45CHL1    C7 5747   5.526   1.800   9.852  0.7501  0.1365 -0.0367
   45CHL1   H7A 5748   5.470   1.880   9.799  2.8580  2.7407  1.4188
   45CHL1   H7B 5749   5.594   1.867   9.908 -0.4975  1.6765 -0.3027
   45CHL1    C8 5750   5.604   1.706   9.758 -0.4103 -0.4400  0.1375
   45CHL1    H8 5751   5.692   1.767   9.729 -2.2594  2.0036 -0.7051
   45CHL1   C14 5752   5.534   1.684   9.621 -0.3950  0.8595  0.3484
   45CHL1   H14 5753   5.436   1.636   9.642  0.5979 -0.4191  2.4403
   45CHL1   C15 5754   5.509   1.813   9.542  0.0440  0.4851 -0.1623
   45CHL1  H15A 5755   5.405   1.853   9.547 -0.7683 -1.3794 -0.8774
   45CHL1  H15B 5756   5.573   1.896   9.577  1.8867 -1.9729  2.8700
   45CHL1   C16 5757   5.536   1.783   9.390  1.0686 -0.8954 -0.3150
   45CHL1  H16A 5758   5.448   1.734   9.345 -1.1827  2.8836 -0.4193
   45CHL1  H16B 5759   5.552   1.883   9.344 -0.5641 -0.5887 -0.2640
   45CHL1   C17 5760   5.651   1.684   9.403  0.4277  0.4542 -0.3808
   45CHL1   H17 5761   5.734   1.744   9.447 -0.1706  0.4428  0.8128
   45CHL1   C13 5762   5.617   1.596   9.529 -0.2205  0.4425  0.4542
   45CHL1   C18 5763   5.524   1.489   9.480  0.5807  1.0343 -0.0774
   45CHL1  H18A 5764   5.429   1.529   9.439  0.1097  1.2038  1.1590
   45CHL1  H18B 5765   5.583   1.424   9.412  2.0192  2.7494 -0.5601
   45CHL1  H18C 5766   5.489   1.426   9.564  1.1366  0.6326 -0.1402
   45CHL1   C12 5767   5.746   1.539   9.596 -0.0419 -0.4208  0.6627
   45CHL1  H12A 5768   5.805   1.473   9.528 -0.0807 -0.4639  0.6705
   45CHL1  H12B 5769   5.818   1.622   9.613  1.5029 -1.2123 -1.5623
   45CHL1   C11 5770   5.724   1.472   9.728  0.8005  0.3155 -1.9010
   45CHL1  H11A 5771   5.666   1.381   9.702  1.9783 -0.4766 -1.7980
   45CHL1  H11B 5772   5.813   1.428   9.778  0.1352  0.8992 -0.1506
   45CHL1    C9 5773   5.652   1.573   9.822 -0.5331  0.5906 -0.2310
   45CHL1    H9 5774   5.735   1.613   9.884 -0.8705  1.9009 -0.5948
   45CHL1   C10 5775   5.557   1.494   9.923 -0.9917 -0.0616 -1.0896
   45CHL1   C19 5776   5.461   1.403   9.840  0.1802  0.0107  0.2132
   45CHL1  H19A 5777   5.435   1.473   9.758  2.5196 -0.2876 -0.8893
   45CHL1  H19B 5778   5.513   1.318   9.792  1.8394  1.0530  0.0830
   45CHL1  H19C 5779   5.370   1.365   9.892 -0.8096 -0.6166 -1.8738
   45CHL1    C1 5780   5.646   1.415  10.030 -0.3837 -0.1852 -0.4287
   45CHL1   H1A 5781   5.686   1.322   9.985 -2.2314 -0.6757 -1.1412
   45CHL1   H1B 5782   5.736   1.471  10.062 -0.0905  0.3866 -2.1451
   45CHL1    C2 5783   5.562   1.347  10.138  0.2491  0.0347 -0.0632
   45CHL1   H2A 5784   5.627   1.276  10.193 -0.9444 -1.1495 -0.1234
   45CHL1   H2B 5785   5.490   1.285  10.080  1.3687 -1.5676  0.1893
   45CHL1   C20 5786   5.688   1.621   9.270  0.1118  0.0766  0.6831
   45CHL1   H20 5787   5.750   1.530   9.288  0.5254  0.1637 -0.2691
   45CHL1   C21 5788   5.798   1.711   9.205 -0.5458  0.3223 -0.8134
   45CHL1  H21A 5789   5.878   1.726   9.281  0.1117 -1.6473 -1.0470
   45CHL1  H21B 5790   5.748   1.809   9.186  0.9407  1.3165  0.1668
   45CHL1  H21C 5791   5.840   1.666   9.113  1.2962  0.0128  0.1229
   45CHL1   C22 5792   5.574   1.592   9.166 -0.8037 -0.5077  0.5897
   45CHL1  H22A 5793   5.495   1.537   9.221 -1.8482  0.4022  0.0257
   45CHL1  H22B 5794   5.526   1.687   9.134  1.4919  0.7020  0.4760
   45CHL1   C23 5795   5.614   1.522   9.039  0.1500 -0.5794 -0.3946
   45CHL1  H23A 5796   5.657   1.599   8.972 -1.5691  0.9906  0.2167
   45CHL1  H23B 5797   5.689   1.447   9.069  0.5097  0.4674  1.4570
   45CHL1   C24 5798   5.490   1.449   8.987  0.6006 -0.1559 -0.5591
   45CHL1  H24A 5799   5.481   1.369   9.063  0.2895 -0.4067 -0.8582
   45CHL1  H24B 5800   5.404   1.517   8.973  1.5570  0.9339 -1.3320
   45CHL1   C25 5801   5.519   1.376   8.854  0.0083 -0.4202  0.0116
   45CHL1   H25 5802   5.600   1.300   8.865 -0.2087 -0.7256 -0.4781
   45CHL1   C26 5803   5.400   1.286   8.824  0.0901 -0.2302 -0.1118
   45CHL1  H26A 5804   5.386   1.212   8.906 -0.0855 -1.6018 -1.3346
   45CHL1  H26B 5805   5.304   1.340   8.812  0.4988  0.3118 -1.0733
   45CHL1  H26C 5806   5.430   1.222   8.737 -0.3894  1.2958 -1.4495
   45CHL1   C27 5807   5.555   1.465   8.742  0.0769  0.0906  0.6533
   45CHL1  H27A 5808   5.648   1.522   8.765  1.3072 -0.7589 -1.8664
   45CHL1  H27B 5809   5.569   1.402   8.652  1.1041  2.0437 -0.6159
   45CHL1  H27C 5810   5.482   1.547   8.724  0.0420 -0.7238 -4.1275
   46CHL1    C3 5811   1.519   5.575  10.137  0.6526  0.2388 -0.0488
   46CHL1    H3 5812   1.610   5.614  10.087  2.4023 -0.6336  2.2760
   46CHL1    O3 5813   1.568   5.533  10.264  0.1537  0.9520 -0.0220
   46CHL1   H3' 5814   1.490   5.515  10.317  0.5828 -0.9437  0.0450
   46CHL1    C4 5815   1.413   5.686  10.144  0.7927 -0.0760 -0.3392
   46CHL1   H4A 5816   1.335   5.673  10.222  0.7107  1.7183 -0.0957
   46CHL1   H4B 5817   1.465   5.778  10.179  2.0638 -0.8776 -0.0377
   46CHL1    C5 5818   1.352   5.717  10.005 -0.0080 -0.8093 -0.5614
   46CHL1    C6 5819   1.349   5.850   9.970  0.0286  0.9414 -0.2554
   46CHL1    H6 5820   1.386   5.923  10.043 -0.9154 -0.7659  2.0566
   46CHL1    C7 5821   1.306   5.889   9.836  0.1527  1.0792  0.1328
   46CHL1   H7A 5822   1.257   5.988   9.828 -0.4709  0.6985 -1.1480
   46CHL1   H7B 5823   1.402   5.892   9.780  1.9244 -1.6275  2.7276
   46CHL1    C8 5824   1.221   5.779   9.755 -0.2593 -0.2272 -0.7588
   46CHL1    H8 5825   1.118   5.768   9.795  0.4126 -1.1903  0.8149
   46CHL1   C14 5826   1.206   5.821   9.614 -0.1973  0.6445  0.2624
   46CHL1   H14 5827   1.309   5.826   9.572 -0.1796 -2.5177 -0.3130
   46CHL1   C15 5828   1.146   5.955   9.584  0.5732  0.3076 -0.1646
   46CHL1  H15A 5829   1.052   5.974   9.641  0.2298  0.7738 -0.8785
   46CHL1  H15B 5830   1.205   6.043   9.618 -1.7632  1.2558  1.7879
   46CHL1   C16 5831   1.109   5.950   9.436  0.0189 -0.4687  0.1503
   46CHL1  H16A 5832   1.009   5.996   9.420  0.6521  0.7994 -0.2657
   46CHL1  H16B 5833   1.173   6.016   9.374 -1.3845 -0.4866 -1.3769
   46CHL1   C17 5834   1.132   5.800   9.395  0.1908 -0.8661 -0.4465
   46CHL1   H17 5835   1.234   5.797   9.352 -0.0315 -0.2597 -1.0377
   46CHL1   C13 5836   1.137   5.721   9.525  0.9656 -0.6895 -0.2835
   46CHL1   C18 5837   0.984   5.708   9.578  0.1806 -0.3489  0.7051
   46CHL1  H18A 5838   0.977   5.642   9.667 -0.9468  1.7592  2.2739
   46CHL1  H18B 5839   0.944   5.807   9.609 -0.1323 -0.0130 -0.7323
   46CHL1  H18C 5840   0.923   5.664   9.497  0.4367  1.7798 -0.7317
   46CHL1   C12 5841   1.218   5.591   9.528  0.1282  0.3700 -0.5013
   46CHL1  H12A 5842   1.169   5.517   9.460  0.8481  2.7105 -3.8682
   46CHL1  H12B 5843   1.322   5.602   9.491 -0.2655 -0.2725 -1.8766
   46CHL1   C11 5844   1.235   5.535   9.669 -0.1821 -0.0788  0.1227
   46CHL1  H11A 5845   1.133   5.499   9.694 -0.4989  0.1319 -0.8138
   46CHL1  H11B 5846   1.300   5.445   9.666 -0.7431 -0.5266  0.8806
   46CHL1    C9 5847   1.298   5.644   9.765  1.1738 -0.2799  0.4893
   46CHL1    H9 5848   1.399   5.675   9.731  1.1036  0.4493  0.9397
   46CHL1   C10 5849   1.320   5.600   9.908  0.1635 -0.1474  0.4137
   46CHL1   C19 5850   1.187   5.556   9.967  0.2143  0.2302  0.0314
   46CHL1  H19A 5851   1.162   5.458   9.921 -2.0924 -0.4836  2.5071
   46CHL1  H19B 5852   1.182   5.541  10.077  0.3644  0.1932  0.0337
   46CHL1  H19C 5853   1.103   5.625   9.947 -1.7925 -2.2523 -0.6139
   46CHL1    C1 5854   1.427   5.480   9.916 -0.1877  0.6852 -0.1463
   46CHL1   H1A 5855   1.381   5.388   9.873  2.2617 -0.3554 -0.6890
   46CHL1   H1B 5856   1.515   5.509   9.855  1.7612 -0.1913  2.0822
   46CHL1    C2 5857   1.467   5.445  10.063  0.0126 -0.0052 -0.5408
   46CHL1   H2A 5858   1.545   5.367  10.061 -0.1342 -0.2969  1.6969
   46CHL1   H2B 5859   1.386   5.401  10.125  0.6583 -1.1812 -0.5152
   46CHL1   C20 5860   1.028   5.758   9.282 -0.9459 -0.3502 -0.3781
   46CHL1   H20 5861   0.924   5.751   9.320 -1.5500  2.0411 -1.4162
   46CHL1   C21 5862   1.070   5.618   9.229 -0.0433  0.2312 -0.1065
   46CHL1  H21A 5863   1.010   5.587   9.141 -1.1495  2.5172 -0.2457
   46CHL1  H21B 5864   1.052   5.546   9.312  2.8794 -0.4160  0.0676
   46CHL1  H21C 5865   1.177   5.617   9.199  0.3500  2.5202  0.9927
   46CHL1   C22 5866   1.031   5.867   9.166  0.5786 -0.3837  0.5775
   46CHL1  H22A 5867   0.976   5.822   9.080  0.0623 -0.5248  0.9762
   46CHL1  H22B 5868   0.976   5.960   9.192  0.0060  0.3471 -2.7361
   46CHL1   C23 5869   1.170   5.898   9.112  0.2594  0.0865  0.6164
   46CHL1  H23A 5870   1.226   5.964   9.181  1.5351  0.5474 -0.8116
   46CHL1  H23B 5871   1.235   5.808   9.106  0.8651  0.3602  2.4664
   46CHL1   C24 5872   1.173   5.965   8.977  0.5296  0.2329 -0.4441
   46CHL1  H24A 5873   1.279   5.979   8.949  0.2828  1.7185 -0.7334
   46CHL1  H24B 5874   1.114   5.908   8.902 -0.4986  0.6732  0.0088
   46CHL1   C25 5875   1.110   6.108   8.986  0.1926  0.4344  0.4155
   46CHL1   H25 5876   1.010   6.106   9.036 -0.8225  2.8881 -1.3205
   46CHL1   C26 5877   1.193   6.200   9.069  0.4163  0.1175 -0.9047
   46CHL1  H26A 5878   1.205   6.155   9.169 -4.0108 -0.4297 -0.4335
   46CHL1  H26B 5879   1.297   6.218   9.035  0.5523  0.4973 -0.2977
   46CHL1  H26C 5880   1.149   6.297   9.101  1.9084 -0.5238  3.8742
   46CHL1   C27 5881   1.081   6.181   8.857  0.5977  0.4127 -0.2413
   46CHL1  H27A 5882   1.166   6.172   8.786  1.7124  0.9423  1.0090
   46CHL1  H27B 5883   0.993   6.147   8.798  0.0303  0.2331  0.6858
   46CHL1  H27C 5884   1.070   6.289   8.879 -1.9408  0.6771 -2.3165
   47CHL1    C3 5885   3.392   2.807  10.087 -0.6302 -0.6730  0.2500
   47CHL1    H3 5886   3.500   2.796  10.067 -0.2266 -0.2294  2.0333
   47CHL1    O3 5887   3.368   2.794  10.226  0.1967 -0.1218  0.8656
   47CHL1   H3' 5888   3.276   2.821  10.226 -0.2815 -1.5388 -1.0163
   47CHL1    C4 5889   3.339   2.945  10.047 -0.2523  0.0585  0.2533
   47CHL1   H4A 5890   3.232   2.955  10.079 -0.0343  0.3786  0.9113
   47CHL1   H4B 5891   3.395   3.020  10.106 -2.2564  1.4387  0.5232
   47CHL1    C5 5892   3.334   2.964   9.900  0.9405  0.3554  0.8925
   47CHL1    C6 5893   3.389   3.076   9.845  0.2140 -0.8012  0.3986
   47CHL1    H6 5894   3.430   3.154   9.912  1.1937  0.0625 -1.1397
   47CHL1    C7 5895   3.391   3.108   9.701 -0.4967  0.0368 -0.0814
   47CHL1   H7A 5896   3.359   3.215   9.699 -0.3623  0.0763 -0.1391
   47CHL1   H7B 5897   3.492   3.115   9.655 -0.4979 -0.3257 -0.1371
   47CHL1    C8 5898   3.304   3.019   9.621 -0.0517  0.1822 -0.4130
   47CHL1    H8 5899   3.200   3.057   9.637  0.2423  0.5352  0.7873
   47CHL1   C14 5900   3.336   3.037   9.470  0.4182  0.2725 -0.0340
   47CHL1   H14 5901   3.440   3.005   9.449  0.3694 -0.1470  0.3437
   47CHL1   C15 5902   3.331   3.182   9.416 -0.7297 -0.9393  0.3486
   47CHL1  H15A 5903   3.251   3.242   9.465  1.2795  1.1463  1.2445
   47CHL1  H15B 5904   3.429   3.233   9.431 -1.8721  1.4024  0.3882
   47CHL1   C16 5905   3.307   3.172   9.265  0.7439 -0.1421  0.0117
   47CHL1  H16A 5906   3.211   3.219   9.236  0.3599 -2.5257 -3.0295
   47CHL1  H16B 5907   3.389   3.216   9.203 -0.3943  0.3133 -1.2293
   47CHL1   C17 5908   3.292   3.015   9.236 -0.5262  0.9249  0.1474
   47CHL1   H17 5909   3.387   2.961   9.213 -1.2119 -1.9298  3.2259
   47CHL1   C13 5910   3.251   2.955   9.376 -0.2825 -0.3810  0.2805
   47CHL1   C18 5911   3.100   2.987   9.392  0.4148 -0.3860 -0.2028
   47CHL1  H18A 5912   3.081   3.096   9.378 -0.2833 -0.5998 -0.9942
   47CHL1  H18B 5913   3.045   2.932   9.313 -1.0549 -0.1477  0.6102
   47CHL1  H18C 5914   3.073   2.956   9.495 -0.4946 -1.3667 -0.7185
   47CHL1   C12 5915   3.288   2.809   9.405  0.4500  0.6572  0.1532
   47CHL1  H12A 5916   3.212   2.745   9.355  1.1891 -0.8554  0.8821
   47CHL1  H12B 5917   3.389   2.780   9.367  0.0026 -0.3562 -0.2890
   47CHL1   C11 5918   3.266   2.784   9.552 -0.1746  0.2219 -0.4750
   47CHL1  H11A 5919   3.159   2.774   9.576  0.5921 -0.7759  3.0983
   47CHL1  H11B 5920   3.317   2.690   9.583 -2.3453 -0.1283  2.4393
   47CHL1    C9 5921   3.319   2.874   9.664  0.0707 -0.0874 -0.4076
   47CHL1    H9 5922   3.428   2.853   9.668  0.4057  1.7662  2.2165
   47CHL1   C10 5923   3.270   2.850   9.806  0.3870 -0.0322 -0.4089
   47CHL1   C19 5924   3.119   2.872   9.812 -0.2675 -0.5866  0.1544
   47CHL1  H19A 5925   3.062   2.819   9.733  0.5829 -1.6227  0.2013
   47CHL1  H19B 5926   3.079   2.829   9.906  1.1454 -3.4204 -0.3958
   47CHL1  H19C 5927   3.096   2.980   9.800  0.8687 -0.4229 -0.7521
   47CHL1    C1 5928   3.327   2.718   9.866  0.5771  0.2921 -0.5746
   47CHL1   H1A 5929   3.288   2.627   9.815  3.0023 -1.5580  0.6273
   47CHL1   H1B 5930   3.435   2.717   9.842  0.3540 -0.3570 -1.5963
   47CHL1    C2 5931   3.305   2.700  10.014 -0.5935 -0.8154  0.2588
   47CHL1   H2A 5932   3.344   2.599  10.039 -0.1042 -1.2534 -2.0601
   47CHL1   H2B 5933   3.197   2.706  10.041 -0.3776  0.0069  1.0174
   47CHL1   C20 5934   3.209   2.992   9.110 -0.0253  0.0677  0.0013
   47CHL1   H20 5935   3.106   3.024   9.136 -0.0416 -0.3840  0.4899
   47CHL1   C21 5936   3.209   2.841   9.070  0.1825 -0.2574 -0.3718
   47CHL1  H21A 5937   3.160   2.820   8.973  1.5946  0.7238 -1.3420
   47CHL1  H21B 5938   3.162   2.788   9.155  1.9159  0.5351  1.1530
   47CHL1  H21C 5939   3.311   2.805   9.044  0.5803  1.2454 -1.0231
   47CHL1   C22 5940   3.253   3.078   8.992  0.3477  0.2622  0.3889
   47CHL1  H22A 5941   3.258   3.188   9.003  1.4388  0.2263  0.3612
   47CHL1  H22B 5942   3.358   3.048   8.970  1.9900  1.9419  4.7911
   47CHL1   C23 5943   3.155   3.062   8.872  0.2338 -0.3363  0.8813
   47CHL1  H23A 5944   3.159   2.962   8.824 -0.2873  0.2006 -0.3080
   47CHL1  H23B 5945   3.051   3.081   8.907 -0.1663 -0.9942  0.0959
   47CHL1   C24 5946   3.175   3.161   8.758 -0.3899  0.2947  0.4928
   47CHL1  H24A 5947   3.147   3.261   8.799 -0.2455  0.2901  0.6007
   47CHL1  H24B 5948   3.283   3.166   8.732  0.0942  0.0048  2.3162
   47CHL1   C25 5949   3.108   3.132   8.625  0.2436 -0.0486 -0.0254
   47CHL1   H25 5950   3.132   3.029   8.590 -0.0174 -0.0266 -0.2746
   47CHL1   C26 5951   2.953   3.129   8.622 -0.3145 -0.3386  0.3959
   47CHL1  H26A 5952   2.913   3.117   8.519 -1.2828  1.2744  0.5585
   47CHL1  H26B 5953   2.917   3.226   8.661 -2.3980 -0.4472 -1.0986
   47CHL1  H26C 5954   2.899   3.053   8.683 -4.3374  1.2787 -0.8332
   47CHL1   C27 5955   3.158   3.234   8.524 -0.5000 -0.3519  0.6855
   47CHL1  H27A 5956   3.267   3.255   8.519 -1.2439  5.4322  1.5147
   47CHL1  H27B 5957   3.132   3.213   8.418  0.9009  3.1854 -0.5069
   47CHL1  H27C 5958   3.107   3.331   8.539 -1.2876  0.1162 -3.7969
   48CHL1    C3 5959   3.887   3.006  10.045 -0.4806  0.7852 -0.2685
   48CHL1    H3 5960   3.954   2.930  10.000 -1.1129 -0.2077  0.4103
   48CHL1    O3 5961   3.855   2.967  10.178 -0.7328  0.2638  0.0263
   48CHL1   H3' 5962   3.835   3.051  10.221  1.0052  0.6275  0.2058
   48CHL1    C4 5963   3.923   3.150  10.053 -0.2867  0.5476  0.4825
   48CHL1   H4A 5964   3.854   3.212  10.115  0.9293  0.5101  1.9433
   48CHL1   H4B 5965   4.015   3.159  10.115  0.4789  0.0755 -0.5657
   48CHL1    C5 5966   3.940   3.222   9.924 -0.2059  0.1400  0.6100
   48CHL1    C6 5967   4.050   3.283   9.882 -0.0034 -1.0556  0.4817
   48CHL1    H6 5968   4.140   3.281   9.945  1.9121  0.7040 -1.9939
   48CHL1    C7 5969   4.064   3.360   9.751  0.3489 -0.5151  0.0218
   48CHL1   H7A 5970   4.106   3.461   9.770  1.1052 -1.1141  1.7018
   48CHL1   H7B 5971   4.136   3.302   9.689  0.4010 -2.2911  1.6600
   48CHL1    C8 5972   3.931   3.382   9.677  0.2534 -0.3164 -0.4361
   48CHL1    H8 5973   3.879   3.470   9.720  2.0217  1.8325 -2.4452
   48CHL1   C14 5974   3.967   3.410   9.537  0.6601  0.5385 -0.6679
   48CHL1   H14 5975   4.023   3.320   9.506  1.0078  0.8775 -1.0379
   48CHL1   C15 5976   4.049   3.538   9.516  0.0019 -0.0144  0.2754
   48CHL1  H15A 5977   4.021   3.620   9.585 -0.7087 -0.9839  1.1643
   48CHL1  H15B 5978   4.157   3.540   9.541  0.6627  4.7920 -1.7116
   48CHL1   C16 5979   4.034   3.551   9.359 -0.0070 -0.5509 -0.0208
   48CHL1  H16A 5980   4.031   3.658   9.330 -1.0866 -0.4381  0.4490
   48CHL1  H16B 5981   4.123   3.522   9.300  0.5498  0.9560  0.0326
   48CHL1   C17 5982   3.916   3.460   9.312 -0.1732 -0.0846 -0.4329
   48CHL1   H17 5983   3.963   3.368   9.271  0.8408 -0.0423  0.5945
   48CHL1   C13 5984   3.845   3.425   9.439  0.5119 -0.4289 -0.1140
   48CHL1   C18 5985   3.760   3.542   9.485  0.7382  0.3138  0.0808
   48CHL1  H18A 5986   3.732   3.525   9.591 -0.5059  0.4608 -0.2159
   48CHL1  H18B 5987   3.812   3.640   9.494  0.7952  0.2322  0.7009
   48CHL1  H18C 5988   3.674   3.545   9.416 -1.5423 -3.1445  2.4558
   48CHL1   C12 5989   3.771   3.288   9.449 -0.6336  0.4526 -0.3513
   48CHL1  H12A 5990   3.685   3.294   9.380 -0.0151  1.4867 -1.0695
   48CHL1  H12B 5991   3.844   3.218   9.403 -1.8937 -0.1794 -1.4171
   48CHL1   C11 5992   3.731   3.259   9.597 -0.4760  0.1942 -0.2908
   48CHL1  H11A 5993   3.653   3.330   9.631 -0.9466  0.0147 -0.9647
   48CHL1  H11B 5994   3.678   3.162   9.582 -0.9317  0.4795 -0.5773
   48CHL1    C9 5995   3.844   3.254   9.692 -0.0595  0.2077  0.4129
   48CHL1    H9 5996   3.906   3.167   9.660  0.0185  0.3843  0.0801
   48CHL1   C10 5997   3.813   3.211   9.834 -0.3005 -0.0671  1.0367
   48CHL1   C19 5998   3.707   3.307   9.887  0.0735  0.4860  0.0596
   48CHL1  H19A 5999   3.681   3.276   9.990 -2.2842 -0.4099 -0.7289
   48CHL1  H19B 6000   3.740   3.412   9.873 -2.6736  1.6915  1.7186
   48CHL1  H19C 6001   3.611   3.299   9.831  0.9280 -1.8926 -1.2013
   48CHL1    C1 6002   3.768   3.061   9.832 -0.1871 -0.2172 -0.1935
   48CHL1   H1A 6003   3.677   3.057   9.769  0.4443  2.2143 -1.3880
   48CHL1   H1B 6004   3.849   2.998   9.790  0.4745 -0.1955  1.0097
   48CHL1    C2 6005   3.752   2.996   9.968  0.0983 -0.0960  0.0726
   48CHL1   H2A 6006   3.718   2.891   9.957 -1.4625  0.1564  1.9194
   48CHL1   H2B 6007   3.679   3.044  10.037 -1.5913 -1.4568 -0.6702
   48CHL1   C20 6008   3.848   3.532   9.195 -0.1133  0.0925  0.3022
   48CHL1   H20 6009   3.816   3.630   9.236  1.3798  0.1441  1.4380
   48CHL1   C21 6010   3.730   3.445   9.152 -0.1556  0.2986 -0.3958
   48CHL1  H21A 6011   3.759   3.347   9.108 -2.4133 -0.6844  0.1130
   48CHL1  H21B 6012   3.676   3.499   9.071 -0.1774 -1.0395 -1.3260
   48CHL1  H21C 6013   3.647   3.423   9.222  0.7658 -0.9531  0.3438
   48CHL1   C22 6014   3.935   3.562   9.071 -0.3806 -0.2937  0.4739
   48CHL1  H22A 6015   3.859   3.590   8.995 -1.5199  1.2371  2.0893
   48CHL1  H22B 6016   4.000   3.652   9.084  0.1518 -0.3892 -1.2787
   48CHL1   C23 6017   4.023   3.449   9.009 -0.0901 -0.2534  0.7441
   48CHL1  H23A 6018   4.094   3.415   9.087  0.7684 -0.5102 -0.1355
   48CHL1  H23B 6019   3.950   3.366   8.996 -1.9440  0.8635  3.2045
   48CHL1   C24 6020   4.076   3.506   8.869 -0.1321  0.5918  0.3788
   48CHL1  H24A 6021   4.118   3.421   8.812  0.2412  0.2934  1.0893
   48CHL1  H24B 6022   3.986   3.549   8.819 -0.2757  0.3523  0.4259
   48CHL1   C25 6023   4.188   3.608   8.885 -0.1991 -0.0464  0.0755
   48CHL1   H25 6024   4.172   3.675   8.973 -0.2339 -0.2048  0.1895
   48CHL1   C26 6025   4.324   3.538   8.920 -0.5041 -0.2072  0.2675
   48CHL1  H26A 6026   4.396   3.616   8.953  0.9489 -1.1019 -0.6869
   48CHL1  H26B 6027   4.312   3.474   9.010  0.5087  1.0605  1.3573
   48CHL1  H26C 6028   4.349   3.487   8.824 -1.3117  0.1999 -0.1777
   48CHL1   C27 6029   4.201   3.689   8.750  0.2386  0.2819 -0.9943
   48CHL1  H27A 6030   4.292   3.752   8.748  0.0981  0.7058  1.5979
   48CHL1  H27B 6031   4.209   3.615   8.668 -2.0494 -0.8802 -0.2803
   48CHL1  H27C 6032   4.109   3.752   8.740 -1.2308 -0.7829  3.4982
   49CHL1    C3 6033   2.366   5.753  10.038 -0.1205  0.3549 -0.4374
   49CHL1    H3 6034   2.440   5.673  10.020 -1.6660 -1.3103  0.2180
   49CHL1    O3 6035   2.353   5.789  10.175 -0.1525 -0.7291 -0.1897
   49CHL1   H3' 6036   2.361   5.706  10.223  0.5250  0.0408  1.0838
   49CHL1    C4 6037   2.388   5.885   9.960  0.3177 -0.2226 -0.5295
   49CHL1   H4A 6038   2.322   5.960  10.008  0.4470 -1.4749  1.7936
   49CHL1   H4B 6039   2.487   5.914  10.003  0.5801 -2.4605  0.5342
   49CHL1    C5 6040   2.368   5.874   9.809  0.3489  0.1835  0.5048
   49CHL1    C6 6041   2.475   5.900   9.734  0.5552 -0.4534  0.3946
   49CHL1    H6 6042   2.566   5.948   9.773  2.1905 -1.7146 -1.6258
   49CHL1    C7 6043   2.465   5.886   9.580 -0.6288 -0.4987 -0.6516
   49CHL1   H7A 6044   2.512   5.973   9.530 -2.6437 -0.4014 -2.5389
   49CHL1   H7B 6045   2.529   5.803   9.544  1.1731  0.5713 -0.0471
   49CHL1    C8 6046   2.325   5.865   9.523  0.6869  0.0460  0.9056
   49CHL1    H8 6047   2.266   5.956   9.545 -1.0880 -0.0257 -2.7814
   49CHL1   C14 6048   2.321   5.840   9.370 -0.2335 -0.2677  0.1363
   49CHL1   H14 6049   2.383   5.751   9.345 -1.1270 -0.9133  0.1908
   49CHL1   C15 6050   2.387   5.940   9.280 -0.4343  0.4932 -0.2302
   49CHL1  H15A 6051   2.358   6.042   9.314  0.5417  0.8560 -0.4530
   49CHL1  H15B 6052   2.497   5.944   9.262 -0.2205  1.7924  1.0693
   49CHL1   C16 6053   2.318   5.909   9.149  0.8989 -0.5160  0.2704
   49CHL1  H16A 6054   2.269   6.000   9.109  1.1493  0.2018  1.5329
   49CHL1  H16B 6055   2.384   5.860   9.073 -0.3393 -1.1216 -0.4472
   49CHL1   C17 6056   2.208   5.802   9.175 -0.7217 -0.4298 -0.2964
   49CHL1   H17 6057   2.243   5.697   9.163 -1.2722 -0.4440 -2.0037
   49CHL1   C13 6058   2.181   5.814   9.325  0.5231 -0.6352  0.0232
   49CHL1   C18 6059   2.076   5.938   9.343 -0.2360  0.5444 -0.1988
   49CHL1  H18A 6060   2.113   6.033   9.300 -0.9264  0.2444 -1.5128
   49CHL1  H18B 6061   1.981   5.912   9.291 -0.8806 -1.3951  1.7660
   49CHL1  H18C 6062   2.063   5.956   9.452 -0.8491 -0.4741 -0.0845
   49CHL1   C12 6063   2.134   5.685   9.399 -1.1185  0.0196 -0.3528
   49CHL1  H12A 6064   2.034   5.655   9.360 -0.9322  0.2036 -0.9906
   49CHL1  H12B 6065   2.208   5.603   9.390  1.0513  1.7927  0.4711
   49CHL1   C11 6066   2.123   5.708   9.541 -0.0058  0.1740 -0.1563
   49CHL1  H11A 6067   2.047   5.788   9.557  0.2082  0.6299 -1.3542
   49CHL1  H11B 6068   2.090   5.610   9.581 -2.3586  0.8162 -0.3344
   49CHL1    C9 6069   2.258   5.752   9.608  0.0656  0.2858  0.7711
   49CHL1    H9 6070   2.328   5.666   9.607  1.3079  1.2731  0.7779
   49CHL1   C10 6071   2.244   5.798   9.751 -0.6934  0.7920 -0.7405
   49CHL1   C19 6072   2.129   5.892   9.778 -0.0346 -0.1266 -0.8054
   49CHL1  H19A 6073   2.035   5.833   9.774 -0.1038  0.0057 -1.2143
   49CHL1  H19B 6074   2.133   5.943   9.876 -1.1909  1.2697 -1.4590
   49CHL1  H19C 6075   2.136   5.972   9.702 -2.3511 -0.2355 -1.1996
   49CHL1    C1 6076   2.209   5.672   9.839  0.5256  0.7365  0.1848
   49CHL1   H1A 6077   2.104   5.645   9.817  0.2886  1.1457  0.7702
   49CHL1   H1B 6078   2.277   5.593   9.801  1.0716  1.9834 -1.6010
   49CHL1    C2 6079   2.225   5.697   9.989  0.0662  0.2014  0.1173
   49CHL1   H2A 6080   2.190   5.609  10.046  2.2453 -1.4016 -0.8710
   49CHL1   H2B 6081   2.154   5.779  10.015 -0.1661 -0.0175  0.1666
   49CHL1   C20 6082   2.088   5.808   9.068  0.0789  0.7142 -0.4516
   49CHL1   H20 6083   2.045   5.910   9.070  0.5431  1.1188 -4.1160
   49CHL1   C21 6084   1.981   5.695   9.092 -0.3796 -0.4194 -0.5088
   49CHL1  H21A 6085   2.041   5.602   9.106 -0.2855 -0.3032 -0.1296
   49CHL1  H21B 6086   1.903   5.689   9.012 -0.2152  1.8989 -0.8912
   49CHL1  H21C 6087   1.938   5.712   9.193  1.2506 -2.8995  0.7224
   49CHL1   C22 6088   2.134   5.796   8.920 -0.2015 -0.8615  0.8095
   49CHL1  H22A 6089   2.053   5.819   8.848  0.4818 -1.8561 -0.3022
   49CHL1  H22B 6090   2.216   5.870   8.911 -2.2670  1.4110 -0.7378
   49CHL1   C23 6091   2.185   5.662   8.877  0.2041 -0.0284  0.5507
   49CHL1  H23A 6092   2.232   5.617   8.967 -0.0857 -0.4096  0.5167
   49CHL1  H23B 6093   2.100   5.597   8.848 -0.5479  1.4987 -0.8123
   49CHL1   C24 6094   2.274   5.670   8.751  0.3797  0.2497 -0.1460
   49CHL1  H24A 6095   2.210   5.715   8.671 -0.4550 -0.5859  0.0325
   49CHL1  H24B 6096   2.362   5.737   8.753 -1.0642  2.3938 -2.2404
   49CHL1   C25 6097   2.326   5.537   8.690  0.2814 -0.4565 -0.2691
   49CHL1   H25 6098   2.243   5.466   8.668 -0.0532 -1.0606  2.5138
   49CHL1   C26 6099   2.396   5.569   8.554  0.5334 -0.2950 -0.0719
   49CHL1  H26A 6100   2.418   5.481   8.490  0.0947 -0.4218 -0.0488
   49CHL1  H26B 6101   2.334   5.639   8.495  1.1396 -0.3492 -0.7872
   49CHL1  H26C 6102   2.494   5.620   8.572  0.3839  0.4444 -1.2516
   49CHL1   C27 6103   2.425   5.472   8.778  0.3325  0.3203  0.9386
   49CHL1  H27A 6104   2.384   5.442   8.877  0.4170 -1.8268  0.3602
   49CHL1  H27B 6105   2.448   5.383   8.717  0.9424  2.7409 -2.6802
   49CHL1  H27C 6106   2.521   5.526   8.794 -0.0452  1.1407  0.5402
   50CHL1    C3 6107   4.599   0.561  10.037 -0.1072  0.9471  0.5800
   50CHL1    H3 6108   4.534   0.471  10.033  2.2346 -0.7956 -0.4819
   50CHL1    O3 6109   4.597   0.607  10.176 -0.2614 -0.0661 -0.2807
   50CHL1   H3' 6110   4.612   0.701  10.184 -1.5861 -0.0515  4.4589
   50CHL1    C4 6111   4.736   0.510   9.986  0.4727  0.5342  0.0234
   50CHL1   H4A 6112   4.819   0.584   9.994  0.8061  0.3090 -1.1833
   50CHL1   H4B 6113   4.759   0.416  10.040 -1.5432  0.4182  0.7590
   50CHL1    C5 6114   4.735   0.482   9.833 -0.8323  0.3990  0.8116
   50CHL1    C6 6115   4.775   0.359   9.788 -0.4018 -0.3373 -0.4523
   50CHL1    H6 6116   4.818   0.285   9.858 -1.4380 -0.4200  0.1079
   50CHL1    C7 6117   4.765   0.325   9.643 -0.4195  0.5968 -0.3021
   50CHL1   H7A 6118   4.835   0.250   9.599  0.3462  1.2335 -0.1766
   50CHL1   H7B 6119   4.669   0.269   9.638 -0.1360 -0.3835  2.9456
   50CHL1    C8 6120   4.753   0.443   9.549  0.6526 -0.7681 -0.0909
   50CHL1    H8 6121   4.846   0.503   9.538  0.4992 -0.0795  1.9723
   50CHL1   C14 6122   4.711   0.400   9.405  0.0052 -0.8408  0.3464
   50CHL1   H14 6123   4.633   0.323   9.420  0.6203 -1.0947  2.5801
   50CHL1   C15 6124   4.820   0.320   9.327 -0.9888  0.0157  1.4295
   50CHL1  H15A 6125   4.922   0.359   9.347  0.4041 -1.8697 -1.3119
   50CHL1  H15B 6126   4.829   0.211   9.346 -0.1523 -0.2939 -0.5033
   50CHL1   C16 6127   4.779   0.332   9.175 -0.2598  0.2383 -0.2021
   50CHL1  H16A 6128   4.854   0.399   9.128  2.2408 -1.4771  1.0914
   50CHL1  H16B 6129   4.772   0.239   9.116  1.4241 -0.0903  0.0537
   50CHL1   C17 6130   4.655   0.423   9.182  0.1899 -0.3401 -0.0686
   50CHL1   H17 6131   4.572   0.353   9.204  0.0334  0.3900  1.7899
   50CHL1   C13 6132   4.675   0.508   9.304 -0.3408 -0.6416 -0.3215
   50CHL1   C18 6133   4.781   0.620   9.286  0.3125 -0.1874  1.4804
   50CHL1  H18A 6134   4.739   0.704   9.225  1.8167  0.0366  0.7205
   50CHL1  H18B 6135   4.822   0.668   9.377  1.2603  1.6330  0.1549
   50CHL1  H18C 6136   4.866   0.573   9.233  0.3894  0.7473  0.7316
   50CHL1   C12 6137   4.549   0.584   9.364 -0.1563  0.8764 -0.3636
   50CHL1  H12A 6138   4.507   0.658   9.292 -1.5116  0.7023  0.2094
   50CHL1  H12B 6139   4.475   0.502   9.378  0.3053  0.0283 -2.4179
   50CHL1   C11 6140   4.591   0.645   9.498 -0.5557  0.4334 -0.2849
   50CHL1  H11A 6141   4.676   0.716   9.484  1.0730 -1.0664  1.4737
   50CHL1  H11B 6142   4.500   0.694   9.538 -1.0844 -1.7959  1.4300
   50CHL1    C9 6143   4.645   0.538   9.604  0.0149  0.5225  0.7276
   50CHL1    H9 6144   4.560   0.468   9.619 -0.7736  1.3676  0.3437
   50CHL1   C10 6145   4.677   0.584   9.745  0.1858  0.3427  0.2319
   50CHL1   C19 6146   4.778   0.705   9.734 -0.9756  0.0311 -0.7751
   50CHL1  H19A 6147   4.736   0.784   9.668  0.3125  0.6468 -0.8955
   50CHL1  H19B 6148   4.806   0.752   9.831  1.0075 -0.9887 -0.8045
   50CHL1  H19C 6149   4.864   0.670   9.673 -0.1531 -1.9175  1.3407
   50CHL1    C1 6150   4.540   0.631   9.808 -0.1997 -0.8719 -0.2249
   50CHL1   H1A 6151   4.498   0.713   9.747  0.7356  0.3217  0.6891
   50CHL1   H1B 6152   4.474   0.542   9.817  2.3822 -2.7425  2.0175
   50CHL1    C2 6153   4.550   0.676   9.953 -0.6254  0.2949 -0.3312
   50CHL1   H2A 6154   4.450   0.708   9.990 -0.5354 -1.1506  1.2633
   50CHL1   H2B 6155   4.614   0.764   9.974 -1.5605  1.1179 -0.8213
   50CHL1   C20 6156   4.621   0.492   9.048 -0.0678 -0.1820  0.7559
   50CHL1   H20 6157   4.647   0.600   9.055  0.8186 -0.1685 -1.7905
   50CHL1   C21 6158   4.466   0.472   9.033  0.7076 -0.4864  0.2441
   50CHL1  H21A 6159   4.408   0.536   9.103 -0.1185  1.3916 -2.0119
   50CHL1  H21B 6160   4.451   0.363   9.049  1.1837 -0.2223  3.0146
   50CHL1  H21C 6161   4.437   0.521   8.937 -0.5925  0.8327  1.2588
   50CHL1   C22 6162   4.707   0.436   8.934  0.1986  0.2459  0.5238
   50CHL1  H22A 6163   4.815   0.459   8.936 -0.0196  1.4131 -0.0407
   50CHL1  H22B 6164   4.705   0.326   8.923 -2.0516  0.4232 -2.0397
   50CHL1   C23 6165   4.657   0.491   8.798 -0.1220 -0.9020 -0.1339
   50CHL1  H23A 6166   4.551   0.460   8.791 -0.5265 -0.0795  1.6529
   50CHL1  H23B 6167   4.664   0.602   8.800  0.8839 -0.9322 -1.0303
   50CHL1   C24 6168   4.724   0.423   8.672  0.8250 -0.2508 -0.3419
   50CHL1  H24A 6169   4.835   0.434   8.662  0.6911  1.1969 -0.4665
   50CHL1  H24B 6170   4.702   0.315   8.662 -0.0527  0.0785 -2.4959
   50CHL1   C25 6171   4.650   0.472   8.546  0.2890 -0.1435 -0.4371
   50CHL1   H25 6172   4.543   0.446   8.561  0.1167  0.1355 -1.1210
   50CHL1   C26 6173   4.664   0.624   8.524  0.1881 -0.5563 -0.2695
   50CHL1  H26A 6174   4.614   0.655   8.430 -2.8228  1.6066  1.8423
   50CHL1  H26B 6175   4.613   0.676   8.609 -0.6747 -2.1528  0.2437
   50CHL1  H26C 6176   4.772   0.650   8.530  0.5303 -2.1468  1.2089
   50CHL1   C27 6177   4.690   0.393   8.419  0.2848 -0.1454  0.2055
   50CHL1  H27A 6178   4.800   0.399   8.404  0.4388 -1.5447  0.6588
   50CHL1  H27B 6179   4.653   0.288   8.419 -0.2653 -0.0592 -2.9123
   50CHL1  H27C 6180   4.649   0.455   8.337 -1.4411  2.9736  3.1655
   51CHL1    C3 6181   0.035   2.530  10.283 -0.0787 -0.3478  0.7737
   51CHL1    H3 6182   0.045   2.640  10.287 -0.0981 -0.3782  2.0369
   51CHL1    O3 6183   0.093   2.467  10.394 -0.0435  0.6581 -0.0577
   51CHL1   H3' 6184   0.106   2.377  10.363 -1.9891  0.2066  0.2714
   51CHL1    C4 6185  -0.110   2.494  10.279  0.0883 -0.0231 -0.1688
   51CHL1   H4A 6186  -0.117   2.383  10.277 -0.0606 -0.1848  3.2812
   51CHL1   H4B 6187  -0.150   2.528  10.377 -0.1311  1.9546 -0.8978
   51CHL1    C5 6188  -0.175   2.553  10.162  0.8035 -0.3842  0.4607
   51CHL1    C6 6189  -0.273   2.643  10.172 -0.2720 -0.1703  0.3953
   51CHL1    H6 6190  -0.315   2.679  10.267 -1.2411 -1.4467  0.4778
   51CHL1    C7 6191  -0.347   2.701  10.055  0.6296 -0.2260 -0.0462
   51CHL1   H7A 6192  -0.456   2.682  10.063  0.6055 -0.0558  0.0421
   51CHL1   H7B 6193  -0.325   2.810  10.066 -1.7758  0.0462  3.3009
   51CHL1    C8 6194  -0.320   2.640   9.916  0.6740 -0.1861  0.6632
   51CHL1    H8 6195  -0.384   2.551   9.898  1.7015 -0.5981 -1.1701
   51CHL1   C14 6196  -0.350   2.738   9.806 -0.4217 -0.1529 -0.1046
   51CHL1   H14 6197  -0.280   2.823   9.816 -1.0861  0.2686  1.1530
   51CHL1   C15 6198  -0.485   2.816   9.816  0.1412 -0.0730 -0.4558
   51CHL1  H15A 6199  -0.563   2.743   9.847  2.3704 -1.5674  2.0738
   51CHL1  H15B 6200  -0.485   2.901   9.887  0.9151 -1.2468  0.9905
   51CHL1   C16 6201  -0.497   2.868   9.671 -0.2497  0.0875  0.5110
   51CHL1  H16A 6202  -0.593   2.827   9.634 -1.2187  0.6148  2.2924
   51CHL1  H16B 6203  -0.498   2.979   9.674  0.4345  0.1962 -1.6456
   51CHL1   C17 6204  -0.377   2.814   9.585 -0.0693 -0.3089 -0.6072
   51CHL1   H17 6205  -0.301   2.894   9.592 -0.5910  0.2269 -1.0051
   51CHL1   C13 6206  -0.327   2.692   9.663  0.6063  0.2593  0.1530
   51CHL1   C18 6207  -0.419   2.570   9.625  0.6146 -0.3935  0.5054
   51CHL1  H18A 6208  -0.402   2.487   9.697 -0.3426  1.3547  2.8580
   51CHL1  H18B 6209  -0.524   2.605   9.637  1.6120  2.4841  1.7644
   51CHL1  H18C 6210  -0.407   2.525   9.524 -2.0042  0.6090 -0.3564
   51CHL1   C12 6211  -0.179   2.650   9.654  0.3251 -0.2510  0.6254
   51CHL1  H12A 6212  -0.175   2.595   9.558  1.1026 -3.9613  2.5527
   51CHL1  H12B 6213  -0.113   2.738   9.663 -0.6633  0.4877  0.8808
   51CHL1   C11 6214  -0.130   2.549   9.761 -0.0359  0.3553 -0.0201
   51CHL1  H11A 6215  -0.171   2.448   9.741 -2.6196  1.4339 -0.5116
   51CHL1  H11B 6216  -0.019   2.539   9.758 -0.0575 -0.4389  1.0915
   51CHL1    C9 6217  -0.175   2.598   9.902 -0.5420  0.0368  1.3089
   51CHL1    H9 6218  -0.128   2.698   9.912 -0.6326  0.8313 -3.5361
   51CHL1   C10 6219  -0.119   2.514  10.021 -0.4675 -0.6449  0.3979
   51CHL1   C19 6220  -0.147   2.363   9.998  0.1545  0.1818  0.1156
   51CHL1  H19A 6221  -0.091   2.300  10.071 -1.2403  0.9750  1.9721
   51CHL1  H19B 6222  -0.255   2.345  10.018  0.3676  1.2969  2.6402
   51CHL1  H19C 6223  -0.119   2.327   9.897  1.6602  0.1585  0.5194
   51CHL1    C1 6224   0.039   2.531  10.020  0.6481 -0.0417 -0.1509
   51CHL1   H1A 6225   0.082   2.496   9.924  0.0035 -0.8718 -0.1404
   51CHL1   H1B 6226   0.054   2.640  10.036  0.4616 -0.2793  1.8439
   51CHL1    C2 6227   0.105   2.481  10.147  0.0523  0.4208 -0.3920
   51CHL1   H2A 6228   0.212   2.512  10.154 -0.0662  0.4803  1.6541
   51CHL1   H2B 6229   0.097   2.370  10.150  1.5361  0.3105  1.1490
   51CHL1   C20 6230  -0.404   2.792   9.435 -0.1812 -0.7309  0.7034
   51CHL1   H20 6231  -0.478   2.710   9.427  0.7854 -1.4224 -1.9132
   51CHL1   C21 6232  -0.279   2.742   9.362 -0.5367 -0.8756  0.7296
   51CHL1  H21A 6233  -0.266   2.633   9.379  2.3570 -0.4623  1.6252
   51CHL1  H21B 6234  -0.187   2.798   9.385 -0.0629 -0.2640 -2.1997
   51CHL1  H21C 6235  -0.285   2.764   9.253 -1.2301  0.7348  1.0714
   51CHL1   C22 6236  -0.472   2.914   9.376  0.2872 -0.3209 -0.4554
   51CHL1  H22A 6237  -0.546   2.959   9.445  1.9908  0.2817  1.0528
   51CHL1  H22B 6238  -0.387   2.986   9.377  1.0015 -1.1349 -0.5481
   51CHL1   C23 6239  -0.537   2.892   9.235 -0.1868  0.3213 -0.6559
   51CHL1  H23A 6240  -0.460   2.852   9.166 -0.3028 -2.0789  0.5093
   51CHL1  H23B 6241  -0.605   2.804   9.243  0.3170  0.0002  0.1936
   51CHL1   C24 6242  -0.622   3.008   9.178  0.2623  0.1372 -0.6785
   51CHL1  H24A 6243  -0.688   3.037   9.262 -0.0577 -0.2756 -0.7836
   51CHL1  H24B 6244  -0.559   3.099   9.165 -0.6470  0.5150 -2.9190
   51CHL1   C25 6245  -0.708   2.983   9.045 -0.0969 -0.4591 -0.6438
   51CHL1   H25 6246  -0.782   2.901   9.063 -0.5721  0.3467  1.3000
   51CHL1   C26 6247  -0.779   3.112   9.007 -1.1189  0.1117  0.5857
   51CHL1  H26A 6248  -0.858   3.141   9.079 -1.6521  0.5693 -0.1736
   51CHL1  H26B 6249  -0.713   3.200   8.993 -0.0322 -1.0080 -1.8197
   51CHL1  H26C 6250  -0.829   3.106   8.908 -2.5084  3.2652  0.9868
   51CHL1   C27 6251  -0.618   2.943   8.932 -0.1318 -0.0444 -0.5611
   51CHL1  H27A 6252  -0.540   3.019   8.911 -1.7104  1.2724 -1.9277
   51CHL1  H27B 6253  -0.583   2.838   8.946 -0.8371 -0.0176  1.8313
   51CHL1  H27C 6254  -0.683   2.943   8.842 -0.4340  1.0828 -0.3527
   52CHL1    C3 6255   2.971   2.333  10.077 -0.2528 -0.0123  0.0528
   52CHL1    H3 6256   2.943   2.440  10.072  2.2223  0.6682 -1.0057
   52CHL1    O3 6257   2.974   2.298  10.213  0.0757  0.9725 -0.4702
   52CHL1   H3' 6258   3.063   2.320  10.241 -0.0237  3.7727 -2.0168
   52CHL1    C4 6259   2.877   2.245   9.996 -0.1284  0.2654 -0.3468
   52CHL1   H4A 6260   2.907   2.138  10.000 -1.7959 -0.2207  2.5122
   52CHL1   H4B 6261   2.778   2.255  10.045 -0.8971  2.5702 -2.1868
   52CHL1    C5 6262   2.869   2.302   9.855  0.3022  0.7035 -0.1937
   52CHL1    C6 6263   2.762   2.355   9.798 -0.6371  0.5417 -0.0214
   52CHL1    H6 6264   2.664   2.353   9.850  0.9480  0.7949  3.2371
   52CHL1    C7 6265   2.753   2.401   9.652  0.0003  0.6068 -1.2953
   52CHL1   H7A 6266   2.668   2.349   9.604  0.7645 -2.2364  0.1915
   52CHL1   H7B 6267   2.751   2.512   9.650 -0.7889  0.6713  1.0445
   52CHL1    C8 6268   2.879   2.358   9.563 -0.0096  0.4115 -0.4605
   52CHL1    H8 6269   2.854   2.256   9.529  0.4467 -0.8199  2.5353
   52CHL1   C14 6270   2.893   2.436   9.435  0.0765 -0.0579 -0.3051
   52CHL1   H14 6271   2.908   2.542   9.462  0.0694  0.1443 -1.0592
   52CHL1   C15 6272   2.766   2.436   9.350 -0.1423 -0.1507 -0.5771
   52CHL1  H15A 6273   2.737   2.329   9.351  1.8983 -0.7692  0.5442
   52CHL1  H15B 6274   2.686   2.507   9.380 -0.3805  0.3646 -2.3477
   52CHL1   C16 6275   2.814   2.475   9.207  0.2113 -0.6257  0.2002
   52CHL1  H16A 6276   2.784   2.401   9.129 -0.8088  1.9019 -1.9788
   52CHL1  H16B 6277   2.767   2.567   9.166  2.7009  0.0665 -1.3060
   52CHL1   C17 6278   2.971   2.487   9.220 -0.0581 -0.2370 -0.2781
   52CHL1   H17 6279   2.988   2.593   9.248 -0.0623 -0.6882  1.5992
   52CHL1   C13 6280   3.006   2.398   9.345 -0.3987  0.1941 -0.1362
   52CHL1   C18 6281   3.003   2.246   9.298 -0.2485 -0.2716 -0.2727
   52CHL1  H18A 6282   3.002   2.177   9.385 -0.1017 -0.4686 -0.4237
   52CHL1  H18B 6283   2.909   2.210   9.250  0.4577 -3.4709  0.4952
   52CHL1  H18C 6284   3.096   2.219   9.243  0.5838 -1.0505  1.4517
   52CHL1   C12 6285   3.142   2.433   9.425  0.0492  0.6127  0.5709
   52CHL1  H12A 6286   3.241   2.416   9.376 -0.3164  0.3409 -0.0845
   52CHL1  H12B 6287   3.147   2.542   9.446  1.2458  0.2192  2.6094
   52CHL1   C11 6288   3.133   2.359   9.559  0.2302  0.3113 -0.1463
   52CHL1  H11A 6289   3.139   2.248   9.549 -2.9440 -0.4180  3.6005
   52CHL1  H11B 6290   3.224   2.382   9.617  0.5756  1.4292 -1.0910
   52CHL1    C9 6291   3.003   2.382   9.646 -0.2899  0.1327  0.0316
   52CHL1    H9 6292   3.004   2.491   9.668 -1.0899  0.2459 -0.4669
   52CHL1   C10 6293   3.005   2.298   9.778  0.1505  0.4220  0.0168
   52CHL1   C19 6294   3.042   2.151   9.742 -0.1892 -0.2516 -0.5308
   52CHL1  H19A 6295   3.000   2.107   9.649 -1.3320 -0.5629  0.1070
   52CHL1  H19B 6296   3.152   2.143   9.732  0.0912 -3.1992  2.9790
   52CHL1  H19C 6297   3.017   2.088   9.830  0.0208  0.2059 -0.1381
   52CHL1    C1 6298   3.116   2.355   9.867  0.1802 -0.0439  0.4648
   52CHL1   H1A 6299   3.213   2.323   9.825 -0.5637 -0.3794 -1.0703
   52CHL1   H1B 6300   3.121   2.466   9.861 -1.5660  0.0221 -0.5371
   52CHL1    C2 6301   3.113   2.307  10.014  0.2656 -0.4703 -0.3644
   52CHL1   H2A 6302   3.194   2.357  10.070  0.0151 -0.0880 -0.3387
   52CHL1   H2B 6303   3.117   2.196  10.009 -1.4040 -0.5717 -0.1911
   52CHL1   C20 6304   3.043   2.452   9.093  0.4766 -0.1586  0.0529
   52CHL1   H20 6305   3.014   2.350   9.060  3.1390 -0.8166 -0.4914
   52CHL1   C21 6306   3.193   2.461   9.109 -0.6622  0.1392  0.0590
   52CHL1  H21A 6307   3.240   2.446   9.009 -0.7427  2.4752 -0.3983
   52CHL1  H21B 6308   3.241   2.387   9.176 -0.8790  1.4149  1.6984
   52CHL1  H21C 6309   3.214   2.563   9.147 -1.0478  0.0126  0.6187
   52CHL1   C22 6310   2.994   2.541   8.983  0.1934 -0.4596  0.9615
   52CHL1  H22A 6311   2.886   2.515   8.973  0.1697 -0.1963  0.4975
   52CHL1  H22B 6312   2.996   2.645   9.020 -1.2465  0.0836 -0.3515
   52CHL1   C23 6313   3.054   2.529   8.848  0.0993  0.2833 -0.0450
   52CHL1  H23A 6314   3.164   2.544   8.860 -0.0102 -0.5341  2.8760
   52CHL1  H23B 6315   3.037   2.427   8.807 -0.8199  0.3460  0.1684
   52CHL1   C24 6316   3.005   2.629   8.735 -0.2212  0.1001 -0.8778
   52CHL1  H24A 6317   2.899   2.610   8.707 -0.5774  0.1308  0.4053
   52CHL1  H24B 6318   3.017   2.737   8.758  3.7071 -0.2903 -0.4123
   52CHL1   C25 6319   3.103   2.620   8.613  0.5003 -0.5069 -0.2380
   52CHL1   H25 6320   3.103   2.511   8.594  0.2416 -0.1664 -2.5110
   52CHL1   C26 6321   3.038   2.694   8.495  0.9279  0.2583 -0.3333
   52CHL1  H26A 6322   3.041   2.804   8.511  1.7109  0.4500 -1.7209
   52CHL1  H26B 6323   3.095   2.689   8.400  1.2072  1.4104 -0.2390
   52CHL1  H26C 6324   2.942   2.645   8.468  1.1411 -0.3749  0.0300
   52CHL1   C27 6325   3.240   2.676   8.638 -0.1621 -0.0459 -0.5438
   52CHL1  H27A 6326   3.235   2.786   8.648  1.8926  0.0662 -0.3837
   52CHL1  H27B 6327   3.283   2.633   8.731 -0.1362  0.4198 -0.3387
   52CHL1  H27C 6328   3.300   2.662   8.546 -0.3159 -0.1665 -0.6267
   53CHL1    C3 6329   4.309   1.730   9.966 -0.4711  0.8454  0.1739
   53CHL1    H3 6330   4.342   1.833   9.941  0.8191  0.4640  0.2495
   53CHL1    O3 6331   4.289   1.725  10.107  0.0905  0.4052 -0.4573
   53CHL1   H3' 6332   4.195   1.708  10.120 -0.7245  1.1021 -4.1757
   53CHL1    C4 6333   4.182   1.681   9.890  0.4138 -0.0961  0.3925
   53CHL1   H4A 6334   4.166   1.576   9.925 -0.1554 -0.7869 -1.7622
   53CHL1   H4B 6335   4.101   1.749   9.922 -1.4539 -2.7002  1.6231
   53CHL1    C5 6336   4.195   1.675   9.738  0.2738 -0.4533  0.0989
   53CHL1    C6 6337   4.103   1.731   9.652  0.7867 -0.8474 -0.4928
   53CHL1    H6 6338   4.009   1.773   9.691 -0.0972 -2.3166 -0.9873
   53CHL1    C7 6339   4.122   1.737   9.509  0.3212 -0.4225 -0.1370
   53CHL1   H7A 6340   4.027   1.738   9.450  0.9011  3.7189 -1.3594
   53CHL1   H7B 6341   4.157   1.842   9.492  0.2119  0.2333  3.1019
   53CHL1    C8 6342   4.219   1.641   9.446  0.6114 -0.2233 -0.6284
   53CHL1    H8 6343   4.173   1.541   9.434  0.6687 -0.0518 -2.7896
   53CHL1   C14 6344   4.248   1.684   9.299 -0.2283  0.0330 -0.0142
   53CHL1   H14 6345   4.295   1.785   9.299 -1.5070  0.6436  0.5118
   53CHL1   C15 6346   4.131   1.685   9.202 -0.2994 -0.3366  0.2926
   53CHL1  H15A 6347   4.069   1.594   9.211 -1.2328  0.2957  0.3870
   53CHL1  H15B 6348   4.067   1.773   9.223  0.6977  0.7974 -1.1396
   53CHL1   C16 6349   4.204   1.693   9.065 -0.3044 -0.1655 -0.3434
   53CHL1  H16A 6350   4.161   1.609   9.007  1.8672 -0.6928 -1.2771
   53CHL1  H16B 6351   4.204   1.794   9.018  0.2962  0.4297  0.8686
   53CHL1   C17 6352   4.352   1.648   9.089  0.4444 -0.2700 -0.7168
   53CHL1   H17 6353   4.412   1.741   9.094 -2.6019  1.7907  0.3653
   53CHL1   C13 6354   4.350   1.591   9.233  0.1232 -0.4200  0.0939
   53CHL1   C18 6355   4.296   1.445   9.238  0.3553  0.3710 -0.0419
   53CHL1  H18A 6356   4.200   1.448   9.182 -0.1220  0.7532  0.7835
   53CHL1  H18B 6357   4.360   1.380   9.175  1.7835  0.9724  0.7553
   53CHL1  H18C 6358   4.277   1.399   9.337 -1.0151  0.8470 -0.0527
   53CHL1   C12 6359   4.483   1.611   9.316  0.2939 -0.0588  0.1370
   53CHL1  H12A 6360   4.570   1.565   9.266 -0.0898 -0.7819  0.1198
   53CHL1  H12B 6361   4.502   1.721   9.317  3.2660 -0.4397 -1.9169
   53CHL1   C11 6362   4.467   1.566   9.462  0.2848 -0.8921 -0.2042
   53CHL1  H11A 6363   4.454   1.456   9.452 -0.7993 -0.7041 -1.0602
   53CHL1  H11B 6364   4.564   1.591   9.509 -0.1575  0.2456  0.1465
   53CHL1    C9 6365   4.353   1.643   9.530 -0.1594 -0.4918 -0.2324
   53CHL1    H9 6366   4.396   1.745   9.537  2.5044 -1.5317 -0.1813
   53CHL1   C10 6367   4.327   1.609   9.678  0.0439 -0.1976 -0.0890
   53CHL1   C19 6368   4.292   1.459   9.683 -0.5609  0.3816 -0.5652
   53CHL1  H19A 6369   4.380   1.399   9.651 -0.9516 -1.1721  1.1278
   53CHL1  H19B 6370   4.276   1.430   9.789 -0.2948 -1.3859 -0.9822
   53CHL1  H19C 6371   4.202   1.428   9.625  0.7009 -2.5799 -1.1181
   53CHL1    C1 6372   4.454   1.644   9.771  0.7849 -0.8618  0.1057
   53CHL1   H1A 6373   4.545   1.582   9.755  1.7533  0.0762  1.6651
   53CHL1   H1B 6374   4.489   1.742   9.733  2.1232 -0.4948  2.1222
   53CHL1    C2 6375   4.422   1.638   9.926 -0.8019  0.3642  0.0324
   53CHL1   H2A 6376   4.513   1.668   9.982 -2.4090  1.3883  2.2735
   53CHL1   H2B 6377   4.388   1.535   9.948  0.3428  0.2357  1.3463
   53CHL1   C20 6378   4.411   1.572   8.970 -0.4330 -0.5023  0.6647
   53CHL1   H20 6379   4.374   1.467   8.965  1.8676 -1.4831  2.2068
   53CHL1   C21 6380   4.561   1.560   9.004  0.1054 -0.1626 -0.2794
   53CHL1  H21A 6381   4.623   1.525   8.919 -0.1307 -3.3459  0.7143
   53CHL1  H21B 6382   4.582   1.479   9.078  0.0966 -0.7315 -0.8870
   53CHL1  H21C 6383   4.588   1.660   9.044  0.4497 -0.4086  0.1118
   53CHL1   C22 6384   4.395   1.644   8.838 -0.2529  0.1351  0.3605
   53CHL1  H22A 6385   4.327   1.731   8.831 -1.2138 -0.6348 -0.2777
   53CHL1  H22B 6386   4.497   1.683   8.818  0.1150 -1.8386 -2.2300
   53CHL1   C23 6387   4.358   1.559   8.707 -0.0569 -0.4123 -0.3613
   53CHL1  H23A 6388   4.430   1.475   8.709  0.1298 -0.2990  3.0876
   53CHL1  H23B 6389   4.259   1.509   8.715 -0.0278 -0.5332 -0.7601
   53CHL1   C24 6390   4.363   1.657   8.592  0.8232  0.6837 -0.0685
   53CHL1  H24A 6391   4.280   1.731   8.596 -0.6388 -0.8572 -0.8356
   53CHL1  H24B 6392   4.462   1.707   8.595  0.9740  0.3998 -0.3094
   53CHL1   C25 6393   4.360   1.594   8.448 -0.1384  0.1827  0.6139
   53CHL1   H25 6394   4.255   1.560   8.434  0.0446 -0.5716  0.9849
   53CHL1   C26 6395   4.386   1.706   8.347 -0.0625  0.7809  0.2594
   53CHL1  H26A 6396   4.367   1.687   8.240 -3.7849  0.2368  0.8904
   53CHL1  H26B 6397   4.315   1.788   8.370 -2.4338 -0.6803 -1.3629
   53CHL1  H26C 6398   4.485   1.746   8.376  1.1981 -1.3058 -0.8954
   53CHL1   C27 6399   4.457   1.480   8.422 -0.2176 -0.0827 -0.2518
   53CHL1  H27A 6400   4.440   1.432   8.323  0.0937 -0.1121 -0.2926
   53CHL1  H27B 6401   4.564   1.506   8.433  0.2279 -2.4643  2.3527
   53CHL1  H27C 6402   4.433   1.401   8.497 -0.7973 -0.7763 -1.1353
   54CHL1    C3 6403   4.908   1.672  10.157 -0.2720 -0.3780  0.3502
   54CHL1    H3 6404   4.837   1.589  10.135 -0.5309  0.0258 -0.3808
   54CHL1    O3 6405   4.921   1.693  10.300 -0.0595  0.3246  0.0873
   54CHL1   H3' 6406   4.835   1.728  10.324 -1.0583 -0.2840 -2.2758
   54CHL1    C4 6407   5.038   1.634  10.091  0.3857  0.2962 -0.5269
   54CHL1   H4A 6408   5.118   1.704  10.124  2.2680 -0.7464 -2.5949
   54CHL1   H4B 6409   5.080   1.539  10.131 -0.4788  0.4992  0.9286
   54CHL1    C5 6410   5.019   1.629   9.935 -0.1506 -0.0217  0.7531
   54CHL1    C6 6411   5.064   1.521   9.870  0.7091 -0.0771  0.5649
   54CHL1    H6 6412   5.110   1.439   9.926  0.1333 -1.3917 -0.7934
   54CHL1    C7 6413   5.054   1.507   9.724 -0.6772 -0.5899 -0.2855
   54CHL1   H7A 6414   5.156   1.481   9.688  0.3885  2.2383  0.4283
   54CHL1   H7B 6415   4.985   1.425   9.697 -1.8078  0.1614  0.2207
   54CHL1    C8 6416   5.024   1.637   9.646 -0.0202 -0.4964  0.1592
   54CHL1    H8 6417   5.108   1.710   9.648 -0.4522 -0.0052  0.6206
   54CHL1   C14 6418   4.975   1.599   9.504 -0.1735  0.0602 -0.2502
   54CHL1   H14 6419   4.878   1.545   9.505  1.9433 -4.2684 -2.7964
   54CHL1   C15 6420   5.072   1.506   9.420  1.2354 -0.3182 -0.2406
   54CHL1  H15A 6421   5.179   1.533   9.432  1.2771  0.4018 -2.0224
   54CHL1  H15B 6422   5.062   1.397   9.440  0.6986 -0.0434  1.1373
   54CHL1   C16 6423   5.017   1.533   9.276  0.1772 -0.0648 -0.3738
   54CHL1  H16A 6424   5.105   1.572   9.220 -1.0088  1.3550 -1.3335
   54CHL1  H16B 6425   4.977   1.447   9.218 -1.2574 -0.2250  0.8022
   54CHL1   C17 6426   4.914   1.649   9.283 -0.5623 -0.4241 -0.3689
   54CHL1   H17 6427   4.816   1.599   9.298 -0.6877  0.4912  2.4921
   54CHL1   C13 6428   4.948   1.720   9.413 -0.3006  0.5516  0.1304
   54CHL1   C18 6429   5.083   1.799   9.397 -0.5863  0.0344  0.1766
   54CHL1  H18A 6430   5.125   1.838   9.493  0.4799 -0.3499 -0.1174
   54CHL1  H18B 6431   5.162   1.741   9.343 -2.4047 -0.6509 -1.8792
   54CHL1  H18C 6432   5.063   1.886   9.331  0.0576 -0.8607 -1.2377
   54CHL1   C12 6433   4.839   1.809   9.484  0.1668 -0.0642  0.4841
   54CHL1  H12A 6434   4.830   1.901   9.422  2.1221  0.6604  1.1709
   54CHL1  H12B 6435   4.746   1.753   9.465  0.0251  0.0137  0.9324
   54CHL1   C11 6436   4.866   1.838   9.635 -0.2860 -0.2306  0.0764
   54CHL1  H11A 6437   4.936   1.924   9.640 -1.4394  0.6659  1.4881
   54CHL1  H11B 6438   4.774   1.872   9.686  1.5571  0.1148  3.4892
   54CHL1    C9 6439   4.909   1.714   9.718  0.6986  0.0872  0.4373
   54CHL1    H9 6440   4.823   1.643   9.725  0.0576  0.7302 -0.6276
   54CHL1   C10 6441   4.951   1.743   9.866 -0.7585  0.0288 -0.9486
   54CHL1   C19 6442   5.054   1.863   9.870  0.1611  0.9208  0.7434
   54CHL1  H19A 6443   5.009   1.962   9.847  1.8118  1.6714  0.6689
   54CHL1  H19B 6444   5.105   1.865   9.968 -2.6766 -1.5886  2.4631
   54CHL1  H19C 6445   5.134   1.855   9.793 -0.6178 -0.5808  0.0164
   54CHL1    C1 6446   4.826   1.778   9.946  0.5447  0.4109 -0.6196
   54CHL1   H1A 6447   4.789   1.870   9.895 -2.3048 -0.2154  0.1141
   54CHL1   H1B 6448   4.744   1.706   9.926  0.4591  0.2485  0.2742
   54CHL1    C2 6449   4.846   1.798  10.091  0.8549  0.2004  0.0126
   54CHL1   H2A 6450   4.745   1.811  10.135  0.2630  0.0429 -1.2438
   54CHL1   H2B 6451   4.908   1.886  10.117  0.7296  0.0300  0.9123
   54CHL1   C20 6452   4.917   1.727   9.154  0.0988  0.0814  0.3192
   54CHL1   H20 6453   5.006   1.792   9.143 -1.3378  2.1646  0.5385
   54CHL1   C21 6454   4.798   1.824   9.152  0.4342 -0.3338  0.5947
   54CHL1  H21A 6455   4.701   1.771   9.163  0.0575  0.5286  1.6046
   54CHL1  H21B 6456   4.794   1.875   9.053  0.6896  2.1889  1.7985
   54CHL1  H21C 6457   4.816   1.900   9.231  2.2046  0.6549 -0.6818
   54CHL1   C22 6458   4.908   1.632   9.029 -0.1033 -0.3068 -0.3438
   54CHL1  H22A 6459   4.991   1.558   9.024 -2.1527 -2.8268  0.6138
   54CHL1  H22B 6460   4.817   1.572   9.051  0.3155  0.4321  4.4662
   54CHL1   C23 6461   4.904   1.701   8.890 -0.2272  0.8181  0.1439
   54CHL1  H23A 6462   4.802   1.740   8.872 -0.8452 -0.2777  1.1527
   54CHL1  H23B 6463   4.980   1.779   8.868  2.8076 -1.6187  1.1514
   54CHL1   C24 6464   4.913   1.596   8.773  0.1555  0.5610 -0.0140
   54CHL1  H24A 6465   4.996   1.526   8.797  0.0644  0.7415  0.8400
   54CHL1  H24B 6466   4.824   1.532   8.781  0.5279  0.0398 -0.0077
   54CHL1   C25 6467   4.902   1.657   8.631  0.2868  0.3123  0.2498
   54CHL1   H25 6468   4.977   1.736   8.607  1.9362 -1.9279 -2.7051
   54CHL1   C26 6469   4.938   1.552   8.522  0.3736 -0.1252 -0.2059
   54CHL1  H26A 6470   4.886   1.457   8.549 -0.5730 -0.0563 -1.7103
   54CHL1  H26B 6471   4.916   1.594   8.422  1.4511 -0.1185 -0.4470
   54CHL1  H26C 6472   5.046   1.525   8.525  1.1013  2.4021 -1.4679
   54CHL1   C27 6473   4.757   1.713   8.597 -0.0352  0.3785 -0.1823
   54CHL1  H27A 6474   4.747   1.745   8.491 -3.7983  0.5167  0.0689
   54CHL1  H27B 6475   4.682   1.631   8.608  0.7484 -0.4369 -0.7627
   54CHL1  H27C 6476   4.721   1.794   8.664 -0.1538 -0.5062  0.8723
   55CHL1    C3 6477   4.109   0.343  10.120  0.3067  0.2478  0.1884
   55CHL1    H3 6478   4.017   0.346  10.057  0.3503  0.8918  0.1434
   55CHL1    O3 6479   4.081   0.382  10.252 -0.0444  1.0318  0.4188
   55CHL1   H3' 6480   4.041   0.303  10.291 -0.1564 -0.2232 -2.0171
   55CHL1    C4 6481   4.152   0.197  10.113  0.0958  0.2480 -0.0380
   55CHL1   H4A 6482   4.246   0.169  10.165  0.4620 -2.2692 -1.8618
   55CHL1   H4B 6483   4.072   0.139  10.162  0.7069 -0.8146 -0.2698
   55CHL1    C5 6484   4.159   0.160   9.961 -0.3962  0.1817 -0.1982
   55CHL1    C6 6485   4.082   0.060   9.915 -0.3950  0.1276 -0.0504
   55CHL1    H6 6486   4.011   0.020   9.988 -0.0391  1.2437  0.9396
   55CHL1    C7 6487   4.089   0.013   9.772  0.4298 -0.4175 -0.9978
   55CHL1   H7A 6488   4.100  -0.098   9.766  0.1835 -0.5580  0.6777
   55CHL1   H7B 6489   4.000   0.050   9.717  0.9078  1.5422 -0.5147
   55CHL1    C8 6490   4.209   0.074   9.687 -0.1159  0.7780  0.2481
   55CHL1    H8 6491   4.303   0.018   9.704  0.9079  2.6776  1.0050
   55CHL1   C14 6492   4.176   0.054   9.539  0.6207  0.0173 -0.2001
   55CHL1   H14 6493   4.082   0.111   9.526  0.9532  0.7610  0.5674
   55CHL1   C15 6494   4.147  -0.087   9.487  0.2058 -0.8936  0.7160
   55CHL1  H15A 6495   4.219  -0.167   9.513  0.2633 -0.9001  0.5366
   55CHL1  H15B 6496   4.046  -0.128   9.510  0.2823 -1.3323  0.2819
   55CHL1   C16 6497   4.148  -0.067   9.335 -0.6625 -0.1146  0.4007
   55CHL1  H16A 6498   4.212  -0.145   9.290  0.6689  0.9452  0.3821
   55CHL1  H16B 6499   4.047  -0.061   9.289 -0.2224 -0.8822 -0.6912
   55CHL1   C17 6500   4.209   0.074   9.313  0.2520  0.1814  0.5509
   55CHL1   H17 6501   4.114   0.132   9.312  0.3212  0.2891  0.0508
   55CHL1   C13 6502   4.276   0.117   9.446  0.3920  0.0211  0.0260
   55CHL1   C18 6503   4.408   0.034   9.458  0.2391 -1.0449  0.2615
   55CHL1  H18A 6504   4.486   0.075   9.391 -3.1139 -0.2020 -3.4863
   55CHL1  H18B 6505   4.452   0.032   9.560  0.6690 -1.6535  0.0638
   55CHL1  H18C 6506   4.393  -0.069   9.422 -2.0773 -0.4103 -0.7776
   55CHL1   C12 6507   4.290   0.267   9.472 -0.2213 -0.0398 -0.3309
   55CHL1  H12A 6508   4.364   0.319   9.407  0.1110 -0.2796 -0.1416
   55CHL1  H12B 6509   4.191   0.317   9.460  0.0443  1.1929  2.1058
   55CHL1   C11 6510   4.328   0.284   9.616  0.6837 -0.2679 -0.2113
   55CHL1  H11A 6511   4.425   0.231   9.628  0.7330  0.0731  1.0809
   55CHL1  H11B 6512   4.343   0.391   9.643  2.2676 -0.4725 -0.1424
   55CHL1    C9 6513   4.226   0.222   9.720 -0.6492 -0.3610  0.2971
   55CHL1    H9 6514   4.126   0.261   9.694 -1.5386 -2.6530  0.0207
   55CHL1   C10 6515   4.250   0.248   9.871 -0.2236 -0.4653 -0.2254
   55CHL1   C19 6516   4.399   0.211   9.901  0.7147 -0.2269 -0.6504
   55CHL1  H19A 6517   4.462   0.275   9.836 -2.4824  0.2299 -3.6457
   55CHL1  H19B 6518   4.419   0.231  10.008  0.6645 -3.0221 -0.0233
   55CHL1  H19C 6519   4.418   0.102   9.889  0.3634 -0.3861  0.1723
   55CHL1    C1 6520   4.222   0.392   9.904 -0.6809 -0.7174  0.5724
   55CHL1   H1A 6521   4.305   0.454   9.865 -0.8762 -0.6028  0.3317
   55CHL1   H1B 6522   4.134   0.427   9.846  0.8733  0.8206 -0.9715
   55CHL1    C2 6523   4.213   0.429  10.053  1.2019 -0.0969  0.1366
   55CHL1   H2A 6524   4.186   0.536  10.070 -1.3513 -0.5423 -0.8001
   55CHL1   H2B 6525   4.309   0.406  10.104  0.6904 -0.9101  0.7470
   55CHL1   C20 6526   4.275   0.120   9.173  0.2206 -0.1973 -0.5804
   55CHL1   H20 6527   4.317   0.221   9.190  1.0019 -0.4070 -1.2443
   55CHL1   C21 6528   4.154   0.122   9.084  0.0065  0.0063 -0.2550
   55CHL1  H21A 6529   4.175   0.173   8.987  0.3014  0.0098 -0.1896
   55CHL1  H21B 6530   4.068   0.181   9.122 -1.0276 -2.1225  0.8723
   55CHL1  H21C 6531   4.110   0.022   9.064 -0.3219 -0.3404  1.9915
   55CHL1   C22 6532   4.391   0.026   9.119 -0.5028  0.3209  0.6572
   55CHL1  H22A 6533   4.477   0.059   9.179 -0.6237 -1.2718  1.7589
   55CHL1  H22B 6534   4.360  -0.079   9.137  0.2010  0.1863  1.0885
   55CHL1   C23 6535   4.433   0.041   8.975  0.2960 -0.1242  0.5597
   55CHL1  H23A 6536   4.344   0.019   8.911  0.9142  1.4511 -0.9113
   55CHL1  H23B 6537   4.446   0.147   8.945 -0.2760 -0.4013 -0.7622
   55CHL1   C24 6538   4.559  -0.030   8.939  0.2700 -0.2209  0.0704
   55CHL1  H24A 6539   4.647   0.008   8.994 -0.8418  1.2281  0.9117
   55CHL1  H24B 6540   4.536  -0.133   8.973 -0.9756 -0.0401 -0.1601
   55CHL1   C25 6541   4.588  -0.021   8.785  0.3168 -0.0802  0.0658
   55CHL1   H25 6542   4.597   0.089   8.773  2.2817  0.0615  2.1623
   55CHL1   C26 6543   4.716  -0.094   8.737  0.2186  0.3253  0.0788
   55CHL1  H26A 6544   4.802  -0.034   8.775  0.5701  0.5364 -1.0290
   55CHL1  H26B 6545   4.720  -0.198   8.775  0.3502  0.3431  0.1131
   55CHL1  H26C 6546   4.715  -0.082   8.627  0.8767  2.4653  0.2563
   55CHL1   C27 6547   4.474  -0.074   8.692 -0.1366 -0.0075 -0.8480
   55CHL1  H27A 6548   4.401   0.009   8.685 -1.5754 -1.0249  1.1662
   55CHL1  H27B 6549   4.507  -0.118   8.595  0.9922 -0.7570 -0.1464
   55CHL1  H27C 6550   4.430  -0.161   8.746 -1.5127  1.6776  0.8911
   56CHL1    C3 6551   1.975   5.243  10.000  0.4279  0.3659 -0.5345
   56CHL1    H3 6552   1.987   5.135   9.980  0.3528  0.6191 -2.1075
   56CHL1    O3 6553   2.026   5.270  10.132  0.0301 -0.2690 -0.4394
   56CHL1   H3' 6554   1.970   5.334  10.175  0.7623  0.2292 -0.2132
   56CHL1    C4 6555   2.054   5.331   9.902 -0.4577 -0.3313 -0.8853
   56CHL1   H4A 6556   2.065   5.434   9.940  2.8537 -0.9563  0.1847
   56CHL1   H4B 6557   2.155   5.287   9.916  0.1944  1.6696  1.3786
   56CHL1    C5 6558   2.000   5.331   9.759 -0.6053  1.4693 -0.1326
   56CHL1    C6 6559   2.086   5.295   9.662  0.6208 -0.1150  0.5112
   56CHL1    H6 6560   2.191   5.280   9.692  1.1018  1.8017 -0.0317
   56CHL1    C7 6561   2.041   5.294   9.516 -0.0596  0.3439  0.2382
   56CHL1   H7A 6562   2.123   5.333   9.452  1.5335 -0.4025  1.7484
   56CHL1   H7B 6563   2.039   5.190   9.475  1.8479 -0.1707  1.3032
   56CHL1    C8 6564   1.898   5.359   9.493 -0.4847 -0.2317 -0.0466
   56CHL1    H8 6565   1.906   5.470   9.493 -2.1990 -0.0583 -1.1636
   56CHL1   C14 6566   1.844   5.316   9.361 -0.1512 -0.5714  0.1300
   56CHL1   H14 6567   1.826   5.207   9.359  0.1350 -0.6127 -0.1959
   56CHL1   C15 6568   1.926   5.323   9.232 -0.3935  0.2145  0.1069
   56CHL1  H15A 6569   1.987   5.416   9.232 -2.2265  1.5159  2.2843
   56CHL1  H15B 6570   1.992   5.235   9.218  1.7800  1.7397  0.3126
   56CHL1   C16 6571   1.825   5.339   9.115  0.7827  0.3841  0.2813
   56CHL1  H16A 6572   1.839   5.435   9.061 -2.5643  0.1763 -1.2803
   56CHL1  H16B 6573   1.832   5.255   9.043  0.5053  1.7534 -1.4042
   56CHL1   C17 6574   1.675   5.343   9.180 -0.3794  0.1966 -0.2513
   56CHL1   H17 6575   1.644   5.237   9.186  1.3834 -0.2650  2.2384
   56CHL1   C13 6576   1.705   5.386   9.326 -0.1486 -0.5009 -0.7166
   56CHL1   C18 6577   1.717   5.545   9.325  0.2770  0.2476 -0.1046
   56CHL1  H18A 6578   1.781   5.573   9.239 -0.9185 -1.2791 -1.5326
   56CHL1  H18B 6579   1.618   5.592   9.309  0.7857  1.4367  0.1001
   56CHL1  H18C 6580   1.765   5.578   9.420 -2.4879  0.1958  1.3966
   56CHL1   C12 6581   1.600   5.336   9.423 -1.0307  0.2070 -0.9000
   56CHL1  H12A 6582   1.503   5.389   9.423  1.0258  4.4866  0.3331
   56CHL1  H12B 6583   1.603   5.225   9.413  0.6926  0.0800  0.3648
   56CHL1   C11 6584   1.650   5.370   9.569 -0.0423 -0.1296  0.2068
   56CHL1  H11A 6585   1.641   5.481   9.567 -3.1595 -0.2769  1.3591
   56CHL1  H11B 6586   1.572   5.338   9.641  0.1071  0.7113  0.7443
   56CHL1    C9 6587   1.796   5.324   9.603 -0.1805  0.7774 -0.6329
   56CHL1    H9 6588   1.797   5.213   9.598  1.2970  0.7173  0.4121
   56CHL1   C10 6589   1.849   5.358   9.739 -0.7419  0.6432 -0.1783
   56CHL1   C19 6590   1.827   5.511   9.763 -0.5009  0.1798 -0.3522
   56CHL1  H19A 6591   1.726   5.551   9.785 -0.1398 -0.1161  2.0518
   56CHL1  H19B 6592   1.888   5.544   9.850  0.1467  1.1232 -1.1359
   56CHL1  H19C 6593   1.854   5.573   9.674 -0.6110  3.4042  1.6809
   56CHL1    C1 6594   1.777   5.275   9.848 -0.2034 -0.6938 -0.9186
   56CHL1   H1A 6595   1.670   5.299   9.860 -0.1596 -1.1838  0.6108
   56CHL1   H1B 6596   1.782   5.165   9.828 -1.4509 -0.8998 -0.1482
   56CHL1    C2 6597   1.830   5.290   9.999 -0.4845 -0.5897 -0.1165
   56CHL1   H2A 6598   1.761   5.232  10.064 -1.3514  1.2098  0.6186
   56CHL1   H2B 6599   1.824   5.398  10.021 -1.8843 -0.8133  0.7614
   56CHL1   C20 6600   1.566   5.416   9.092 -0.3268 -0.0675 -0.6283
   56CHL1   H20 6601   1.607   5.516   9.069 -0.4036  0.2642  0.6381
   56CHL1   C21 6602   1.430   5.444   9.164 -0.0910  0.3528  0.3855
   56CHL1  H21A 6603   1.393   5.353   9.216 -0.2698 -0.3390 -0.9046
   56CHL1  H21B 6604   1.356   5.473   9.086  1.7922 -0.0580 -1.6699
   56CHL1  H21C 6605   1.438   5.528   9.235  0.6409  0.9587 -0.3984
   56CHL1   C22 6606   1.535   5.340   8.967  0.4182  0.3864 -0.5816
   56CHL1  H22A 6607   1.616   5.268   8.943  0.0467 -0.7537  1.3782
   56CHL1  H22B 6608   1.443   5.277   8.969  0.6107 -0.1149 -3.5094
   56CHL1   C23 6609   1.520   5.421   8.839  0.1138  0.0328  0.4790
   56CHL1  H23A 6610   1.461   5.366   8.763  1.1312  0.7477 -0.8702
   56CHL1  H23B 6611   1.468   5.515   8.864  1.0879  0.8330 -0.4363
   56CHL1   C24 6612   1.646   5.454   8.761  0.1212  0.5367 -0.2322
   56CHL1  H24A 6613   1.712   5.512   8.829  0.1665 -1.1432  1.2306
   56CHL1  H24B 6614   1.704   5.361   8.740  2.9352  1.8214  1.2098
   56CHL1   C25 6615   1.631   5.543   8.633 -0.1491 -0.0279 -0.1594
   56CHL1   H25 6616   1.576   5.634   8.664 -1.3417 -0.3493 -1.2399
   56CHL1   C26 6617   1.766   5.586   8.574  0.5205  0.1899  0.1468
   56CHL1  H26A 6618   1.819   5.492   8.548  0.4345 -0.9265  3.4531
   56CHL1  H26B 6619   1.757   5.656   8.489  0.1173 -0.1446 -0.0894
   56CHL1  H26C 6620   1.827   5.625   8.659 -0.1341 -1.6353  1.5343
   56CHL1   C27 6621   1.546   5.479   8.528  0.4445 -0.1295 -0.0585
   56CHL1  H27A 6622   1.588   5.391   8.476  1.1368  0.5034 -0.5945
   56CHL1  H27B 6623   1.442   5.477   8.567 -0.9735  2.5129 -3.1417
   56CHL1  H27C 6624   1.541   5.552   8.443 -1.2693  1.4077  1.2646
   57CHL1    C3 6625   4.550   1.265  10.059  0.2840  0.2091  0.0451
   57CHL1    H3 6626   4.467   1.333  10.029  0.4270 -0.1626 -1.2962
   57CHL1    O3 6627   4.573   1.261  10.199 -0.3117  0.0214 -0.6046
   57CHL1   H3' 6628   4.625   1.186  10.229 -0.5478  0.7147  1.7303
   57CHL1    C4 6629   4.527   1.117  10.008 -0.2412  0.0727  0.1028
   57CHL1   H4A 6630   4.603   1.046  10.048  1.1021  1.4786  0.1538
   57CHL1   H4B 6631   4.425   1.093  10.046 -1.1898  0.1203 -2.2447
   57CHL1    C5 6632   4.522   1.114   9.856 -0.4324 -0.5492 -0.5625
   57CHL1    C6 6633   4.414   1.074   9.783 -0.1575 -0.0249 -0.1812
   57CHL1    H6 6634   4.336   1.031   9.849  0.0448  2.3203  1.7215
   57CHL1    C7 6635   4.433   1.061   9.639  0.1408  1.1226  0.2627
   57CHL1   H7A 6636   4.391   0.960   9.620  1.9739 -0.1306  2.2927
   57CHL1   H7B 6637   4.371   1.130   9.578  1.7987  1.3284 -1.2685
   57CHL1    C8 6638   4.579   1.074   9.581  0.1450 -0.4145 -0.3113
   57CHL1    H8 6639   4.640   0.986   9.610  1.3939  0.1412 -1.1390
   57CHL1   C14 6640   4.563   1.101   9.431  0.6935  0.7585  0.1648
   57CHL1   H14 6641   4.502   1.194   9.440  0.9615  1.0062 -0.5089
   57CHL1   C15 6642   4.481   1.001   9.341 -0.0276 -0.0150  0.1480
   57CHL1  H15A 6643   4.519   0.898   9.355  1.2760  0.5467  0.9031
   57CHL1  H15B 6644   4.371   0.999   9.360  0.0459 -2.7758  0.6419
   57CHL1   C16 6645   4.502   1.062   9.202  0.4180 -0.1974  0.0331
   57CHL1  H16A 6646   4.509   0.981   9.126 -0.0270 -1.4253  1.2717
   57CHL1  H16B 6647   4.420   1.133   9.179  0.7337 -0.1888 -1.1492
   57CHL1   C17 6648   4.636   1.156   9.215 -0.4257  0.3827  0.1322
   57CHL1   H17 6649   4.590   1.256   9.205 -3.0342 -0.9211 -2.2817
   57CHL1   C13 6650   4.690   1.131   9.360  0.5242  1.0408  0.5309
   57CHL1   C18 6651   4.786   1.006   9.359 -0.1548 -0.6179  0.0683
   57CHL1  H18A 6652   4.877   1.041   9.305  0.6016 -1.1503  0.9780
   57CHL1  H18B 6653   4.813   0.962   9.457 -1.4282 -0.5201  0.4803
   57CHL1  H18C 6654   4.737   0.925   9.300 -2.7088  1.0017 -0.1869
   57CHL1   C12 6655   4.756   1.253   9.421 -0.0771 -0.2013 -0.1662
   57CHL1  H12A 6656   4.860   1.276   9.388  1.0756 -1.2486  2.4786
   57CHL1  H12B 6657   4.690   1.342   9.418  0.1105 -0.0671 -0.3670
   57CHL1   C11 6658   4.786   1.216   9.570 -0.5616 -0.1239 -0.5652
   57CHL1  H11A 6659   4.845   1.122   9.578 -2.3343 -1.2827 -0.5305
   57CHL1  H11B 6660   4.838   1.301   9.620 -0.3880  0.2199 -1.3188
   57CHL1    C9 6661   4.652   1.194   9.643  0.0851 -0.4217  0.4499
   57CHL1    H9 6662   4.586   1.279   9.615 -0.2261 -0.9565 -0.5067
   57CHL1   C10 6663   4.660   1.176   9.794  0.0641 -0.1123 -0.8023
   57CHL1   C19 6664   4.782   1.090   9.834 -0.0834 -0.0929 -0.1952
   57CHL1  H19A 6665   4.880   1.131   9.801  1.4524 -2.0844  1.5108
   57CHL1  H19B 6666   4.805   1.064   9.940  0.7206 -1.5744 -0.6941
   57CHL1  H19C 6667   4.779   0.990   9.784 -2.9928  1.1949 -2.8907
   57CHL1    C1 6668   4.679   1.317   9.860 -0.0368 -0.1649 -0.0031
   57CHL1   H1A 6669   4.780   1.353   9.835 -0.2023  0.0680 -0.3408
   57CHL1   H1B 6670   4.608   1.392   9.818  0.0657  0.4633  0.9008
   57CHL1    C2 6671   4.675   1.330  10.009  0.2848 -0.0365  0.7879
   57CHL1   H2A 6672   4.668   1.439  10.032 -0.6653  0.5178 -1.7951
   57CHL1   H2B 6673   4.771   1.292  10.050 -0.8494 -4.9629 -0.5751
   57CHL1   C20 6674   4.731   1.138   9.090 -0.6843 -0.0735  0.2328
   57CHL1   H20 6675   4.772   1.035   9.094 -0.2351  0.0080 -1.4664
   57CHL1   C21 6676   4.842   1.243   9.100  0.2493  0.2003  0.3006
   57CHL1  H21A 6677   4.805   1.344   9.071 -0.8583 -0.1782  0.3553
   57CHL1  H21B 6678   4.923   1.221   9.027 -1.3814 -2.0279 -0.9466
   57CHL1  H21C 6679   4.879   1.253   9.205 -0.1815  0.3189  0.4428
   57CHL1   C22 6680   4.663   1.160   8.958 -0.6581  0.4161  0.4233
   57CHL1  H22A 6681   4.573   1.098   8.941 -0.3609 -0.5135  2.0525
   57CHL1  H22B 6682   4.637   1.266   8.936  3.8706  1.7204  0.2734
   57CHL1   C23 6683   4.747   1.129   8.831  0.1273  0.2773 -0.3644
   57CHL1  H23A 6684   4.838   1.193   8.830 -0.0625  0.6074  1.1202
   57CHL1  H23B 6685   4.767   1.020   8.824 -0.6011  0.0152  1.1734
   57CHL1   C24 6686   4.664   1.161   8.699 -1.3933 -0.1520  0.3437
   57CHL1  H24A 6687   4.560   1.124   8.707 -1.0189 -1.1146  0.8835
   57CHL1  H24B 6688   4.660   1.267   8.666  0.5267 -0.6373 -1.6546
   57CHL1   C25 6689   4.729   1.101   8.578  0.0316  0.3054 -0.0431
   57CHL1   H25 6690   4.755   0.996   8.604 -1.3228 -0.7985 -2.7872
   57CHL1   C26 6691   4.630   1.086   8.459 -0.1347  0.0300 -0.6382
   57CHL1  H26A 6692   4.677   1.032   8.373  0.9796 -0.7936  0.4467
   57CHL1  H26B 6693   4.543   1.030   8.500  0.5229  0.7497  1.9110
   57CHL1  H26C 6694   4.597   1.186   8.425 -0.4221 -0.3833 -1.6215
   57CHL1   C27 6695   4.864   1.167   8.527  0.1131 -0.5347 -0.2521
   57CHL1  H27A 6696   4.842   1.251   8.458 -0.7846 -1.1454 -0.7343
   57CHL1  H27B 6697   4.910   1.202   8.622  0.0431 -2.8289  0.6844
   57CHL1  H27C 6698   4.930   1.097   8.472 -0.5108 -1.5029  0.1971
   58CHL1    C3 6699   0.460   0.238  10.079  0.5437 -0.2595  1.0437
   58CHL1    H3 6700   0.564   0.255  10.043 -0.0846  0.5908 -0.4444
   58CHL1    O3 6701   0.451   0.227  10.220  0.2683 -0.2462  0.0672
   58CHL1   H3' 6702   0.470   0.316  10.248  0.5128 -1.2587  3.6219
   58CHL1    C4 6703   0.361   0.346  10.042  0.6898 -0.3183  0.1073
   58CHL1   H4A 6704   0.263   0.320  10.087  1.0487 -0.5411  0.7743
   58CHL1   H4B 6705   0.399   0.432  10.101 -1.3328 -0.3553  1.5444
   58CHL1    C5 6706   0.340   0.362   9.893 -0.4917  0.2774  0.3498
   58CHL1    C6 6707   0.374   0.481   9.836 -0.3657  0.4905 -0.0195
   58CHL1    H6 6708   0.417   0.569   9.885  0.5092  1.9726 -3.2003
   58CHL1    C7 6709   0.357   0.501   9.691  0.0042 -0.0344 -0.0821
   58CHL1   H7A 6710   0.308   0.599   9.673  1.5163  0.6291 -0.7982
   58CHL1   H7B 6711   0.460   0.507   9.651  0.0281  1.3022  0.1450
   58CHL1    C8 6712   0.285   0.386   9.614  0.7158 -0.0417 -0.5843
   58CHL1    H8 6713   0.177   0.399   9.636  0.8015 -0.2624 -0.0164
   58CHL1   C14 6714   0.306   0.396   9.462  0.6591  0.0102 -0.2002
   58CHL1   H14 6715   0.412   0.371   9.440  0.6060 -2.9808  2.1961
   58CHL1   C15 6716   0.283   0.537   9.402  0.6762  0.3523 -0.0294
   58CHL1  H15A 6717   0.187   0.577   9.441 -0.7622 -0.6789 -2.2766
   58CHL1  H15B 6718   0.370   0.602   9.427  2.1032 -1.5486  0.1721
   58CHL1   C16 6719   0.286   0.512   9.246  0.0010 -0.3085  0.1257
   58CHL1  H16A 6720   0.197   0.565   9.208  1.3721  0.6081 -2.0222
   58CHL1  H16B 6721   0.372   0.541   9.181  1.4461 -0.7737  1.7516
   58CHL1   C17 6722   0.260   0.356   9.234 -0.7160 -0.1737  0.4256
   58CHL1   H17 6723   0.351   0.295   9.217 -1.2600 -1.0624  0.6355
   58CHL1   C13 6724   0.227   0.299   9.377  0.3054 -0.7930  0.2092
   58CHL1   C18 6725   0.073   0.315   9.401  0.6853  0.1929  0.3657
   58CHL1  H18A 6726   0.051   0.268   9.500  0.9354  0.6712  0.6547
   58CHL1  H18B 6727   0.048   0.423   9.416 -0.1011  0.1289 -0.4126
   58CHL1  H18C 6728   0.009   0.265   9.325  0.7900  0.6385 -0.0234
   58CHL1   C12 6729   0.270   0.155   9.417 -0.2704  0.0275  0.3341
   58CHL1  H12A 6730   0.211   0.076   9.366  1.2576 -0.8075 -0.2067
   58CHL1  H12B 6731   0.376   0.135   9.389  0.1633  1.2393  1.0192
   58CHL1   C11 6732   0.273   0.132   9.571  0.1671 -0.3907  0.1205
   58CHL1  H11A 6733   0.168   0.113   9.603  0.1999  1.7414  1.7400
   58CHL1  H11B 6734   0.337   0.044   9.595  1.3834  0.7055  1.0131
   58CHL1    C9 6735   0.334   0.250   9.662 -0.6752 -0.1349  0.9260
   58CHL1    H9 6736   0.443   0.248   9.640 -0.7660 -0.0666  0.4621
   58CHL1   C10 6737   0.308   0.231   9.814 -0.4659  0.4644  0.8027
   58CHL1   C19 6738   0.162   0.185   9.837 -0.3580 -0.1457 -0.1007
   58CHL1  H19A 6739   0.170   0.074   9.845  1.7294  0.0332  1.1263
   58CHL1  H19B 6740   0.128   0.221   9.937  2.5214 -3.7365  2.4831
   58CHL1  H19C 6741   0.085   0.230   9.772 -2.0119  0.7500  2.3327
   58CHL1    C1 6742   0.415   0.116   9.861 -0.3434 -0.8653 -0.0166
   58CHL1   H1A 6743   0.383   0.015   9.828  1.6605 -1.4419 -0.3076
   58CHL1   H1B 6744   0.517   0.146   9.828 -0.6218 -0.2539 -0.3386
   58CHL1    C2 6745   0.424   0.107  10.013 -0.2492  0.4116  0.7027
   58CHL1   H2A 6746   0.513   0.045  10.040 -0.0334  0.6632  0.5798
   58CHL1   H2B 6747   0.333   0.057  10.051 -0.7292  0.6844 -0.0597
   58CHL1   C20 6748   0.160   0.316   9.114 -0.4363 -0.2656 -0.7923
   58CHL1   H20 6749   0.058   0.358   9.132  0.4053  2.5298 -1.9835
   58CHL1   C21 6750   0.138   0.156   9.104 -0.3741 -0.7859  0.1278
   58CHL1  H21A 6751   0.092   0.138   9.005 -1.1897  2.0780 -0.0987
   58CHL1  H21B 6752   0.077   0.128   9.193  0.5242 -1.1338  0.6505
   58CHL1  H21C 6753   0.240   0.110   9.108 -0.3859 -0.7639  1.0970
   58CHL1   C22 6754   0.202   0.380   8.981  0.0087  1.0350 -0.6840
   58CHL1  H22A 6755   0.242   0.484   8.980 -0.3603  1.1832 -0.1298
   58CHL1  H22B 6756   0.290   0.318   8.951  0.1185  1.6138 -1.6216
   58CHL1   C23 6757   0.102   0.379   8.867  0.1685 -0.5486  0.4597
   58CHL1  H23A 6758   0.158   0.411   8.776  0.9322  1.7870  1.6569
   58CHL1  H23B 6759   0.050   0.283   8.849 -1.4726  0.4920 -0.6558
   58CHL1   C24 6760  -0.013   0.477   8.910  0.5784  0.0217  0.2645
   58CHL1  H24A 6761  -0.069   0.420   8.987 -1.0548  1.5160  0.2386
   58CHL1  H24B 6762   0.034   0.567   8.953  1.6199  0.0350 -0.8568
   58CHL1   C25 6763  -0.120   0.514   8.807  0.1601  0.5889  0.0009
   58CHL1   H25 6764  -0.169   0.419   8.777  0.8190 -0.7414  2.7485
   58CHL1   C26 6765  -0.234   0.594   8.875 -1.0379 -0.1283 -0.1322
   58CHL1  H26A 6766  -0.264   0.561   8.977 -2.4488 -0.3300 -0.5932
   58CHL1  H26B 6767  -0.206   0.701   8.888  0.9203 -0.4499 -1.2863
   58CHL1  H26C 6768  -0.334   0.585   8.829 -0.1806  0.0449 -2.1362
   58CHL1   C27 6769  -0.052   0.589   8.690  0.0316 -0.3033  0.2813
   58CHL1  H27A 6770  -0.130   0.609   8.614 -0.5421 -2.8902  0.1022
   58CHL1  H27B 6771  -0.011   0.688   8.720  1.7943 -0.0686 -2.5615
   58CHL1  H27C 6772   0.030   0.534   8.639 -0.0530  0.8733 -1.1750
   59CHL1    C3 6773   0.285   5.596  10.216 -0.6806 -0.2308  0.1647
   59CHL1    H3 6774   0.194   5.649  10.252 -0.7156 -0.7036  0.7749
   59CHL1    O3 6775   0.376   5.565  10.321 -0.0682 -0.5328  0.2253
   59CHL1   H3' 6776   0.425   5.647  10.334 -2.3008  1.1947 -1.2995
   59CHL1    C4 6777   0.219   5.469  10.160  0.0882 -0.2442 -0.0019
   59CHL1   H4A 6778   0.302   5.397  10.142 -0.1720 -0.1944 -1.5844
   59CHL1   H4B 6779   0.156   5.421  10.238 -0.0437  0.6562  0.4569
   59CHL1    C5 6780   0.137   5.495  10.031 -0.1910 -0.1661  0.2474
   59CHL1    C6 6781   0.013   5.446  10.015  0.0035  0.4238 -0.3490
   59CHL1    H6 6782  -0.028   5.378  10.091 -0.0116  1.0447  0.2062
   59CHL1    C7 6783  -0.060   5.459   9.882  0.0379  0.3638  0.3820
   59CHL1   H7A 6784  -0.116   5.365   9.860  1.0333 -0.1040 -0.2024
   59CHL1   H7B 6785  -0.137   5.538   9.891 -1.5936 -1.0497 -0.5846
   59CHL1    C8 6786   0.025   5.503   9.764 -0.0280 -0.8825 -0.4456
   59CHL1    H8 6787   0.079   5.413   9.727  0.2561 -0.7467 -0.3665
   59CHL1   C14 6788  -0.069   5.547   9.649  0.6410 -0.5726  0.1492
   59CHL1   H14 6789  -0.130   5.627   9.696 -0.1361 -0.9215 -0.2495
   59CHL1   C15 6790  -0.173   5.442   9.599  0.4195 -0.6190 -1.0963
   59CHL1  H15A 6791  -0.124   5.343   9.592 -1.2948 -1.6602  0.7883
   59CHL1  H15B 6792  -0.247   5.440   9.682  1.3406 -2.6913 -0.2740
   59CHL1   C16 6793  -0.215   5.492   9.461  0.0089 -0.4282 -0.2488
   59CHL1  H16A 6794  -0.207   5.410   9.386 -1.9833  0.0364 -1.0492
   59CHL1  H16B 6795  -0.320   5.528   9.458  0.2421  0.3583  0.5295
   59CHL1   C17 6796  -0.120   5.613   9.432  0.5723  0.1271  0.7161
   59CHL1   H17 6797  -0.180   5.705   9.449 -3.1388 -1.6379 -1.3689
   59CHL1   C13 6798   0.002   5.601   9.525 -0.1392  0.2255  0.2240
   59CHL1   C18 6799   0.096   5.487   9.463  0.3474  0.3128  0.1734
   59CHL1  H18A 6800   0.174   5.441   9.528  1.1762 -1.4393 -1.9545
   59CHL1  H18B 6801   0.041   5.396   9.433  2.5218 -1.2151  0.5545
   59CHL1  H18C 6802   0.151   5.534   9.379 -2.5264  0.3317 -1.8313
   59CHL1   C12 6803   0.083   5.726   9.572 -0.3402  0.3559 -0.3898
   59CHL1  H12A 6804   0.133   5.765   9.481  0.3789 -1.7022 -0.9500
   59CHL1  H12B 6805   0.004   5.797   9.605 -0.1211  0.6851 -0.5672
   59CHL1   C11 6806   0.184   5.690   9.691  0.5731  0.4012 -0.1901
   59CHL1  H11A 6807   0.276   5.641   9.653  0.8174  1.2627 -0.7646
   59CHL1  H11B 6808   0.231   5.790   9.706 -0.7573  0.9914  0.1961
   59CHL1    C9 6809   0.116   5.622   9.811  0.1165 -0.2935  0.0480
   59CHL1    H9 6810   0.046   5.698   9.852  0.8672  1.1580 -1.2144
   59CHL1   C10 6811   0.212   5.586   9.922 -0.8466  0.5895 -0.6885
   59CHL1   C19 6812   0.329   5.513   9.860 -0.0057  0.7095  0.4677
   59CHL1  H19A 6813   0.404   5.582   9.815 -0.2465  0.8532  0.2856
   59CHL1  H19B 6814   0.389   5.455   9.934  0.4137  0.7444  0.1597
   59CHL1  H19C 6815   0.300   5.436   9.785 -0.2470 -0.5967  1.8570
   59CHL1    C1 6816   0.265   5.712   9.995  0.3007  0.4610  0.4106
   59CHL1   H1A 6817   0.312   5.779   9.920  1.4376  1.0094  1.5596
   59CHL1   H1B 6818   0.178   5.766  10.038  1.0683  1.9992  0.0897
   59CHL1    C2 6819   0.361   5.684  10.110  0.8353  0.5804  0.6428
   59CHL1   H2A 6820   0.385   5.781  10.159 -0.3876  0.3018  1.8293
   59CHL1   H2B 6821   0.459   5.639  10.081  0.1881  0.2905 -1.2194
   59CHL1   C20 6822  -0.104   5.628   9.286  0.0863 -0.1316  0.1173
   59CHL1   H20 6823  -0.077   5.528   9.247 -1.4955 -0.4092 -0.3522
   59CHL1   C21 6824   0.001   5.737   9.251  0.2563 -0.5525 -0.5512
   59CHL1  H21A 6825   0.099   5.690   9.277  0.8925  1.3737  0.7688
   59CHL1  H21B 6826  -0.018   5.828   9.312 -1.0264  0.5797 -2.5288
   59CHL1  H21C 6827   0.008   5.767   9.144  1.1782  0.6581 -0.1746
   59CHL1   C22 6828  -0.242   5.673   9.209  0.1849  0.2727  0.1048
   59CHL1  H22A 6829  -0.329   5.615   9.245 -0.6380  1.0571 -0.5891
   59CHL1  H22B 6830  -0.261   5.781   9.227 -0.1772  0.4614 -1.3148
   59CHL1   C23 6831  -0.235   5.640   9.062 -0.3445  0.0179  0.4638
   59CHL1  H23A 6832  -0.129   5.646   9.027 -0.9736 -0.6579 -1.7080
   59CHL1  H23B 6833  -0.263   5.533   9.052  1.2798 -0.8874  3.8813
   59CHL1   C24 6834  -0.321   5.729   8.973  0.4790 -0.4977  0.6269
   59CHL1  H24A 6835  -0.425   5.729   9.012 -0.1197  0.2464 -0.9128
   59CHL1  H24B 6836  -0.287   5.834   8.978 -0.9312 -0.0376  1.0759
   59CHL1   C25 6837  -0.336   5.676   8.827 -0.4819 -0.0547 -0.3656
   59CHL1   H25 6838  -0.382   5.575   8.826 -2.2685  0.7231 -1.4489
   59CHL1   C26 6839  -0.434   5.781   8.748 -0.3796 -0.2807 -0.8350
   59CHL1  H26A 6840  -0.532   5.774   8.799  0.2213  0.6156  0.4997
   59CHL1  H26B 6841  -0.384   5.880   8.756  0.2771 -0.6802  0.2948
   59CHL1  H26C 6842  -0.439   5.736   8.647  0.5082 -1.0278 -0.5611
   59CHL1   C27 6843  -0.203   5.661   8.754 -0.0479  0.3986  0.2465
   59CHL1  H27A 6844  -0.180   5.766   8.726 -1.6493  1.1124  1.4890
   59CHL1  H27B 6845  -0.120   5.615   8.812 -0.4813 -0.2167  0.3816
   59CHL1  H27C 6846  -0.208   5.601   8.661  2.2789  1.0236 -0.3535
   60CHL1    C3 6847   5.606   5.065  10.379  0.0286 -0.3001 -0.5600
   60CHL1    H3 6848   5.693   5.121  10.338 -1.1587  1.6382 -0.5485
   60CHL1    O3 6849   5.607   5.107  10.513  0.6542  0.5622 -0.0066
   60CHL1   H3' 6850   5.553   5.186  10.506 -1.0504 -0.6990 -3.9278
   60CHL1    C4 6851   5.473   5.123  10.310  0.1286  0.9834  0.6572
   60CHL1   H4A 6852   5.389   5.060  10.343 -0.0668  1.4738  1.1044
   60CHL1   H4B 6853   5.460   5.232  10.328  0.0547  1.1467 -0.3333
   60CHL1    C5 6854   5.485   5.102  10.160  0.1936 -0.3543  0.1137
   60CHL1    C6 6855   5.488   5.205  10.076  0.3881  0.0938  0.1657
   60CHL1    H6 6856   5.484   5.306  10.119  1.8682  0.9013 -1.4558
   60CHL1    C7 6857   5.493   5.196   9.926  0.5174  0.0569 -0.0700
   60CHL1   H7A 6858   5.413   5.257   9.879 -0.9934  1.0147  3.4132
   60CHL1   H7B 6859   5.586   5.246   9.892 -0.1579  2.5338  1.4155
   60CHL1    C8 6860   5.475   5.045   9.880  0.9522 -0.5928 -0.6187
   60CHL1    H8 6861   5.369   5.017   9.892  0.7461  0.0558 -0.8752
   60CHL1   C14 6862   5.521   5.044   9.739 -0.1058 -0.0086 -0.0439
   60CHL1   H14 6863   5.628   5.071   9.753 -0.8062  2.0412  1.8429
   60CHL1   C15 6864   5.468   5.144   9.630 -0.8606 -0.1645  0.2436
   60CHL1  H15A 6865   5.357   5.144   9.637 -0.9176 -0.3142 -0.5460
   60CHL1  H15B 6866   5.508   5.246   9.651 -0.4218 -0.7263  2.3651
   60CHL1   C16 6867   5.518   5.082   9.493  0.4550 -0.4924 -0.0010
   60CHL1  H16A 6868   5.431   5.073   9.424 -0.7018  0.7389  1.2479
   60CHL1  H16B 6869   5.599   5.142   9.445 -0.4080 -0.1649 -1.0937
   60CHL1   C17 6870   5.585   4.943   9.539  0.3643  0.0860  0.5312
   60CHL1   H17 6871   5.691   4.971   9.559  0.5931 -1.0395  1.0148
   60CHL1   C13 6872   5.522   4.902   9.669  0.4974 -0.4530 -0.5646
   60CHL1   C18 6873   5.378   4.853   9.650  0.7399  0.4144  0.1129
   60CHL1  H18A 6874   5.378   4.748   9.614 -1.1483  0.6368 -0.6424
   60CHL1  H18B 6875   5.321   4.859   9.745 -0.7816  1.5284 -0.8167
   60CHL1  H18C 6876   5.322   4.923   9.583 -1.1299 -0.0699  1.1073
   60CHL1   C12 6877   5.605   4.804   9.757  0.0790 -0.1168 -0.2582
   60CHL1  H12A 6878   5.596   4.699   9.722 -2.4687 -1.4345  3.7183
   60CHL1  H12B 6879   5.713   4.831   9.761  0.2028 -0.6098 -0.2037
   60CHL1   C11 6880   5.551   4.807   9.899 -0.1929 -0.0557 -0.2253
   60CHL1  H11A 6881   5.446   4.771   9.894 -0.4444  0.7105 -0.6654
   60CHL1  H11B 6882   5.619   4.741   9.956  1.6793  0.8240 -1.3381
   60CHL1    C9 6883   5.561   4.949   9.970  0.5149  0.3917  0.0528
   60CHL1    H9 6884   5.668   4.975   9.959  1.5243 -3.5335 -0.7092
   60CHL1   C10 6885   5.519   4.954  10.117 -0.3278 -0.9467 -0.2033
   60CHL1   C19 6886   5.388   4.868  10.128 -0.1975  0.4505 -0.6696
   60CHL1  H19A 6887   5.323   4.908  10.048  0.9736  0.0253 -1.8598
   60CHL1  H19B 6888   5.414   4.761  10.137 -2.5000 -0.0032  2.4787
   60CHL1  H19C 6889   5.334   4.893  10.222 -0.3776  2.1101 -1.1885
   60CHL1    C1 6890   5.634   4.900  10.206 -0.7540  0.3498  0.6897
   60CHL1   H1A 6891   5.645   4.793  10.181 -0.5571  0.0356  2.0415
   60CHL1   H1B 6892   5.723   4.962  10.181 -0.4997  0.0139  0.7581
   60CHL1    C2 6893   5.612   4.911  10.358 -0.1810  0.2713  0.3824
   60CHL1   H2A 6894   5.690   4.867  10.424 -1.0465 -0.7109  0.7624
   60CHL1   H2B 6895   5.510   4.876  10.385  0.2661  0.1639  2.0383
   60CHL1   C20 6896   5.583   4.839   9.424  0.1802 -0.1051  0.3804
   60CHL1   H20 6897   5.483   4.793   9.409  0.3310 -0.4586  0.4541
   60CHL1   C21 6898   5.676   4.721   9.453 -0.0545  0.1611 -0.1660
   60CHL1  H21A 6899   5.665   4.650   9.368  1.5922 -1.2490  0.7409
   60CHL1  H21B 6900   5.643   4.665   9.543  0.8785  0.9896  0.7070
   60CHL1  H21C 6901   5.782   4.748   9.468 -0.0681  0.2765 -0.2724
   60CHL1   C22 6902   5.618   4.903   9.289  0.4389 -0.7983  0.6371
   60CHL1  H22A 6903   5.673   4.999   9.295 -2.6764  1.0789  1.7473
   60CHL1  H22B 6904   5.687   4.840   9.229 -0.2723 -0.6305 -0.3811
   60CHL1   C23 6905   5.496   4.913   9.196  0.1547  0.4185 -0.6166
   60CHL1  H23A 6906   5.438   4.819   9.189 -0.6558  0.8414  0.1662
   60CHL1  H23B 6907   5.423   4.978   9.250 -1.5725 -1.5759 -0.4440
   60CHL1   C24 6908   5.519   4.971   9.058 -0.4847 -0.3747  1.0236
   60CHL1  H24A 6909   5.593   5.054   9.059 -0.5283 -0.2530 -1.3016
   60CHL1  H24B 6910   5.577   4.892   9.006 -0.8474  0.0510 -0.0498
   60CHL1   C25 6911   5.406   5.014   8.968 -0.4678 -0.1560 -0.3251
   60CHL1   H25 6912   5.450   5.052   8.873  2.2454  0.9805  1.2585
   60CHL1   C26 6913   5.299   4.910   8.942 -0.4122  0.6447 -0.6800
   60CHL1  H26A 6914   5.221   4.939   8.869 -0.2900  0.9233 -0.7024
   60CHL1  H26B 6915   5.353   4.827   8.893 -0.8248 -0.9675  1.4481
   60CHL1  H26C 6916   5.244   4.874   9.032  1.0183  1.1709  0.4414
   60CHL1   C27 6917   5.339   5.141   9.018 -0.4550 -1.1252  0.3100
   60CHL1  H27A 6918   5.359   5.153   9.126  0.9745 -0.0773 -0.0349
   60CHL1  H27B 6919   5.376   5.240   8.984  1.2061 -0.9587  2.4316
   60CHL1  H27C 6920   5.229   5.141   9.004 -0.6577 -1.6978  1.7163
   61CHL1    C3 6921   2.813   5.398  10.389  0.8916  0.4150  0.9783
   61CHL1    H3 6922   2.872   5.314  10.346 -0.4196  0.7416 -1.6538
   61CHL1    O3 6923   2.765   5.366  10.516 -0.0229  0.1207  0.4226
   61CHL1   H3' 6924   2.746   5.452  10.555 -0.5446  0.1239  0.1732
   61CHL1    C4 6925   2.898   5.526  10.406 -0.4646  0.4739  0.9596
   61CHL1   H4A 6926   2.831   5.599  10.457  0.7377  0.6444  2.3693
   61CHL1   H4B 6927   2.987   5.496  10.465 -0.7177 -0.0687  1.0780
   61CHL1    C5 6928   2.929   5.572  10.267  0.1871 -0.3127 -0.1961
   61CHL1    C6 6929   3.058   5.594  10.238  1.0646  0.7807  0.4809
   61CHL1    H6 6930   3.131   5.575  10.318  2.7715 -0.7881 -1.3406
   61CHL1    C7 6931   3.099   5.650  10.099 -0.1479  0.6348 -0.1893
   61CHL1   H7A 6932   3.175   5.729  10.116  1.7829 -1.4966  1.9066
   61CHL1   H7B 6933   3.153   5.572  10.043 -0.3572 -1.0387  1.7993
   61CHL1    C8 6934   2.984   5.713  10.018 -0.8035 -0.7708 -0.2726
   61CHL1    H8 6935   2.965   5.808  10.072 -0.3809 -1.4481  1.1221
   61CHL1   C14 6936   3.025   5.728   9.874  0.4317 -0.3074  0.4449
   61CHL1   H14 6937   3.040   5.624   9.836  0.5673 -0.6448  1.3953
   61CHL1   C15 6938   3.164   5.777   9.842 -0.0551 -0.0356  0.8396
   61CHL1  H15A 6939   3.198   5.861   9.906  0.3193  1.3330 -1.0749
   61CHL1  H15B 6940   3.236   5.693   9.853 -0.3123 -0.2989  0.5340
   61CHL1   C16 6941   3.161   5.821   9.694  0.6994 -0.3974 -0.1276
   61CHL1  H16A 6942   3.178   5.931   9.689 -0.0542 -0.3201 -1.2693
   61CHL1  H16B 6943   3.240   5.770   9.635  1.5622 -0.0090  0.6501
   61CHL1   C17 6944   3.009   5.797   9.649 -0.3257 -0.5723 -0.2038
   61CHL1   H17 6945   3.010   5.694   9.606 -0.0802  0.1884 -2.1238
   61CHL1   C13 6946   2.920   5.790   9.778  0.3931 -0.8491 -0.1690
   61CHL1   C18 6947   2.901   5.934   9.829 -0.2989  0.2325  0.0669
   61CHL1  H18A 6948   2.871   6.003   9.747 -0.0638  0.5303  0.2295
   61CHL1  H18B 6949   2.820   5.933   9.904 -1.3313 -3.0190 -0.9328
   61CHL1  H18C 6950   2.997   5.970   9.872  0.4349 -2.8341  1.2527
   61CHL1   C12 6951   2.795   5.703   9.780  0.0429  0.1938 -0.5606
   61CHL1  H12A 6952   2.717   5.753   9.718 -0.7605 -0.6571 -0.2618
   61CHL1  H12B 6953   2.815   5.603   9.737  0.2407 -0.7275  1.5633
   61CHL1   C11 6954   2.757   5.676   9.926  0.0604  0.0614  0.1594
   61CHL1  H11A 6955   2.695   5.760   9.964 -3.0207 -1.3995 -1.2746
   61CHL1  H11B 6956   2.679   5.597   9.923 -0.1889  0.3215 -0.8923
   61CHL1    C9 6957   2.864   5.632  10.024  0.1831 -0.0858 -0.2455
   61CHL1    H9 6958   2.899   5.535   9.981 -0.0342 -0.0334 -0.5457
   61CHL1   C10 6959   2.814   5.601  10.165 -0.0914  0.4285 -0.6851
   61CHL1   C19 6960   2.722   5.713  10.213 -0.2150  0.4323  0.3048
   61CHL1  H19A 6961   2.633   5.720  10.148  0.5706 -2.4002 -1.2506
   61CHL1  H19B 6962   2.686   5.692  10.316 -2.3449 -2.5285 -0.9346
   61CHL1  H19C 6963   2.773   5.812  10.205  0.9409 -0.2543 -1.6033
   61CHL1    C1 6964   2.719   5.475  10.162  0.4598  0.0198 -0.1225
   61CHL1   H1A 6965   2.618   5.504  10.126 -0.3235 -1.7106  0.5796
   61CHL1   H1B 6966   2.760   5.389  10.106  0.5038 -0.7449  1.0561
   61CHL1    C2 6967   2.686   5.422  10.299  0.3724 -0.4021 -0.2904
   61CHL1   H2A 6968   2.640   5.322  10.282  1.7902 -0.8700 -1.5627
   61CHL1   H2B 6969   2.623   5.495  10.354  1.6794  0.7123 -0.2008
   61CHL1   C20 6970   2.958   5.885   9.534 -0.1091 -0.1132  0.9076
   61CHL1   H20 6971   2.945   5.993   9.556  0.9424  0.2431 -0.0929
   61CHL1   C21 6972   2.830   5.831   9.483  0.1608 -0.7181  0.1613
   61CHL1  H21A 6973   2.834   5.721   9.475  3.6919 -0.8178  1.4641
   61CHL1  H21B 6974   2.806   5.881   9.386  1.4388 -0.3778 -0.0053
   61CHL1  H21C 6975   2.751   5.865   9.554  1.3139  0.4766  0.9393
   61CHL1   C22 6976   3.064   5.897   9.416 -0.2431  0.7137 -0.9167
   61CHL1  H22A 6977   3.021   5.956   9.332 -3.1546 -1.7517 -1.3302
   61CHL1  H22B 6978   3.149   5.936   9.476 -0.5326 -1.3547  0.9686
   61CHL1   C23 6979   3.113   5.761   9.359  0.2419  0.1958 -0.2046
   61CHL1  H23A 6980   3.158   5.709   9.446  1.2140  2.7048  0.8947
   61CHL1  H23B 6981   3.026   5.706   9.317 -0.3778  1.4574 -0.6521
   61CHL1   C24 6982   3.223   5.764   9.256  0.0002  0.1754  0.0633
   61CHL1  H24A 6983   3.232   5.657   9.226 -1.6589 -0.0254  0.2233
   61CHL1  H24B 6984   3.177   5.816   9.169  2.1078  1.9042 -0.1090
   61CHL1   C25 6985   3.357   5.835   9.294 -0.2646 -0.4486  0.9339
   61CHL1   H25 6986   3.340   5.918   9.365 -2.9367  0.3627 -0.5157
   61CHL1   C26 6987   3.462   5.741   9.360 -0.5433 -0.6143  0.0156
   61CHL1  H26A 6988   3.554   5.800   9.380 -0.3805 -1.4731  2.0055
   61CHL1  H26B 6989   3.415   5.708   9.455 -1.6752 -1.3328 -0.7574
   61CHL1  H26C 6990   3.487   5.664   9.284  0.1973  1.0567 -1.5135
   61CHL1   C27 6991   3.420   5.899   9.171  0.1147 -0.5685 -0.5005
   61CHL1  H27A 6992   3.383   6.003   9.153 -3.4809 -0.7689  3.8872
   61CHL1  H27B 6993   3.529   5.900   9.191 -0.3089  0.4436  2.1855
   61CHL1  H27C 6994   3.393   5.846   9.077 -0.9372  3.0742 -2.4706
   62CHL1    C3 6995   3.975   1.340   9.894 -0.3868  0.4225  0.6428
   62CHL1    H3 6996   4.061   1.397   9.852 -0.0852 -1.2234 -1.1284
   62CHL1    O3 6997   3.979   1.372  10.034  0.2230  0.1122 -0.4995
   62CHL1   H3' 6998   3.916   1.313  10.077  1.7039 -2.2261 -1.3406
   62CHL1    C4 6999   3.839   1.370   9.826 -0.2892 -0.3744 -0.0351
   62CHL1   H4A 7000   3.768   1.304   9.880  0.7226 -0.1568  1.6155
   62CHL1   H4B 7001   3.821   1.477   9.852  0.3232  0.2191 -1.8855
   62CHL1    C5 7002   3.857   1.356   9.673  0.2557 -0.1717  0.4614
   62CHL1    C6 7003   3.828   1.460   9.592 -0.3121  0.0535 -0.2671
   62CHL1    H6 7004   3.793   1.550   9.644  0.0725  0.4823 -0.7491
   62CHL1    C7 7005   3.852   1.462   9.445  0.5742 -0.7010 -0.1997
   62CHL1   H7A 7006   3.764   1.506   9.394  1.5096  2.9404  1.0110
   62CHL1   H7B 7007   3.941   1.526   9.427  0.0098  0.1598  0.0237
   62CHL1    C8 7008   3.873   1.320   9.390 -0.0222  0.7834 -0.4312
   62CHL1    H8 7009   3.776   1.267   9.396  0.4007  0.0907  0.6382
   62CHL1   C14 7010   3.915   1.321   9.246 -0.0939  0.1161  0.1669
   62CHL1   H14 7011   4.019   1.359   9.236  0.5885 -2.0636 -2.0451
   62CHL1   C15 7012   3.833   1.407   9.145  0.4097 -0.0526  0.3038
   62CHL1  H15A 7013   3.730   1.423   9.184  0.1165 -1.1685  0.0293
   62CHL1  H15B 7014   3.855   1.514   9.126 -2.9509  0.4435 -1.6403
   62CHL1   C16 7015   3.844   1.332   9.017 -0.3699  0.3019  0.2488
   62CHL1  H16A 7016   3.740   1.302   8.992 -0.3020  1.2060 -1.1717
   62CHL1  H16B 7017   3.868   1.398   8.931  1.5406 -1.6182 -0.7958
   62CHL1   C17 7018   3.948   1.214   9.039 -0.2040  0.1917 -0.1488
   62CHL1   H17 7019   4.048   1.264   9.038  0.2710 -0.6953  0.8974
   62CHL1   C13 7020   3.928   1.185   9.191  0.0902 -0.0908  0.1924
   62CHL1   C18 7021   3.797   1.111   9.196  0.1979  0.1608 -0.2029
   62CHL1  H18A 7022   3.718   1.172   9.149 -0.6641 -0.1137  0.8545
   62CHL1  H18B 7023   3.801   1.011   9.146  0.9226  1.8984 -3.9625
   62CHL1  H18C 7024   3.772   1.092   9.302  0.7612  0.1586 -0.0676
   62CHL1   C12 7025   4.041   1.113   9.267 -0.2356 -0.0256  0.4752
   62CHL1  H12A 7026   4.053   1.011   9.225  1.3409  0.7585 -1.1187
   62CHL1  H12B 7027   4.140   1.157   9.241  0.0218 -0.8605  0.0180
   62CHL1   C11 7028   4.016   1.098   9.420 -0.3222  0.4832  0.5005
   62CHL1  H11A 7029   3.929   1.031   9.430  0.7408 -0.7184  2.1746
   62CHL1  H11B 7030   4.105   1.051   9.468 -0.6382 -0.6481  0.0008
   62CHL1    C9 7031   3.975   1.236   9.480 -0.2505 -0.0535  0.3875
   62CHL1    H9 7032   4.072   1.291   9.487  0.0456 -0.4491 -0.5166
   62CHL1   C10 7033   3.924   1.225   9.629 -0.2543  0.4220 -0.3720
   62CHL1   C19 7034   3.819   1.113   9.646 -0.0992  0.0331 -0.6829
   62CHL1  H19A 7035   3.786   1.111   9.752 -1.7372  0.3097 -1.1621
   62CHL1  H19B 7036   3.725   1.129   9.588 -1.0334  0.3741  0.8807
   62CHL1  H19C 7037   3.846   1.010   9.613 -0.2581 -0.0984 -0.4073
   62CHL1    C1 7038   4.042   1.188   9.720 -0.4766 -0.1654 -0.7659
   62CHL1   H1A 7039   4.060   1.079   9.704 -0.8666 -0.5425  1.1012
   62CHL1   H1B 7040   4.131   1.243   9.685  0.4804 -0.9040  0.4329
   62CHL1    C2 7041   4.025   1.194   9.872  0.2087 -0.4378 -1.0463
   62CHL1   H2A 7042   4.126   1.170   9.913  0.0141 -1.8509 -1.3406
   62CHL1   H2B 7043   3.941   1.129   9.905 -2.2239  2.4894 -1.0567
   62CHL1   C20 7044   3.936   1.103   8.929 -0.3428 -0.6482 -0.1921
   62CHL1   H20 7045   3.837   1.057   8.947  1.0374 -3.4829  0.7319
   62CHL1   C21 7046   4.044   1.001   8.943 -0.8284 -0.4790  0.1467
   62CHL1  H21A 7047   4.011   0.951   9.037  0.1632 -1.3413  0.0689
   62CHL1  H21B 7048   4.144   1.048   8.950 -1.0769  0.3475 -1.4680
   62CHL1  H21C 7049   4.048   0.924   8.863  0.9716  1.9071 -2.2356
   62CHL1   C22 7050   3.933   1.153   8.783  0.3220 -0.1865 -0.1656
   62CHL1  H22A 7051   3.940   1.076   8.703  2.4528  1.2234 -1.4509
   62CHL1  H22B 7052   3.841   1.212   8.764 -0.1382 -1.0865 -0.8319
   62CHL1   C23 7053   4.048   1.240   8.741  0.5162 -0.2438  0.4753
   62CHL1  H23A 7054   4.075   1.315   8.818 -0.3132  1.7467 -1.0721
   62CHL1  H23B 7055   4.136   1.173   8.730  0.2700 -0.6330  0.8361
   62CHL1   C24 7056   4.023   1.315   8.610 -0.0840  0.3867 -0.3982
   62CHL1  H24A 7057   3.933   1.381   8.613 -0.3128  0.1047 -1.0283
   62CHL1  H24B 7058   4.116   1.373   8.594  1.6997 -1.3391  2.6668
   62CHL1   C25 7059   4.014   1.228   8.487  0.0896 -0.5927  0.2366
   62CHL1   H25 7060   3.940   1.147   8.504  0.2604 -1.4787 -2.7153
   62CHL1   C26 7061   3.949   1.309   8.372  0.8986  0.3938  0.0979
   62CHL1  H26A 7062   3.919   1.246   8.286 -1.1957  2.8198 -1.0859
   62CHL1  H26B 7063   3.869   1.383   8.397 -0.1236 -0.0648 -1.6630
   62CHL1  H26C 7064   4.030   1.375   8.336 -0.3271  1.1245 -1.4601
   62CHL1   C27 7065   4.156   1.180   8.443 -0.7397  0.1781 -0.0784
   62CHL1  H27A 7066   4.231   1.262   8.439  1.4572 -1.6082  1.6806
   62CHL1  H27B 7067   4.207   1.116   8.518 -0.3511 -1.4156 -1.6254
   62CHL1  H27C 7068   4.147   1.126   8.346 -3.2112 -0.8183  0.6105
   63CHL1    C3 7069   5.425   2.572  10.259  0.2465 -0.4058 -0.5947
   63CHL1    H3 7070   5.465   2.470  10.245  0.9745  0.1093 -2.6622
   63CHL1    O3 7071   5.429   2.590  10.396  0.6736  0.5007  0.8834
   63CHL1   H3' 7072   5.402   2.681  10.410 -0.6645  0.7411 -2.3734
   63CHL1    C4 7073   5.515   2.680  10.185  0.3104  0.4543 -0.1367
   63CHL1   H4A 7074   5.485   2.777  10.230 -1.0541 -0.1520  0.3307
   63CHL1   H4B 7075   5.617   2.662  10.225  1.2386  0.3427 -2.4396
   63CHL1    C5 7076   5.502   2.681  10.037  0.3167  0.7916  0.3274
   63CHL1    C6 7077   5.613   2.659   9.968  0.5837 -0.1264 -0.3822
   63CHL1    H6 7078   5.707   2.666  10.024  0.1502  0.2907  0.3013
   63CHL1    C7 7079   5.615   2.637   9.819 -0.4183 -0.3890  0.7434
   63CHL1   H7A 7080   5.699   2.687   9.766 -2.6191  1.9337 -0.8289
   63CHL1   H7B 7081   5.620   2.527   9.804  0.6645 -0.3263  0.5685
   63CHL1    C8 7082   5.486   2.690   9.755  0.0616  1.1613  0.7330
   63CHL1    H8 7083   5.486   2.801   9.763  0.0186  1.0754  2.2825
   63CHL1   C14 7084   5.472   2.643   9.607 -0.4123  0.0431  0.4770
   63CHL1   H14 7085   5.483   2.532   9.611  3.8730  0.1971 -1.3472
   63CHL1   C15 7086   5.596   2.673   9.517  0.3089 -0.1068 -0.2711
   63CHL1  H15A 7087   5.619   2.781   9.529  2.1281 -0.2983 -1.5436
   63CHL1  H15B 7088   5.675   2.604   9.555  0.1966  0.4752  1.0615
   63CHL1   C16 7089   5.533   2.639   9.382  0.5335  0.3318 -0.6129
   63CHL1  H16A 7090   5.546   2.736   9.328  0.0656 -0.1943 -1.7025
   63CHL1  H16B 7091   5.591   2.558   9.334  1.8199  2.5714 -3.1381
   63CHL1   C17 7092   5.381   2.615   9.396 -0.1411 -0.0749  0.5604
   63CHL1   H17 7093   5.369   2.505   9.407  3.2502 -0.7695 -1.3101
   63CHL1   C13 7094   5.346   2.677   9.536 -0.1922  0.3471 -0.5323
   63CHL1   C18 7095   5.324   2.834   9.528 -0.6709  0.3523  0.4741
   63CHL1  H18A 7096   5.338   2.885   9.626  0.1516 -1.8559  1.5855
   63CHL1  H18B 7097   5.396   2.878   9.456 -2.1661 -0.3602 -1.5651
   63CHL1  H18C 7098   5.224   2.855   9.484 -1.2365 -1.6761  0.6599
   63CHL1   C12 7099   5.231   2.606   9.610 -0.0669  0.5060 -0.5756
   63CHL1  H12A 7100   5.131   2.626   9.566  0.1114  1.7559 -0.4529
   63CHL1  H12B 7101   5.239   2.495   9.604  0.0300  0.5185 -0.6829
   63CHL1   C11 7102   5.229   2.647   9.758 -0.4683  0.1857  0.0895
   63CHL1  H11A 7103   5.195   2.753   9.752 -1.2293 -0.0904 -0.5970
   63CHL1  H11B 7104   5.154   2.590   9.816  0.7154 -1.4651  0.0647
   63CHL1    C9 7105   5.366   2.627   9.831 -0.6323  0.1727  0.2977
   63CHL1    H9 7106   5.373   2.517   9.822 -1.5187  0.0548  0.8971
   63CHL1   C10 7107   5.361   2.670   9.981 -0.7656  0.2095  0.1161
   63CHL1   C19 7108   5.293   2.811   9.983 -0.3056  1.0664 -0.4448
   63CHL1  H19A 7109   5.326   2.878   9.902 -1.1412  3.4271  1.0737
   63CHL1  H19B 7110   5.182   2.805   9.973 -0.1691  1.5883 -2.5918
   63CHL1  H19C 7111   5.303   2.862  10.082 -0.0658  1.1766 -0.5253
   63CHL1    C1 7112   5.276   2.567  10.054  0.7955  1.2133 -0.0860
   63CHL1   H1A 7113   5.168   2.572  10.026 -0.4658  2.3370  4.2067
   63CHL1   H1B 7114   5.320   2.467  10.038  0.7904  1.6543 -3.6468
   63CHL1    C2 7115   5.283   2.589  10.209  0.0137 -0.3140  0.1264
   63CHL1   H2A 7116   5.220   2.510  10.255 -2.3861  2.2597  1.6097
   63CHL1   H2B 7117   5.232   2.685  10.232 -1.4415 -0.5378 -1.8766
   63CHL1   C20 7118   5.296   2.667   9.281  0.7784 -0.1594  0.5229
   63CHL1   H20 7119   5.324   2.774   9.267  0.9038 -0.1052  1.1723
   63CHL1   C21 7120   5.147   2.638   9.301  0.5074  0.5057 -0.0905
   63CHL1  H21A 7121   5.096   2.701   9.379 -2.5580  1.6409 -2.7787
   63CHL1  H21B 7122   5.130   2.530   9.321  2.6319  0.0151 -0.6933
   63CHL1  H21C 7123   5.090   2.668   9.211  0.6612 -1.5056 -0.8965
   63CHL1   C22 7124   5.341   2.595   9.149  0.8698  0.0847  0.7693
   63CHL1  H22A 7125   5.452   2.594   9.153  1.0968  0.7053 -2.7219
   63CHL1  H22B 7126   5.299   2.492   9.152  0.0302  0.3441 -0.9714
   63CHL1   C23 7127   5.285   2.662   9.015 -0.1192  0.3460  0.4364
   63CHL1  H23A 7128   5.175   2.674   9.025 -0.6640 -1.7193 -2.1352
   63CHL1  H23B 7129   5.331   2.762   8.998  3.1968 -1.4077 -2.1765
   63CHL1   C24 7130   5.314   2.590   8.885 -0.8954 -0.3071  0.0201
   63CHL1  H24A 7131   5.422   2.583   8.860 -1.0540  0.7919 -1.0452
   63CHL1  H24B 7132   5.298   2.480   8.890  2.7684 -0.9010  1.5004
   63CHL1   C25 7133   5.230   2.638   8.762 -0.2593  0.9714  0.0512
   63CHL1   H25 7134   5.227   2.749   8.760  0.2453  0.9831 -0.8099
   63CHL1   C26 7135   5.287   2.586   8.628 -0.0696 -0.0437 -0.7294
   63CHL1  H26A 7136   5.214   2.594   8.545  0.0634 -0.4097 -0.8845
   63CHL1  H26B 7137   5.371   2.656   8.612 -1.2613  2.2288  2.0570
   63CHL1  H26C 7138   5.311   2.479   8.646 -1.3875 -0.1237  0.8078
   63CHL1   C27 7139   5.085   2.589   8.768  0.7270 -0.5916  0.2992
   63CHL1  H27A 7140   5.072   2.478   8.762  3.1320 -0.8689 -0.6447
   63CHL1  H27B 7141   5.029   2.630   8.855 -1.7279 -0.6131 -1.1716
   63CHL1  H27C 7142   5.027   2.629   8.682 -1.9977  1.8782  3.0425
   64CHL1    C3 7143   4.620   2.755   9.949  0.0560 -0.3913  0.6045
   64CHL1    H3 7144   4.526   2.813   9.951 -0.1298 -0.6540 -0.3954
   64CHL1    O3 7145   4.649   2.732  10.083  0.3040 -0.3689 -0.7225
   64CHL1   H3' 7146   4.581   2.674  10.118  0.9729  0.5063  2.2478
   64CHL1    C4 7147   4.588   2.631   9.863  0.8824  0.4849  0.0976
   64CHL1   H4A 7148   4.668   2.554   9.855  2.1152  1.8768 -1.4432
   64CHL1   H4B 7149   4.498   2.583   9.908  2.1524 -1.6881  0.4784
   64CHL1    C5 7150   4.569   2.665   9.719  0.8033  0.4258  0.2148
   64CHL1    C6 7151   4.461   2.617   9.652  0.0192  0.2749  0.4202
   64CHL1    H6 7152   4.388   2.562   9.712 -0.7901  1.6880  0.7955
   64CHL1    C7 7153   4.442   2.634   9.506  0.9572 -0.8494 -0.1815
   64CHL1   H7A 7154   4.390   2.542   9.474  0.1642 -1.0214  1.4757
   64CHL1   H7B 7155   4.375   2.720   9.483  0.6003 -0.9281  0.5349
   64CHL1    C8 7156   4.579   2.655   9.436  0.5430  0.2014  0.2864
   64CHL1    H8 7157   4.632   2.558   9.438 -2.5227 -1.5903  0.7300
   64CHL1   C14 7158   4.557   2.692   9.293  0.0645  0.0049 -0.2981
   64CHL1   H14 7159   4.507   2.792   9.285  0.4521  0.2247  0.0159
   64CHL1   C15 7160   4.466   2.597   9.214  0.0527 -0.1875 -0.3408
   64CHL1  H15A 7161   4.484   2.488   9.228  2.0774  0.0724 -0.6624
   64CHL1  H15B 7162   4.360   2.623   9.232  0.8072  1.3570  2.5982
   64CHL1   C16 7163   4.506   2.636   9.070  0.6922  0.5299  1.1895
   64CHL1  H16A 7164   4.543   2.546   9.017  0.6467  2.2179 -1.8757
   64CHL1  H16B 7165   4.425   2.686   9.013  2.6319  1.1262 -1.1663
   64CHL1   C17 7166   4.619   2.739   9.062  0.7090  0.0970 -0.6660
   64CHL1   H17 7167   4.580   2.842   9.061  2.8432  0.9574 -2.0232
   64CHL1   C13 7168   4.682   2.722   9.202 -0.4122  0.7610 -0.4363
   64CHL1   C18 7169   4.775   2.593   9.203  0.5107 -0.6943 -1.1130
   64CHL1  H18A 7170   4.870   2.618   9.151  1.1010  1.3044  0.7708
   64CHL1  H18B 7171   4.795   2.558   9.306  1.1962  1.9947 -0.2380
   64CHL1  H18C 7172   4.716   2.506   9.169  0.6638 -1.3807  0.3153
   64CHL1   C12 7173   4.753   2.847   9.266  0.6024 -0.2891 -0.0434
   64CHL1  H12A 7174   4.854   2.864   9.223  0.4342 -0.2476 -0.4241
   64CHL1  H12B 7175   4.690   2.936   9.247  0.6702  0.2024  1.8611
   64CHL1   C11 7176   4.773   2.826   9.417  0.6243  0.0991  0.5749
   64CHL1  H11A 7177   4.863   2.762   9.424  2.4328  2.3889 -0.2796
   64CHL1  H11B 7178   4.802   2.924   9.461  0.0803  0.1348  0.8654
   64CHL1    C9 7179   4.658   2.775   9.502  0.2279  0.6392  0.1514
   64CHL1    H9 7180   4.579   2.852   9.501 -1.5250 -1.0097 -2.3095
   64CHL1   C10 7181   4.692   2.741   9.648  0.7558  0.0612  0.3088
   64CHL1   C19 7182   4.825   2.656   9.654 -0.4304 -0.4423  0.2678
   64CHL1  H19A 7183   4.843   2.603   9.750  0.0030 -0.4302  0.1932
   64CHL1  H19B 7184   4.825   2.583   9.571  0.5145 -1.2374  0.9417
   64CHL1  H19C 7185   4.909   2.724   9.627 -1.2253  0.8254  0.8661
   64CHL1    C1 7186   4.711   2.871   9.738  0.4730  0.3402 -0.3405
   64CHL1   H1A 7187   4.799   2.928   9.702  0.3911  0.2359 -0.7092
   64CHL1   H1B 7188   4.621   2.935   9.727  0.0602 -0.5176 -2.2972
   64CHL1    C2 7189   4.730   2.844   9.890 -0.2870  0.1097 -0.2068
   64CHL1   H2A 7190   4.739   2.944   9.938  0.8343 -0.0729 -0.0012
   64CHL1   H2B 7191   4.821   2.783   9.908 -1.4855 -1.4153  0.9395
   64CHL1   C20 7192   4.717   2.721   8.943 -0.2105  0.1269 -0.2546
   64CHL1   H20 7193   4.777   2.628   8.953  1.6008  0.7068 -3.9124
   64CHL1   C21 7194   4.823   2.829   8.939  0.1982 -0.6449 -0.0828
   64CHL1  H21A 7195   4.904   2.809   9.013  0.8608  0.2161 -0.5570
   64CHL1  H21B 7196   4.791   2.932   8.965  2.6042  0.6859 -1.9425
   64CHL1  H21C 7197   4.866   2.835   8.837 -0.8838  1.8623 -0.4596
   64CHL1   C22 7198   4.648   2.727   8.805 -0.1529 -0.7940 -0.4000
   64CHL1  H22A 7199   4.540   2.700   8.807  0.1127 -1.9843  2.1989
   64CHL1  H22B 7200   4.653   2.834   8.775  0.7567 -0.5005  0.7275
   64CHL1   C23 7201   4.708   2.644   8.700  0.2930  0.0400  0.0043
   64CHL1  H23A 7202   4.815   2.670   8.684 -0.0414  0.4523 -1.8199
   64CHL1  H23B 7203   4.704   2.535   8.721 -0.6932  0.2827  1.1769
   64CHL1   C24 7204   4.641   2.659   8.566  0.4211  0.4963 -0.9566
   64CHL1  H24A 7205   4.530   2.665   8.575  0.5773  1.9751  0.7072
   64CHL1  H24B 7206   4.661   2.760   8.523  0.7834  0.0843 -1.7821
   64CHL1   C25 7207   4.697   2.567   8.448 -0.0927 -0.3687 -0.6767
   64CHL1   H25 7208   4.648   2.606   8.357 -1.6814  0.1802  0.3625
   64CHL1   C26 7209   4.852   2.589   8.439 -0.0786  0.2446 -0.2334
   64CHL1  H26A 7210   4.898   2.544   8.530  0.2515  2.4926  0.7730
   64CHL1  H26B 7211   4.893   2.541   8.347 -0.4297 -1.7424  0.6024
   64CHL1  H26C 7212   4.866   2.699   8.437 -2.7593  0.8471  3.6174
   64CHL1   C27 7213   4.657   2.428   8.473  0.1529 -0.0246 -0.4546
   64CHL1  H27A 7214   4.546   2.426   8.470  0.1433  0.9171 -1.6204
   64CHL1  H27B 7215   4.697   2.369   8.388 -1.5229 -0.9401 -0.6662
   64CHL1  H27C 7216   4.694   2.401   8.574 -1.6385 -0.3287  0.1742
   65CHL1    C3 7217   0.929   6.407  10.224  0.0716  0.7386 -0.4410
   65CHL1    H3 7218   0.823   6.417  10.194  0.3806 -1.7532 -2.7289
   65CHL1    O3 7219   0.944   6.392  10.360  0.0474  0.5352 -0.3794
   65CHL1   H3' 7220   1.037   6.375  10.379 -0.3194  0.2679  1.2708
   65CHL1    C4 7221   0.978   6.281  10.153 -0.0785  0.2896 -0.4640
   65CHL1   H4A 7222   1.080   6.249  10.182 -0.5201 -0.3214  0.4387
   65CHL1   H4B 7223   0.908   6.204  10.192  0.9388 -0.2838  0.2787
   65CHL1    C5 7224   0.962   6.292  10.005 -0.0585  0.7602 -0.0633
   65CHL1    C6 7225   0.878   6.211   9.942  0.4109  0.3021  0.7181
   65CHL1    H6 7226   0.840   6.124   9.999  0.6172 -0.7137 -0.6317
   65CHL1    C7 7227   0.837   6.228   9.800 -0.2958 -0.2460 -0.3719
   65CHL1   H7A 7228   0.840   6.134   9.740 -0.4319 -0.3109 -0.2760
   65CHL1   H7B 7229   0.735   6.271   9.800  0.0317  0.5717  0.4615
   65CHL1    C8 7230   0.928   6.328   9.726 -0.7781  0.6698  0.8919
   65CHL1    H8 7231   1.024   6.275   9.708 -1.3458 -0.0233 -0.2969
   65CHL1   C14 7232   0.866   6.361   9.592  0.0798 -0.8095 -0.3113
   65CHL1   H14 7233   0.785   6.435   9.607 -1.5575 -2.0413 -2.4496
   65CHL1   C15 7234   0.802   6.252   9.509  0.1088  0.1290  0.0127
   65CHL1  H15A 7235   0.874   6.168   9.498 -0.5317 -0.3984 -0.2319
   65CHL1  H15B 7236   0.712   6.207   9.557  0.2946  0.7273  0.9339
   65CHL1   C16 7237   0.780   6.316   9.369 -0.9391  0.3041  0.8948
   65CHL1  H16A 7238   0.822   6.248   9.292 -0.2708  2.4850 -0.7669
   65CHL1  H16B 7239   0.676   6.318   9.329 -0.4930  0.0332 -0.3329
   65CHL1   C17 7240   0.847   6.456   9.379 -0.4998  0.4868  0.1426
   65CHL1   H17 7241   0.781   6.542   9.403  1.7238  1.8811  1.5221
   65CHL1   C13 7242   0.947   6.444   9.498 -0.5171 -0.4278 -0.4386
   65CHL1   C18 7243   1.071   6.365   9.450  1.0223  0.0820  0.2434
   65CHL1  H18A 7244   1.043   6.266   9.409 -0.7012 -1.2293  4.0833
   65CHL1  H18B 7245   1.141   6.420   9.384 -0.4484  2.1773  0.3363
   65CHL1  H18C 7246   1.132   6.329   9.536 -0.7894 -0.0832  1.5167
   65CHL1   C12 7247   0.989   6.576   9.568  0.3108 -0.7206 -0.0248
   65CHL1  H12A 7248   1.069   6.628   9.510  1.1342 -1.4043  0.4681
   65CHL1  H12B 7249   0.901   6.643   9.567  0.3915 -0.4517 -3.6508
   65CHL1   C11 7250   1.041   6.550   9.716 -0.0132  0.1518 -0.7724
   65CHL1  H11A 7251   1.148   6.522   9.705  1.4096  3.1819  3.2266
   65CHL1  H11B 7252   1.033   6.645   9.772 -3.1529  0.2688 -1.2293
   65CHL1    C9 7253   0.964   6.455   9.804 -0.8579 -0.5137 -0.4753
   65CHL1    H9 7254   0.863   6.499   9.820  0.0144  1.3220  0.1688
   65CHL1   C10 7255   1.020   6.426   9.946  0.3099  1.1041  0.0778
   65CHL1   C19 7256   1.166   6.392   9.932  0.0143 -0.0586 -0.3251
   65CHL1  H19A 7257   1.210   6.376  10.033  0.5883 -2.3357 -0.8852
   65CHL1  H19B 7258   1.188   6.295   9.883  0.7081 -1.5682  2.7474
   65CHL1  H19C 7259   1.227   6.476   9.890  1.4787 -1.1154 -0.3808
   65CHL1    C1 7260   0.994   6.550  10.031  0.3721  0.0196  0.0881
   65CHL1   H1A 7261   1.050   6.638   9.993  0.0763 -0.5015 -1.6802
   65CHL1   H1B 7262   0.886   6.573  10.023 -0.2938 -3.1385 -2.2076
   65CHL1    C2 7263   1.014   6.525  10.180 -0.1499  0.4730 -0.4045
   65CHL1   H2A 7264   0.987   6.614  10.241  2.4977 -0.6764  2.7552
   65CHL1   H2B 7265   1.122   6.506  10.194 -0.9729 -2.9729  2.9073
   65CHL1   C20 7266   0.915   6.502   9.244  0.0044  0.3379 -0.1547
   65CHL1   H20 7267   0.989   6.422   9.221 -1.0507 -0.1887 -1.9472
   65CHL1   C21 7268   0.998   6.634   9.250  0.1827  0.6181 -0.2402
   65CHL1  H21A 7269   0.935   6.708   9.304  1.0968 -0.2071  2.0884
   65CHL1  H21B 7270   1.010   6.676   9.148  0.8658 -1.1531 -0.9278
   65CHL1  H21C 7271   1.096   6.627   9.301  0.2030  3.8608  0.3299
   65CHL1   C22 7272   0.822   6.517   9.130  0.2082  0.4207  0.5774
   65CHL1  H22A 7273   0.753   6.430   9.132  0.3361  0.3277  0.9948
   65CHL1  H22B 7274   0.771   6.614   9.148 -2.0723 -0.4720 -0.5854
   65CHL1   C23 7275   0.874   6.520   8.986 -0.3473 -0.0375 -0.5284
   65CHL1  H23A 7276   0.966   6.581   8.978  0.0748 -0.4492  0.9803
   65CHL1  H23B 7277   0.906   6.419   8.955 -0.9332 -0.0871 -0.9999
   65CHL1   C24 7278   0.759   6.561   8.893 -0.5774  0.0358  0.3170
   65CHL1  H24A 7279   0.685   6.480   8.912  0.4797 -0.9134  0.4744
   65CHL1  H24B 7280   0.733   6.662   8.931  3.4535  1.0436  0.8526
   65CHL1   C25 7281   0.790   6.588   8.743  0.7279  0.5695 -0.1301
   65CHL1   H25 7282   0.798   6.486   8.700 -2.0284  0.6080 -0.8966
   65CHL1   C26 7283   0.667   6.650   8.667  0.0085 -0.3250  0.4707
   65CHL1  H26A 7284   0.582   6.578   8.677  1.8875 -2.9489 -1.0225
   65CHL1  H26B 7285   0.631   6.748   8.704  0.5922  1.7674 -3.8642
   65CHL1  H26C 7286   0.680   6.658   8.557 -1.2733 -0.6378  0.2738
   65CHL1   C27 7287   0.931   6.655   8.711  0.3370  0.4287 -0.2569
   65CHL1  H27A 7288   0.945   6.724   8.797 -2.9780 -1.0515  1.6702
   65CHL1  H27B 7289   1.021   6.591   8.715 -0.5165 -0.9475 -1.6903
   65CHL1  H27C 7290   0.928   6.703   8.611  2.1088  0.4839 -0.3063
   66CHL1    C3 7291   5.736   2.981  10.316 -0.4742  0.8206  0.1870
   66CHL1    H3 7292   5.698   2.878  10.298 -0.0581  0.3732  1.6824
   66CHL1    O3 7293   5.758   3.001  10.455 -0.3589  0.0113 -0.0321
   66CHL1   H3' 7294   5.667   2.981  10.478 -0.8503  0.0991 -1.7808
   66CHL1    C4 7295   5.865   3.022  10.244  0.2502 -0.4558 -0.9870
   66CHL1   H4A 7296   5.887   3.127  10.270  0.8465 -0.8724  0.3099
   66CHL1   H4B 7297   5.953   2.965  10.281 -1.0002 -0.8832  1.6117
   66CHL1    C5 7298   5.848   3.023  10.091 -0.1750  0.7354 -0.2527
   66CHL1    C6 7299   5.937   2.957  10.012  0.6456  0.3023  0.2087
   66CHL1    H6 7300   6.017   2.905  10.067 -2.7582 -2.4089  3.1183
   66CHL1    C7 7301   5.924   2.943   9.862  0.3723 -0.1995 -0.6680
   66CHL1   H7A 7302   6.022   2.947   9.810  0.1259  0.7256 -1.0841
   66CHL1   H7B 7303   5.868   2.852   9.834 -1.6627  1.1072 -1.0620
   66CHL1    C8 7304   5.832   3.052   9.807 -0.3500 -0.3780 -0.7057
   66CHL1    H8 7305   5.891   3.146   9.817  0.4961 -1.0111  0.5689
   66CHL1   C14 7306   5.795   3.023   9.664  0.9326 -0.7850 -0.2821
   66CHL1   H14 7307   5.739   2.927   9.659  1.3680 -0.9744 -2.7481
   66CHL1   C15 7308   5.914   3.002   9.559  0.3562 -0.7235  0.1004
   66CHL1  H15A 7309   5.978   3.091   9.578 -1.7806  0.8187  0.4059
   66CHL1  H15B 7310   5.984   2.916   9.565  2.7022  0.8963 -1.7239
   66CHL1   C16 7311   5.850   3.005   9.419  0.5100 -0.9424  0.4325
   66CHL1  H16A 7312   5.900   3.083   9.359 -0.0042 -0.4517  0.6360
   66CHL1  H16B 7313   5.852   2.913   9.356  1.4216 -0.2496 -0.5761
   66CHL1   C17 7314   5.701   3.056   9.447 -0.0163  0.0703 -0.4760
   66CHL1   H17 7315   5.633   2.970   9.464 -2.3177  2.1734  1.7354
   66CHL1   C13 7316   5.701   3.118   9.588  0.4385 -0.2006  0.1370
   66CHL1   C18 7317   5.763   3.265   9.583 -0.2119  0.0170  0.1981
   66CHL1  H18A 7318   5.816   3.291   9.677 -1.1574  0.4696  0.6135
   66CHL1  H18B 7319   5.844   3.271   9.507  1.0854 -1.5893  1.3776
   66CHL1  H18C 7320   5.685   3.343   9.573  0.7376  1.2066  1.6910
   66CHL1   C12 7321   5.575   3.126   9.682  0.2038  0.0213  0.4941
   66CHL1  H12A 7322   5.496   3.194   9.645  0.9436 -0.1438 -1.5245
   66CHL1  H12B 7323   5.531   3.024   9.694 -0.2999  0.3723  1.6843
   66CHL1   C11 7324   5.608   3.169   9.825  0.0995 -0.3801 -0.2184
   66CHL1  H11A 7325   5.659   3.267   9.814 -2.1551  0.8507 -0.1696
   66CHL1  H11B 7326   5.518   3.186   9.887 -0.6927 -0.3676 -1.3395
   66CHL1    C9 7327   5.705   3.071   9.886 -0.1360  0.4109 -0.7574
   66CHL1    H9 7328   5.661   2.969   9.887 -1.7508  1.0652 -1.4147
   66CHL1   C10 7329   5.728   3.099  10.036  0.3162  0.6830  0.1729
   66CHL1   C19 7330   5.755   3.250  10.057 -0.1653 -0.7718  0.0686
   66CHL1  H19A 7331   5.659   3.304  10.070  0.7912  1.3346 -1.1073
   66CHL1  H19B 7332   5.806   3.268  10.154  0.3834 -0.9649 -0.1815
   66CHL1  H19C 7333   5.804   3.297   9.969 -0.2624 -2.8092 -1.1446
   66CHL1    C1 7334   5.599   3.058  10.117 -0.3903 -0.2529  0.1864
   66CHL1   H1A 7335   5.514   3.125  10.092 -0.8675  0.4484  3.2924
   66CHL1   H1B 7336   5.571   2.951  10.107  1.3004 -0.8791  1.6422
   66CHL1    C2 7337   5.627   3.070  10.267  0.0102  0.3353  0.4529
   66CHL1   H2A 7338   5.536   3.027  10.314  0.0712 -0.7921 -0.4104
   66CHL1   H2B 7339   5.637   3.175  10.304 -2.6498  0.3795  1.2459
   66CHL1   C20 7340   5.647   3.131   9.326  0.3333 -0.0269 -0.1460
   66CHL1   H20 7341   5.699   3.228   9.315  0.9352 -0.3266  0.0130
   66CHL1   C21 7342   5.500   3.163   9.361 -0.2217 -0.4871  0.2820
   66CHL1  H21A 7343   5.440   3.180   9.269  2.1776  1.1987 -1.1023
   66CHL1  H21B 7344   5.486   3.255   9.422  1.1250 -1.7396  2.6132
   66CHL1  H21C 7345   5.452   3.082   9.419 -1.6305  0.0966 -0.0194
   66CHL1   C22 7346   5.644   3.042   9.189 -0.1071  0.0060  0.6445
   66CHL1  H22A 7347   5.740   2.987   9.185 -0.0607  0.0476  1.1695
   66CHL1  H22B 7348   5.561   2.968   9.195 -1.8674  1.8676  0.4153
   66CHL1   C23 7349   5.625   3.135   9.065 -0.1157  0.6310  0.2258
   66CHL1  H23A 7350   5.526   3.186   9.071 -0.1319  0.8044 -1.1807
   66CHL1  H23B 7351   5.699   3.217   9.063 -1.8892  2.3190  0.4156
   66CHL1   C24 7352   5.632   3.063   8.935  0.0647  0.0618  0.1043
   66CHL1  H24A 7353   5.726   3.007   8.919 -1.3304 -2.5474  0.4608
   66CHL1  H24B 7354   5.555   2.985   8.956 -0.3269  0.5510  0.5262
   66CHL1   C25 7355   5.596   3.146   8.814  0.0031 -0.0690 -0.3628
   66CHL1   H25 7356   5.520   3.220   8.846  2.3612  1.7968  1.2223
   66CHL1   C26 7357   5.720   3.219   8.772  0.4134  0.0186  0.7790
   66CHL1  H26A 7358   5.780   3.266   8.853  3.2983 -2.0912  0.0173
   66CHL1  H26B 7359   5.790   3.150   8.720 -1.3290 -1.0525 -0.2371
   66CHL1  H26C 7360   5.700   3.300   8.698  1.9650 -0.7120 -0.5191
   66CHL1   C27 7361   5.533   3.064   8.703 -0.0300  0.3286 -0.4869
   66CHL1  H27A 7362   5.474   3.126   8.632  2.2854  1.3641 -1.6160
   66CHL1  H27B 7363   5.614   3.002   8.660  0.9034  1.9668 -1.1969
   66CHL1  H27C 7364   5.460   2.995   8.751 -1.3172  1.8969 -0.0943
   67CHL1    C3 7365   2.975   4.948  10.168 -0.0859  0.0166  0.0202
   67CHL1    H3 7366   3.082   4.963  10.144 -0.4616  1.5465 -0.7826
   67CHL1    O3 7367   2.951   4.914  10.302  0.4414  0.1966  0.3676
   67CHL1   H3' 7368   2.855   4.916  10.302  0.4391  0.2189 -0.1838
   67CHL1    C4 7369   2.904   5.086  10.140  0.6923  0.3606  0.1200
   67CHL1   H4A 7370   2.795   5.087  10.161  0.8962 -0.3839  1.2973
   67CHL1   H4B 7371   2.939   5.159  10.216 -0.5996  0.4539  0.6610
   67CHL1    C5 7372   2.934   5.130   9.998 -0.7215  0.4252 -0.2508
   67CHL1    C6 7373   2.988   5.248   9.974 -0.0440 -0.0302 -0.0514
   67CHL1    H6 7374   3.015   5.323  10.049 -0.1153  1.8161 -1.7943
   67CHL1    C7 7375   3.011   5.312   9.836 -0.3961  0.0873  0.2114
   67CHL1   H7A 7376   2.975   5.417   9.829 -0.7359 -0.0449 -0.0557
   67CHL1   H7B 7377   3.120   5.329   9.830 -0.5597  1.2822  0.3445
   67CHL1    C8 7378   2.952   5.233   9.727  0.3366 -0.2394 -0.1057
   67CHL1    H8 7379   2.845   5.260   9.726  0.1719 -0.6922  1.8639
   67CHL1   C14 7380   3.030   5.261   9.596  0.4195 -1.3481  0.6319
   67CHL1   H14 7381   3.134   5.224   9.613 -0.1934 -2.5960  1.7853
   67CHL1   C15 7382   3.030   5.415   9.562 -0.3808 -0.1068  0.6522
   67CHL1  H15A 7383   2.929   5.456   9.581 -0.1181  0.3824  1.0105
   67CHL1  H15B 7384   3.097   5.469   9.632 -1.3156  0.4913  1.0890
   67CHL1   C16 7385   3.066   5.417   9.407 -0.1364 -0.0430 -0.2699
   67CHL1  H16A 7386   3.000   5.487   9.352 -1.8983  0.2908  2.0840
   67CHL1  H16B 7387   3.173   5.446   9.403 -0.1328 -0.1950 -2.2111
   67CHL1   C17 7388   3.063   5.273   9.358 -0.3471  0.8006 -1.1177
   67CHL1   H17 7389   3.170   5.242   9.368 -0.6426  0.2528  0.6546
   67CHL1   C13 7390   2.984   5.190   9.466 -0.3696 -0.4556  0.6973
   67CHL1   C18 7391   2.833   5.216   9.427  0.1484 -0.4585 -0.1183
   67CHL1  H18A 7392   2.760   5.198   9.510  1.8634  1.1453  1.8429
   67CHL1  H18B 7393   2.804   5.318   9.393 -3.0193 -0.9799  0.6568
   67CHL1  H18C 7394   2.810   5.137   9.353 -0.0207 -1.5125  1.0221
   67CHL1   C12 7395   3.015   5.041   9.488  0.3163  0.5535  0.3495
   67CHL1  H12A 7396   2.973   4.973   9.411  0.8737  0.5728  0.0270
   67CHL1  H12B 7397   3.124   5.024   9.495  0.3999  1.0617  0.3720
   67CHL1   C11 7398   2.943   4.994   9.620 -0.3286  0.2180  0.0166
   67CHL1  H11A 7399   2.834   4.988   9.598 -0.1636  0.3746 -0.8698
   67CHL1  H11B 7400   2.972   4.888   9.637 -1.4716  0.0830  1.3113
   67CHL1    C9 7401   2.968   5.077   9.747 -0.8112 -0.0945  0.4426
   67CHL1    H9 7402   3.075   5.065   9.776 -1.6177 -0.6978  3.4433
   67CHL1   C10 7403   2.905   5.027   9.882 -0.2137 -1.1190  0.2869
   67CHL1   C19 7404   2.748   5.014   9.867  0.1648 -0.0933  0.7862
   67CHL1  H19A 7405   2.700   4.980   9.961  0.3231 -2.7041  0.0167
   67CHL1  H19B 7406   2.703   5.114   9.850  2.2385  0.4404 -2.6465
   67CHL1  H19C 7407   2.725   4.950   9.778  0.8591 -1.9706  1.8952
   67CHL1    C1 7408   2.951   4.886   9.921 -1.1029 -1.1900  0.7360
   67CHL1   H1A 7409   2.899   4.817   9.851  1.3149 -0.2951 -2.2068
   67CHL1   H1B 7410   3.059   4.878   9.896 -1.2209  0.0077 -0.2752
   67CHL1    C2 7411   2.923   4.843  10.067 -0.0504  0.3254 -0.2758
   67CHL1   H2A 7412   2.965   4.745  10.099 -4.2485 -0.5232  3.6320
   67CHL1   H2B 7413   2.814   4.823  10.074 -0.2202  0.7599 -1.3652
   67CHL1   C20 7414   3.029   5.252   9.213 -0.0454 -0.0684 -1.3630
   67CHL1   H20 7415   2.924   5.283   9.197 -0.3768 -0.1278  0.4505
   67CHL1   C21 7416   3.048   5.107   9.179 -0.2260 -0.2231 -0.1115
   67CHL1  H21A 7417   2.974   5.036   9.222  0.9141 -1.0074  0.6099
   67CHL1  H21B 7418   3.155   5.080   9.187  0.5035  2.3918 -0.2953
   67CHL1  H21C 7419   3.032   5.089   9.070  1.3893 -0.7346 -0.2852
   67CHL1   C22 7420   3.120   5.343   9.126 -0.7261  0.0650  0.6692
   67CHL1  H22A 7421   3.130   5.448   9.162  2.8286 -0.3542  1.2934
   67CHL1  H22B 7422   3.223   5.302   9.118 -0.7214  0.1420  0.3398
   67CHL1   C23 7423   3.069   5.348   8.983 -0.6407  0.0757  0.1336
   67CHL1  H23A 7424   3.106   5.255   8.937  1.4806  0.3315  1.2266
   67CHL1  H23B 7425   2.958   5.338   8.987 -0.9906  1.8408 -2.3525
   67CHL1   C24 7426   3.094   5.480   8.909 -0.1904 -0.3105 -0.2909
   67CHL1  H24A 7427   3.049   5.491   8.808 -4.4108 -1.3693  1.2715
   67CHL1  H24B 7428   3.043   5.558   8.969  1.3448 -0.0139  0.7045
   67CHL1   C25 7429   3.248   5.521   8.900  0.7176 -1.1046  0.2341
   67CHL1   H25 7430   3.292   5.514   9.001 -1.1471  0.0474  1.1817
   67CHL1   C26 7431   3.313   5.431   8.792 -0.5038  0.1798  0.3836
   67CHL1  H26A 7432   3.256   5.460   8.701 -1.0632  0.9792  0.9779
   67CHL1  H26B 7433   3.419   5.462   8.776 -0.8805  1.0650 -0.5619
   67CHL1  H26C 7434   3.292   5.323   8.801 -0.9972  0.2910  0.5764
   67CHL1   C27 7435   3.265   5.673   8.855  1.0542  0.2984 -0.2215
   67CHL1  H27A 7436   3.373   5.687   8.834  0.5872  2.3468 -1.6094
   67CHL1  H27B 7437   3.197   5.699   8.771 -1.9927 -1.0429  1.6510
   67CHL1  H27C 7438   3.235   5.741   8.938 -0.3524  1.3321 -1.5260
   68CHL1    C3 7439   1.265   4.539  10.174  0.2159 -0.7032  0.3505
   68CHL1    H3 7440   1.327   4.629  10.156 -0.4339 -0.0510  1.3090
   68CHL1    O3 7441   1.216   4.551  10.308 -0.2343  0.2469  0.2111
   68CHL1   H3' 7442   1.261   4.478  10.350  2.1919 -1.2002 -4.2434
   68CHL1    C4 7443   1.146   4.547  10.086 -0.3885 -0.2756 -0.4498
   68CHL1   H4A 7444   1.073   4.471  10.122 -1.6896  0.9599 -0.3863
   68CHL1   H4B 7445   1.105   4.647  10.111  0.6358 -0.4005  1.9795
   68CHL1    C5 7446   1.168   4.522   9.934  0.2204  1.2348  0.3514
   68CHL1    C6 7447   1.122   4.618   9.841  0.6056  1.0064  0.6336
   68CHL1    H6 7448   1.065   4.707   9.872 -0.0685  0.9338 -0.3503
   68CHL1    C7 7449   1.131   4.599   9.690 -0.1809  0.7840 -0.8114
   68CHL1   H7A 7450   1.036   4.632   9.643 -1.1827 -0.4004  0.3034
   68CHL1   H7B 7451   1.222   4.652   9.653  1.4710 -1.5142 -0.2233
   68CHL1    C8 7452   1.172   4.448   9.653  0.4930 -0.2484  0.1228
   68CHL1    H8 7453   1.082   4.383   9.653 -0.0746  0.5217  0.1294
   68CHL1   C14 7454   1.238   4.439   9.512 -0.0690 -0.9265  0.2923
   68CHL1   H14 7455   1.336   4.491   9.526 -1.5152  1.7260  1.2125
   68CHL1   C15 7456   1.172   4.521   9.396 -0.0225 -0.0668 -0.5215
   68CHL1  H15A 7457   1.065   4.491   9.401  0.5304 -2.0525  0.7974
   68CHL1  H15B 7458   1.180   4.631   9.411 -0.3789 -0.2847  1.5195
   68CHL1   C16 7459   1.241   4.461   9.274 -0.1914  0.8299  0.4316
   68CHL1  H16A 7460   1.169   4.417   9.202  0.5970 -2.2860  1.3903
   68CHL1  H16B 7461   1.308   4.535   9.226 -0.4610  1.1659  0.5696
   68CHL1   C17 7462   1.329   4.340   9.314  0.2456 -0.2085  0.4180
   68CHL1   H17 7463   1.430   4.384   9.329  0.6088 -1.3114  1.3361
   68CHL1   C13 7464   1.271   4.307   9.450 -0.0709  0.0612  0.4306
   68CHL1   C18 7465   1.141   4.217   9.437 -0.1013 -0.1871 -0.7578
   68CHL1  H18A 7466   1.105   4.192   9.539  0.4355 -1.8690 -0.9478
   68CHL1  H18B 7467   1.056   4.260   9.380 -1.0769 -2.0735 -0.7706
   68CHL1  H18C 7468   1.154   4.121   9.384  1.8606  0.1513 -1.0030
   68CHL1   C12 7469   1.367   4.241   9.552 -0.5170 -0.8196 -0.8084
   68CHL1  H12A 7470   1.385   4.134   9.525 -0.5342 -0.9954 -0.1345
   68CHL1  H12B 7471   1.466   4.292   9.557 -0.4395 -1.1092  1.7113
   68CHL1   C11 7472   1.312   4.244   9.695  0.4941 -0.1817  0.1253
   68CHL1  H11A 7473   1.226   4.175   9.700  1.6791 -1.8590 -1.0916
   68CHL1  H11B 7474   1.388   4.197   9.761  0.9387  1.8659  1.1568
   68CHL1    C9 7475   1.276   4.384   9.751  0.7639 -0.1694 -0.4145
   68CHL1    H9 7476   1.360   4.456   9.741  0.5538  0.8499  3.5412
   68CHL1   C10 7477   1.241   4.392   9.901 -0.4373  0.2730 -0.3462
   68CHL1   C19 7478   1.151   4.275   9.934  0.4492 -0.3763  0.5561
   68CHL1  H19A 7479   1.064   4.267   9.865  0.8978  0.4505 -0.1410
   68CHL1  H19B 7480   1.206   4.180   9.923  0.6343 -0.0171 -2.2873
   68CHL1  H19C 7481   1.104   4.286  10.034  0.5573  1.8840  0.4143
   68CHL1    C1 7482   1.369   4.385   9.994  0.0782 -0.3915  0.1670
   68CHL1   H1A 7483   1.418   4.286   9.981  0.1076 -0.3445 -0.0837
   68CHL1   H1B 7484   1.433   4.467   9.954  0.2359 -0.1539  0.9042
   68CHL1    C2 7485   1.344   4.409  10.143  0.0000  1.1309 -0.5665
   68CHL1   H2A 7486   1.437   4.411  10.202  0.1847  0.6823 -0.8341
   68CHL1   H2B 7487   1.276   4.327  10.174 -1.7447  1.6848 -2.6616
   68CHL1   C20 7488   1.364   4.234   9.210 -0.2964  1.1541 -0.4514
   68CHL1   H20 7489   1.282   4.160   9.221 -0.5801  1.3854 -1.0010
   68CHL1   C21 7490   1.500   4.169   9.246  0.0537 -0.4374 -0.4814
   68CHL1  H21A 7491   1.493   4.063   9.212 -0.5466 -1.1844  1.7915
   68CHL1  H21B 7492   1.510   4.175   9.356 -1.4031  0.5157 -0.3768
   68CHL1  H21C 7493   1.589   4.216   9.198 -0.5843  0.4959 -0.7754
   68CHL1   C22 7494   1.355   4.276   9.063 -0.3264 -0.0110  0.1681
   68CHL1  H22A 7495   1.249   4.306   9.047 -0.3466  1.3044  2.3752
   68CHL1  H22B 7496   1.422   4.363   9.048  0.4366 -0.3401  1.4705
   68CHL1   C23 7497   1.387   4.179   8.953  0.8559  0.9702 -0.2729
   68CHL1  H23A 7498   1.495   4.157   8.964  0.8853  0.4758 -1.4784
   68CHL1  H23B 7499   1.320   4.091   8.969  1.2875  0.6944  0.0362
   68CHL1   C24 7500   1.348   4.237   8.820 -0.5234 -0.0824  0.4561
   68CHL1  H24A 7501   1.241   4.262   8.831 -1.2764 -2.0962 -1.5298
   68CHL1  H24B 7502   1.422   4.319   8.808  0.1159 -0.3953  1.9533
   68CHL1   C25 7503   1.371   4.140   8.704 -0.3586 -0.2125  0.3958
   68CHL1   H25 7504   1.480   4.121   8.696 -0.4458 -0.3336 -0.6134
   68CHL1   C26 7505   1.303   4.005   8.710 -0.2872 -0.2785 -0.0764
   68CHL1  H26A 7506   1.198   4.007   8.747 -0.0173  1.5730  0.6998
   68CHL1  H26B 7507   1.291   3.968   8.606 -0.3622  2.0518 -0.9516
   68CHL1  H26C 7508   1.365   3.933   8.768 -1.5749 -0.9801  0.4960
   68CHL1   C27 7509   1.340   4.222   8.577 -0.4998 -0.7335 -0.2770
   68CHL1  H27A 7510   1.235   4.256   8.586 -0.0858  0.7199 -0.6293
   68CHL1  H27B 7511   1.406   4.312   8.568  1.1322 -1.4687  2.9826
   68CHL1  H27C 7512   1.359   4.164   8.484  1.2222 -1.7924  0.6777
   69CHL1    C3 7513   2.830   4.830   6.790  0.4043 -0.2171 -0.0988
   69CHL1    H3 7514   2.731   4.869   6.759  0.6154  0.9392  0.6131
   69CHL1    O3 7515   2.921   4.839   6.678  0.2799  0.3227  0.1145
   69CHL1   H3' 7516   2.924   4.753   6.635  2.3637 -0.8687  2.4070
   69CHL1    C4 7517   2.876   4.932   6.899  0.4897 -0.0569  0.4492
   69CHL1   H4A 7518   2.986   4.916   6.911  1.0672  2.9626  0.1675
   69CHL1   H4B 7519   2.860   5.030   6.850  1.9707 -0.6866 -1.4255
   69CHL1    C5 7520   2.813   4.914   7.031 -1.1239  0.5041 -0.4058
   69CHL1    C6 7521   2.754   5.017   7.095  0.2013  0.0167 -0.3784
   69CHL1    H6 7522   2.763   5.112   7.039  2.0826 -0.9290 -1.7821
   69CHL1    C7 7523   2.692   5.004   7.235 -0.6816 -0.7893 -0.2804
   69CHL1   H7A 7524   2.722   5.082   7.309 -1.7714 -0.2770 -0.3612
   69CHL1   H7B 7525   2.581   5.010   7.237 -0.8538 -0.5991  4.9032
   69CHL1    C8 7526   2.729   4.864   7.302 -0.1839  0.1829 -0.2001
   69CHL1    H8 7527   2.836   4.870   7.327 -0.0021 -0.4744 -0.7707
   69CHL1   C14 7528   2.650   4.839   7.426  0.4018  0.2115  0.0403
   69CHL1   H14 7529   2.544   4.835   7.392 -0.0822 -1.8420  1.6126
   69CHL1   C15 7530   2.619   4.942   7.542 -0.9327 -0.2233  0.5817
   69CHL1  H15A 7531   2.705   5.010   7.556 -1.5045  0.7124 -0.3427
   69CHL1  H15B 7532   2.544   5.015   7.506  1.1481  0.9590 -1.6565
   69CHL1   C16 7533   2.585   4.864   7.666  0.3719 -0.1261 -0.1297
   69CHL1  H16A 7534   2.666   4.894   7.736  0.6385  0.7156 -0.7838
   69CHL1  H16B 7535   2.488   4.899   7.707 -0.2417 -1.5212 -0.3322
   69CHL1   C17 7536   2.579   4.717   7.619  0.6107 -0.1416  0.1532
   69CHL1   H17 7537   2.481   4.703   7.569  0.6894 -1.7908  0.4057
   69CHL1   C13 7538   2.673   4.701   7.491 -0.8579  0.2093 -0.0058
   69CHL1   C18 7539   2.823   4.689   7.534 -0.0648  0.1497 -0.4730
   69CHL1  H18A 7540   2.892   4.721   7.452 -0.9293  0.5723 -1.0473
   69CHL1  H18B 7541   2.853   4.760   7.614  1.6828 -0.0600 -0.8999
   69CHL1  H18C 7542   2.857   4.589   7.567 -1.8645 -1.0894 -2.1590
   69CHL1   C12 7543   2.635   4.591   7.400 -0.3782  0.5125 -0.4592
   69CHL1  H12A 7544   2.666   4.495   7.445 -2.5025 -1.1770 -2.3181
   69CHL1  H12B 7545   2.525   4.589   7.387 -0.2661 -1.1635 -1.4593
   69CHL1   C11 7546   2.705   4.613   7.269 -1.2398  0.4864  0.4311
   69CHL1  H11A 7547   2.803   4.564   7.289 -0.7247  1.7446  1.0968
   69CHL1  H11B 7548   2.662   4.557   7.183 -2.0410  3.0753 -0.9736
   69CHL1    C9 7549   2.716   4.752   7.204  0.2219 -1.1205 -0.1000
   69CHL1    H9 7550   2.612   4.762   7.165  0.7831 -0.5783 -1.5308
   69CHL1   C10 7551   2.806   4.764   7.085 -0.1891 -0.4303 -0.3069
   69CHL1   C19 7552   2.949   4.725   7.126 -0.2951  0.4573  0.0158
   69CHL1  H19A 7553   2.973   4.739   7.234 -0.7068 -2.5361  0.5739
   69CHL1  H19B 7554   2.963   4.616   7.110 -0.8028  0.6052 -1.6168
   69CHL1  H19C 7555   3.032   4.777   7.075  0.5735 -2.2204 -1.5044
   69CHL1    C1 7556   2.759   4.664   6.976 -0.0221 -0.9280 -0.5094
   69CHL1   H1A 7557   2.768   4.558   7.009 -0.0498 -0.0721  2.5261
   69CHL1   H1B 7558   2.655   4.697   6.959 -0.1733 -0.8150  0.5843
   69CHL1    C2 7559   2.836   4.681   6.842 -0.2313 -0.4551  0.6856
   69CHL1   H2A 7560   2.792   4.602   6.778  1.4014 -1.7495  1.0910
   69CHL1   H2B 7561   2.943   4.655   6.860  0.1954  1.2040  0.7174
   69CHL1   C20 7562   2.577   4.611   7.729 -0.4521 -0.4814  0.6897
   69CHL1   H20 7563   2.605   4.514   7.685  1.4859 -0.2524  1.3467
   69CHL1   C21 7564   2.436   4.601   7.783  0.7616 -0.6069 -0.5292
   69CHL1  H21A 7565   2.429   4.527   7.865  0.1195  0.7580  0.6853
   69CHL1  H21B 7566   2.369   4.562   7.703 -0.6639 -0.6113  0.6254
   69CHL1  H21C 7567   2.398   4.690   7.838  1.1517 -0.5331 -0.3742
   69CHL1   C22 7568   2.686   4.635   7.830  0.8068  0.3018 -0.0219
   69CHL1  H22A 7569   2.784   4.667   7.788  1.3860  1.3122  1.9691
   69CHL1  H22B 7570   2.655   4.714   7.902  0.8835 -0.5529  0.9808
   69CHL1   C23 7571   2.704   4.503   7.907 -0.6458  0.0924 -0.1541
   69CHL1  H23A 7572   2.620   4.483   7.978 -0.6073 -0.3323 -0.2277
   69CHL1  H23B 7573   2.718   4.426   7.829  0.1984  0.9478 -0.8690
   69CHL1   C24 7574   2.829   4.515   7.993  0.4189 -0.2338  0.6182
   69CHL1  H24A 7575   2.924   4.529   7.937  0.0396 -0.7407 -0.1715
   69CHL1  H24B 7576   2.814   4.604   8.057 -0.5615  0.5581 -0.6838
   69CHL1   C25 7577   2.835   4.407   8.107 -0.5185 -0.2031  0.6599
   69CHL1   H25 7578   2.744   4.419   8.169  0.4553  1.1669  1.9132
   69CHL1   C26 7579   2.851   4.271   8.044 -0.4717 -0.4875 -0.9524
   69CHL1  H26A 7580   2.951   4.255   7.999 -0.2646 -0.9462 -0.3411
   69CHL1  H26B 7581   2.851   4.196   8.126  1.5493  0.1285 -0.3373
   69CHL1  H26C 7582   2.763   4.247   7.981 -1.7086 -0.8871  0.8445
   69CHL1   C27 7583   2.957   4.434   8.210  0.7636 -0.2172 -0.9446
   69CHL1  H27A 7584   2.955   4.539   8.245 -3.8943  0.2251 -1.9503
   69CHL1  H27B 7585   2.942   4.366   8.297  0.0187  1.1366  0.0039
   69CHL1  H27C 7586   3.048   4.403   8.153  1.1949  0.5879 -0.6954
   70CHL1    C3 7587   5.894   6.458   7.058  0.2631 -0.0130 -0.4377
   70CHL1    H3 7588   5.850   6.368   7.106 -1.5790  1.3250  0.5474
   70CHL1    O3 7589   5.871   6.466   6.916 -0.8095  0.1147  0.6067
   70CHL1   H3' 7590   5.909   6.547   6.881  0.0617 -0.7798 -0.6091
   70CHL1    C4 7591   5.818   6.586   7.111 -0.2935  0.4163  0.1654
   70CHL1   H4A 7592   5.840   6.673   7.045 -1.3527 -1.0461 -2.2141
   70CHL1   H4B 7593   5.713   6.565   7.082 -0.3508  1.1102 -0.1451
   70CHL1    C5 7594   5.842   6.607   7.258  0.3036 -0.7257 -0.2840
   70CHL1    C6 7595   5.742   6.604   7.339  0.4239 -0.1152  0.2155
   70CHL1    H6 7596   5.643   6.607   7.292  0.6535  1.8196 -0.2311
   70CHL1    C7 7597   5.753   6.616   7.490  0.1520 -0.7474  0.7295
   70CHL1   H7A 7598   5.696   6.702   7.530  1.5144  1.7436 -2.2333
   70CHL1   H7B 7599   5.711   6.523   7.535  0.7160 -0.8420  1.0780
   70CHL1    C8 7600   5.891   6.665   7.538  0.0299  0.3088  0.2104
   70CHL1    H8 7601   5.889   6.773   7.514 -0.1926  0.7929  2.2134
   70CHL1   C14 7602   5.903   6.662   7.688  0.2324  0.1706  0.1026
   70CHL1   H14 7603   5.911   6.556   7.719 -0.9245 -0.5127 -1.7537
   70CHL1   C15 7604   5.792   6.723   7.775  0.2305  0.6158  0.6955
   70CHL1  H15A 7605   5.769   6.826   7.739  2.1114  0.8516  0.0907
   70CHL1  H15B 7606   5.703   6.656   7.771  0.5376  0.2066  0.6545
   70CHL1   C16 7607   5.857   6.739   7.908 -0.0190 -0.0977  0.0443
   70CHL1  H16A 7608   5.848   6.843   7.944 -0.0478 -0.4547  1.1040
   70CHL1  H16B 7609   5.813   6.681   7.992  1.2979  0.5352  1.2180
   70CHL1   C17 7610   6.009   6.708   7.887 -0.0454  0.0202  0.3734
   70CHL1   H17 7611   6.017   6.598   7.904  0.3588 -0.5220 -2.7145
   70CHL1   C13 7612   6.032   6.723   7.735  0.2682  0.4637 -0.1881
   70CHL1   C18 7613   6.036   6.873   7.707 -0.5414  0.7765 -0.2188
   70CHL1  H18A 7614   6.044   6.900   7.600  2.0702 -0.0073 -0.2847
   70CHL1  H18B 7615   5.950   6.928   7.752 -0.1853  1.1002  0.0836
   70CHL1  H18C 7616   6.128   6.918   7.749 -1.1472  2.0607 -0.1988
   70CHL1   C12 7617   6.145   6.635   7.676  0.4922 -0.1638 -0.7514
   70CHL1  H12A 7618   6.247   6.665   7.710  0.3043  0.6931 -0.8992
   70CHL1  H12B 7619   6.133   6.532   7.713 -0.6892 -0.3275 -1.5545
   70CHL1   C11 7620   6.144   6.632   7.519 -0.3526  0.9002  0.2372
   70CHL1  H11A 7621   6.181   6.734   7.492 -0.8760  0.7353 -1.1687
   70CHL1  H11B 7622   6.219   6.560   7.481  1.0132  1.9406  0.8715
   70CHL1    C9 7623   6.007   6.593   7.464 -0.0478 -0.1400  0.4313
   70CHL1    H9 7624   5.988   6.488   7.495  0.2148 -0.2170  0.3313
   70CHL1   C10 7625   5.986   6.600   7.307 -0.3643 -0.0582 -0.0077
   70CHL1   C19 7626   6.060   6.730   7.254 -0.3691  0.1186  0.6575
   70CHL1  H19A 7627   6.012   6.820   7.299 -0.0667  0.2837  0.6553
   70CHL1  H19B 7628   6.166   6.729   7.288 -0.5947 -3.2737  1.6248
   70CHL1  H19C 7629   6.059   6.745   7.144 -1.0873 -1.5178  0.4263
   70CHL1    C1 7630   6.058   6.476   7.244  0.2508 -0.2009  0.1628
   70CHL1   H1A 7631   6.168   6.480   7.258  0.4538 -0.3666 -1.2186
   70CHL1   H1B 7632   6.020   6.385   7.295  0.7104 -0.8192 -0.5675
   70CHL1    C2 7633   6.039   6.458   7.093  0.6000  0.3113  0.1094
   70CHL1   H2A 7634   6.081   6.361   7.060 -1.6126 -0.5850 -0.2772
   70CHL1   H2B 7635   6.091   6.540   7.040  1.2169  0.8068  1.4233
   70CHL1   C20 7636   6.109   6.774   7.980  0.0060 -0.1646  0.3527
   70CHL1   H20 7637   6.100   6.883   7.965 -0.9619 -0.2675  0.1145
   70CHL1   C21 7638   6.259   6.734   7.955  0.2867  0.3981 -0.3942
   70CHL1  H21A 7639   6.328   6.777   8.031 -0.4399  2.7289 -0.9637
   70CHL1  H21B 7640   6.298   6.778   7.860  0.7538  1.4343  0.2575
   70CHL1  H21C 7641   6.274   6.625   7.965  0.8151  0.5181  0.1542
   70CHL1   C22 7642   6.073   6.751   8.130 -0.3481  0.6422 -0.6517
   70CHL1  H22A 7643   6.143   6.809   8.193 -0.4406 -1.5578  1.6158
   70CHL1  H22B 7644   5.972   6.796   8.144 -0.6440 -0.2897  0.3347
   70CHL1   C23 7645   6.073   6.604   8.174 -0.4989 -0.3399  0.7904
   70CHL1  H23A 7646   5.983   6.554   8.133 -0.5113 -0.3970  0.8875
   70CHL1  H23B 7647   6.165   6.556   8.134  0.6620  1.6886  0.8674
   70CHL1   C24 7648   6.061   6.577   8.320  0.1532  0.0196  0.2061
   70CHL1  H24A 7649   6.157   6.612   8.363 -0.5509  0.6135  1.3317
   70CHL1  H24B 7650   5.973   6.633   8.358 -0.8407 -1.2704 -0.1077
   70CHL1   C25 7651   6.051   6.437   8.364  0.4477 -0.1848  0.3460
   70CHL1   H25 7652   6.072   6.433   8.473 -0.5224 -0.5683  0.5263
   70CHL1   C26 7653   5.915   6.362   8.335 -0.3796 -0.3996 -0.8552
   70CHL1  H26A 7654   5.872   6.394   8.237 -1.8646  0.0695 -0.0880
   70CHL1  H26B 7655   5.932   6.252   8.330  1.0187 -0.3214  1.1299
   70CHL1  H26C 7656   5.841   6.382   8.415  0.2431 -0.1837 -0.3256
   70CHL1   C27 7657   6.169   6.349   8.312  1.2697  0.0044 -0.0996
   70CHL1  H27A 7658   6.160   6.245   8.351 -0.1598  0.6234  1.3717
   70CHL1  H27B 7659   6.161   6.338   8.202 -0.3165  1.5155 -0.1790
   70CHL1  H27C 7660   6.264   6.389   8.353  0.9731 -1.5854  2.3767
   71CHL1    C3 7661   1.183   2.960   6.804  0.2449  0.1326  0.3862
   71CHL1    H3 7662   1.090   2.902   6.821  0.1293 -0.5415 -2.1753
   71CHL1    O3 7663   1.198   2.977   6.663  0.6928 -0.7946  0.3656
   71CHL1   H3' 7664   1.206   2.888   6.626 -0.3356 -0.4390 -0.7854
   71CHL1    C4 7665   1.163   3.093   6.869 -0.4916 -0.0398 -0.4438
   71CHL1   H4A 7666   1.252   3.158   6.855 -0.0667 -0.7383 -1.0068
   71CHL1   H4B 7667   1.070   3.143   6.834 -0.9427 -0.3722  0.2423
   71CHL1    C5 7668   1.153   3.082   7.018  0.0637  1.0639 -0.6214
   71CHL1    C6 7669   1.044   3.131   7.088 -0.4359 -0.5475 -0.0971
   71CHL1    H6 7670   0.968   3.189   7.033  1.1420  0.4622 -1.3016
   71CHL1    C7 7671   1.015   3.115   7.234 -0.6745  0.1262 -0.5922
   71CHL1   H7A 7672   0.994   3.213   7.281  1.2996  0.3435 -0.0839
   71CHL1   H7B 7673   0.935   3.039   7.254  2.3549 -2.9935  0.6197
   71CHL1    C8 7674   1.137   3.060   7.311 -0.5699 -0.4228  0.1374
   71CHL1    H8 7675   1.203   3.149   7.327 -1.6048  0.1041  1.7877
   71CHL1   C14 7676   1.100   3.002   7.447 -0.3918 -0.0943  0.1839
   71CHL1   H14 7677   1.041   2.908   7.436 -0.6442 -0.1661  1.9091
   71CHL1   C15 7678   0.996   3.081   7.519 -0.0104 -0.6586  0.2113
   71CHL1  H15A 7679   1.026   3.188   7.519  2.0370 -1.1280  3.0110
   71CHL1  H15B 7680   0.890   3.058   7.494  0.8431 -1.0847 -3.8837
   71CHL1   C16 7681   1.019   3.035   7.664 -0.5953  0.0353 -0.3473
   71CHL1  H16A 7682   1.054   3.120   7.726  1.6677 -2.3157  1.8269
   71CHL1  H16B 7683   0.927   2.993   7.711 -0.7073 -0.3146 -0.8660
   71CHL1   C17 7684   1.137   2.926   7.667  0.8083 -0.2227 -0.3165
   71CHL1   H17 7685   1.098   2.823   7.650  0.4172  0.0377 -1.0277
   71CHL1   C13 7686   1.216   2.964   7.539 -0.2389  0.5415 -0.4349
   71CHL1   C18 7687   1.305   3.087   7.566 -0.1536  0.1318 -0.4545
   71CHL1  H18A 7688   1.383   3.059   7.641  0.1970  2.7800  0.2540
   71CHL1  H18B 7689   1.353   3.137   7.480  0.2982  0.2899 -0.1184
   71CHL1  H18C 7690   1.248   3.164   7.622 -0.8248 -0.4706 -0.2900
   71CHL1   C12 7691   1.293   2.847   7.468  0.6371  0.1173 -0.0081
   71CHL1  H12A 7692   1.384   2.819   7.526  0.9832  1.5406  0.1787
   71CHL1  H12B 7693   1.231   2.756   7.460  1.1748 -0.2581  0.0882
   71CHL1   C11 7694   1.332   2.891   7.321  0.0446 -1.0862  0.4975
   71CHL1  H11A 7695   1.415   2.964   7.335 -1.0329  0.8092 -2.2528
   71CHL1  H11B 7696   1.378   2.808   7.265  0.8679 -0.2431 -0.1074
   71CHL1    C9 7697   1.218   2.955   7.235 -0.3087 -0.6797 -0.2437
   71CHL1    H9 7698   1.157   2.863   7.235  0.8087 -1.4915  1.6689
   71CHL1   C10 7699   1.261   2.998   7.090  0.6418  0.0121  0.2260
   71CHL1   C19 7700   1.392   3.085   7.102  0.0574  0.4076 -0.2324
   71CHL1  H19A 7701   1.365   3.171   7.167 -0.9235 -0.2373  0.2303
   71CHL1  H19B 7702   1.481   3.043   7.154  0.7173  2.7260  0.6517
   71CHL1  H19C 7703   1.422   3.114   6.999 -0.5406  2.1502  0.0384
   71CHL1    C1 7704   1.277   2.862   7.008 -0.5455 -0.4539 -0.0886
   71CHL1   H1A 7705   1.361   2.810   7.057 -0.6506  1.4399  2.2676
   71CHL1   H1B 7706   1.187   2.799   7.021  0.7448 -2.7116 -1.4905
   71CHL1    C2 7707   1.300   2.883   6.857 -0.2348  0.1972 -0.5050
   71CHL1   H2A 7708   1.317   2.789   6.800  1.4899 -0.5379  1.1151
   71CHL1   H2B 7709   1.397   2.935   6.840  1.3759 -1.7109  2.1280
   71CHL1   C20 7710   1.205   2.927   7.803  0.1667  0.1059 -0.6009
   71CHL1   H20 7711   1.245   3.028   7.826  2.0557 -0.8945  0.8243
   71CHL1   C21 7712   1.328   2.844   7.806 -0.1501 -0.1545 -0.6384
   71CHL1  H21A 7713   1.317   2.736   7.783  3.9961 -1.1119  1.0948
   71CHL1  H21B 7714   1.368   2.842   7.909  0.8741  2.9725 -0.8667
   71CHL1  H21C 7715   1.416   2.881   7.749  2.2955 -1.1067  2.3093
   71CHL1   C22 7716   1.110   2.901   7.922 -0.1367 -0.3326 -0.7709
   71CHL1  H22A 7717   1.171   2.948   8.002  0.7582 -0.3705 -1.4249
   71CHL1  H22B 7718   1.011   2.950   7.906 -1.4039 -2.1344  0.9961
   71CHL1   C23 7719   1.072   2.759   7.959 -0.3364  0.2517 -0.6996
   71CHL1  H23A 7720   1.027   2.708   7.870  2.1766 -0.4842 -1.6486
   71CHL1  H23B 7721   1.162   2.703   7.993  0.6402  1.2441 -1.5524
   71CHL1   C24 7722   0.964   2.767   8.066 -0.1014 -0.4794 -0.5586
   71CHL1  H24A 7723   1.010   2.824   8.149  0.5668 -0.0637 -1.2016
   71CHL1  H24B 7724   0.872   2.824   8.042 -1.5456 -1.3267  2.4454
   71CHL1   C25 7725   0.917   2.640   8.140  0.3823  0.2518  0.5088
   71CHL1   H25 7726   0.867   2.573   8.066 -2.5092  0.7774  1.8246
   71CHL1   C26 7727   1.031   2.555   8.193 -0.3998  0.7955  0.0303
   71CHL1  H26A 7728   1.098   2.526   8.109 -1.4868 -0.7539 -0.3269
   71CHL1  H26B 7729   1.087   2.617   8.267 -0.0989  0.3759  0.1546
   71CHL1  H26C 7730   1.004   2.465   8.252 -1.1882  1.5002  0.7763
   71CHL1   C27 7731   0.827   2.675   8.262  0.0734  0.6129 -0.5790
   71CHL1  H27A 7732   0.884   2.745   8.325  1.0268 -0.8743  0.2712
   71CHL1  H27B 7733   0.722   2.708   8.245 -0.6968 -0.8620  0.9476
   71CHL1  H27C 7734   0.805   2.582   8.320  0.2156  1.0564  0.1992
   72CHL1    C3 7735   5.625   0.230   7.065 -0.6297  0.8247  0.2123
   72CHL1    H3 7736   5.523   0.274   7.072 -0.4505  1.2842 -0.0286
   72CHL1    O3 7737   5.638   0.170   6.935 -0.2888 -0.3104  0.0143
   72CHL1   H3' 7738   5.545   0.166   6.913 -0.7706  1.5102  1.5215
   72CHL1    C4 7739   5.720   0.350   7.083 -0.1953  0.7584 -0.7101
   72CHL1   H4A 7740   5.829   0.330   7.080 -0.2808 -0.6061  2.1003
   72CHL1   H4B 7741   5.698   0.424   7.002  0.9020  0.4930 -1.2654
   72CHL1    C5 7742   5.697   0.406   7.219 -0.3015  0.7385 -0.8210
   72CHL1    C6 7743   5.667   0.529   7.242 -0.4305 -0.3181 -0.0952
   72CHL1    H6 7744   5.655   0.594   7.154 -2.5712  0.7642  0.8964
   72CHL1    C7 7745   5.667   0.604   7.377 -0.5919 -0.1857  0.0083
   72CHL1   H7A 7746   5.728   0.697   7.370  1.3609 -1.3792  0.3534
   72CHL1   H7B 7747   5.564   0.632   7.407 -0.9365  0.9384 -2.0331
   72CHL1    C8 7748   5.724   0.506   7.487  0.1699 -0.4442  0.3809
   72CHL1    H8 7749   5.834   0.518   7.483  0.2901 -1.2307  0.9343
   72CHL1   C14 7750   5.677   0.547   7.626  0.1508  0.0644 -0.8805
   72CHL1   H14 7751   5.568   0.524   7.637  0.6849 -2.0038  0.6562
   72CHL1   C15 7752   5.690   0.692   7.669  0.1875  0.6631  1.0499
   72CHL1  H15A 7753   5.780   0.744   7.628  0.7953  0.2606  1.8384
   72CHL1  H15B 7754   5.597   0.751   7.652 -0.1399  0.0224  0.5951
   72CHL1   C16 7755   5.707   0.695   7.821 -0.3631 -0.1576 -0.4353
   72CHL1  H16A 7756   5.812   0.722   7.844  0.0113 -1.3995 -0.6436
   72CHL1  H16B 7757   5.645   0.775   7.868  1.6702 -0.0827  2.3541
   72CHL1   C17 7758   5.687   0.543   7.863  0.2809 -0.4552  0.8090
   72CHL1   H17 7759   5.577   0.536   7.869  0.3794 -3.2767  0.4326
   72CHL1   C13 7760   5.736   0.464   7.742  0.1051  0.0900 -0.1816
   72CHL1   C18 7761   5.892   0.455   7.735 -0.2435 -0.5151 -0.6412
   72CHL1  H18A 7762   5.934   0.396   7.819 -1.9074  0.7189  1.1417
   72CHL1  H18B 7763   5.921   0.397   7.645  0.7286 -1.1587  0.0722
   72CHL1  H18C 7764   5.931   0.560   7.735  0.7920 -0.8896 -0.7009
   72CHL1   C12 7765   5.683   0.323   7.729  0.1520  0.4712  0.1002
   72CHL1  H12A 7766   5.733   0.261   7.807  1.3890  1.8743  0.4678
   72CHL1  H12B 7767   5.573   0.324   7.741  0.0831  0.9297 -0.5390
   72CHL1   C11 7768   5.716   0.262   7.590  0.5315 -0.0407  0.1999
   72CHL1  H11A 7769   5.821   0.226   7.590  1.0519  1.4277 -0.1375
   72CHL1  H11B 7770   5.645   0.176   7.591 -0.3059  0.6388  0.9418
   72CHL1    C9 7771   5.681   0.363   7.474  0.1524  0.4998 -0.2557
   72CHL1    H9 7772   5.571   0.371   7.484 -0.0719 -2.6060  0.8592
   72CHL1   C10 7773   5.714   0.309   7.336 -0.3635  0.6004  0.1073
   72CHL1   C19 7774   5.868   0.273   7.340 -0.4391  0.4277  0.1082
   72CHL1  H19A 7775   5.895   0.230   7.242 -2.0706 -2.1944  0.7127
   72CHL1  H19B 7776   5.934   0.358   7.368  0.5826 -0.3037 -0.0352
   72CHL1  H19C 7777   5.883   0.184   7.404 -1.1187 -0.2429 -0.6460
   72CHL1    C1 7778   5.639   0.169   7.315  0.0224 -0.1508 -0.0719
   72CHL1   H1A 7779   5.686   0.085   7.371  3.0617  2.0950  0.9931
   72CHL1   H1B 7780   5.536   0.188   7.352  0.8601  1.7291  1.4611
   72CHL1    C2 7781   5.644   0.119   7.166 -0.5336 -0.0528 -0.2367
   72CHL1   H2A 7782   5.575   0.033   7.160  0.9639 -1.2997 -0.1472
   72CHL1   H2B 7783   5.739   0.068   7.140 -0.1764 -0.2698  1.3904
   72CHL1   C20 7784   5.737   0.511   8.013 -0.5383  0.0626  0.3118
   72CHL1   H20 7785   5.847   0.497   8.012 -0.5575 -0.8256 -3.1331
   72CHL1   C21 7786   5.663   0.380   8.052 -0.0516  0.3623 -0.4391
   72CHL1  H21A 7787   5.618   0.329   7.964 -1.5367  2.4347 -0.9565
   72CHL1  H21B 7788   5.580   0.415   8.117 -0.2687  1.7672 -1.4068
   72CHL1  H21C 7789   5.733   0.313   8.105 -0.0938  3.0778  3.4731
   72CHL1   C22 7790   5.713   0.618   8.123 -0.2061  0.0173  0.0604
   72CHL1  H22A 7791   5.778   0.705   8.099 -0.4937 -0.1510 -1.4041
   72CHL1  H22B 7792   5.604   0.633   8.138 -0.3546 -1.6445  0.8709
   72CHL1   C23 7793   5.759   0.569   8.260  0.3824 -0.6253  0.6057
   72CHL1  H23A 7794   5.695   0.484   8.290 -1.7063  0.0362 -1.6677
   72CHL1  H23B 7795   5.866   0.538   8.254  0.7120  0.7066 -2.1185
   72CHL1   C24 7796   5.729   0.677   8.370 -0.7456  0.6260 -0.1777
   72CHL1  H24A 7797   5.782   0.769   8.336  1.3166 -0.2737  0.4729
   72CHL1  H24B 7798   5.619   0.684   8.384 -0.5430 -0.3308  2.5702
   72CHL1   C25 7799   5.785   0.638   8.509 -0.0982 -0.9971  0.7898
   72CHL1   H25 7800   5.749   0.533   8.518 -1.3571 -0.5707  0.9647
   72CHL1   C26 7801   5.943   0.653   8.512 -0.0753  0.0931  1.2672
   72CHL1  H26A 7802   5.979   0.651   8.617  0.8454  0.9409  0.9742
   72CHL1  H26B 7803   5.989   0.576   8.447  0.8759  1.0276  0.8037
   72CHL1  H26C 7804   5.975   0.751   8.471 -1.8954 -0.0553 -0.6896
   72CHL1   C27 7805   5.723   0.724   8.616  0.2871  0.0434  0.0636
   72CHL1  H27A 7806   5.770   0.708   8.715  0.2581 -0.6161 -0.0240
   72CHL1  H27B 7807   5.742   0.832   8.599  0.2986 -0.0061 -0.2366
   72CHL1  H27C 7808   5.613   0.705   8.613  0.2797  0.1846 -1.5772
   73CHL1    C3 7809   0.658   3.864   7.145  0.5174  0.7124 -0.0376
   73CHL1    H3 7810   0.757   3.850   7.193  1.0886  0.0144 -1.3823
   73CHL1    O3 7811   0.671   3.842   7.007 -0.0774 -0.3254  0.5554
   73CHL1   H3' 7812   0.661   3.921   6.954  0.6322 -1.4224 -1.2985
   73CHL1    C4 7813   0.554   3.765   7.209  0.2988  0.3459 -0.1500
   73CHL1   H4A 7814   0.459   3.776   7.152  0.1973 -1.7064 -0.4698
   73CHL1   H4B 7815   0.588   3.661   7.187 -2.6513 -0.7711  0.1112
   73CHL1    C5 7816   0.534   3.787   7.359  0.1783 -0.2503  0.8090
   73CHL1    C6 7817   0.553   3.695   7.451 -0.2199 -0.0983 -0.9997
   73CHL1    H6 7818   0.586   3.592   7.432 -2.1272 -1.1710  0.9998
   73CHL1    C7 7819   0.520   3.718   7.596 -0.5177  0.2942  0.1909
   73CHL1   H7A 7820   0.466   3.629   7.634  1.2763 -0.9853 -0.1071
   73CHL1   H7B 7821   0.618   3.713   7.649 -1.6902  1.7626  2.6702
   73CHL1    C8 7822   0.457   3.851   7.627  0.6749  0.0711 -0.4685
   73CHL1    H8 7823   0.352   3.841   7.594  0.4340  1.3194 -0.1495
   73CHL1   C14 7824   0.476   3.878   7.777 -0.2992 -0.4914  0.7001
   73CHL1   H14 7825   0.586   3.887   7.790 -0.4302  0.1806  1.4392
   73CHL1   C15 7826   0.435   3.775   7.871 -0.7331  0.1367 -0.7576
   73CHL1  H15A 7827   0.332   3.737   7.851 -0.7278  0.0188 -0.5590
   73CHL1  H15B 7828   0.508   3.691   7.871  2.1264  2.4517  0.8012
   73CHL1   C16 7829   0.433   3.841   8.006 -0.0388  0.6559 -0.0304
   73CHL1  H16A 7830   0.332   3.829   8.052  0.2245  0.1989  0.4492
   73CHL1  H16B 7831   0.506   3.794   8.076  0.9264  1.6265 -0.3632
   73CHL1   C17 7832   0.464   3.986   7.980 -0.4295 -0.4853  0.7283
   73CHL1   H17 7833   0.573   4.010   7.986 -0.3565 -0.9755  1.5587
   73CHL1   C13 7834   0.418   4.009   7.829 -0.1712  0.4066  0.6415
   73CHL1   C18 7835   0.261   4.016   7.822  0.2225 -0.4191  0.1614
   73CHL1  H18A 7836   0.222   3.922   7.868 -1.5475 -0.8066 -1.9468
   73CHL1  H18B 7837   0.209   4.089   7.887 -0.7217  0.6670 -1.7424
   73CHL1  H18C 7838   0.230   4.004   7.716  2.2143 -2.8270 -0.2396
   73CHL1   C12 7839   0.480   4.120   7.749  0.8911 -0.1463  0.4062
   73CHL1  H12A 7840   0.439   4.220   7.776  1.1697 -0.4362  2.0284
   73CHL1  H12B 7841   0.591   4.119   7.760  0.9059 -0.6046  0.2182
   73CHL1   C11 7842   0.457   4.099   7.594 -0.2324  0.1491 -0.5293
   73CHL1  H11A 7843   0.348   4.104   7.574 -0.8356  0.7015  2.4227
   73CHL1  H11B 7844   0.508   4.164   7.520  2.6076 -1.2498  0.0316
   73CHL1    C9 7845   0.508   3.959   7.537  0.5821 -0.9437 -0.3603
   73CHL1    H9 7846   0.618   3.970   7.555  0.3452 -0.4779  0.9607
   73CHL1   C10 7847   0.495   3.935   7.386  0.2342 -0.6410 -0.5352
   73CHL1   C19 7848   0.345   3.969   7.346  0.1444 -0.0019  0.0147
   73CHL1  H19A 7849   0.324   4.078   7.343 -0.1931  0.0320  2.0951
   73CHL1  H19B 7850   0.325   3.931   7.244  0.2757  0.1769 -0.0775
   73CHL1  H19C 7851   0.277   3.922   7.420 -0.0222  0.9626  0.4782
   73CHL1    C1 7852   0.599   4.024   7.320  0.1154  0.4342 -0.0384
   73CHL1   H1A 7853   0.586   4.134   7.331  0.5027  0.6602 -1.6341
   73CHL1   H1B 7854   0.705   4.005   7.349  1.1738  1.7515 -2.6867
   73CHL1    C2 7855   0.601   4.003   7.172 -0.0150 -0.0524  0.1204
   73CHL1   H2A 7856   0.668   4.078   7.126  0.8114  0.0759  1.4809
   73CHL1   H2B 7857   0.506   4.023   7.118 -1.0392  1.1608  2.2441
   73CHL1   C20 7858   0.398   4.066   8.091  0.0852  0.3232 -1.1369
   73CHL1   H20 7859   0.292   4.037   8.103  0.3189  0.3174  1.5146
   73CHL1   C21 7860   0.405   4.215   8.064  0.0053 -0.3409  0.9451
   73CHL1  H21A 7861   0.364   4.243   7.964  0.2456 -1.8626  0.3899
   73CHL1  H21B 7862   0.509   4.253   8.072  0.0620  0.0303 -1.0872
   73CHL1  H21C 7863   0.347   4.279   8.134 -1.0154 -0.9586  0.6920
   73CHL1   C22 7864   0.458   4.027   8.229 -0.2460 -0.1426 -0.2443
   73CHL1  H22A 7865   0.437   3.922   8.256  1.4057 -0.9426 -1.8570
   73CHL1  H22B 7866   0.569   4.035   8.232 -0.3429  1.5609  0.0194
   73CHL1   C23 7867   0.401   4.105   8.347  0.5831  0.4188  0.5772
   73CHL1  H23A 7868   0.425   4.211   8.325  0.5962  0.1334 -0.9405
   73CHL1  H23B 7869   0.291   4.087   8.351  0.7598 -0.5194  2.1191
   73CHL1   C24 7870   0.449   4.059   8.485 -0.3821 -0.1016  0.0834
   73CHL1  H24A 7871   0.447   3.948   8.491 -0.6998 -0.0212  2.6168
   73CHL1  H24B 7872   0.546   4.109   8.503  0.0719 -0.3510 -1.5488
   73CHL1   C25 7873   0.364   4.122   8.594 -0.8083  0.8377 -0.6692
   73CHL1   H25 7874   0.260   4.083   8.593 -0.4040 -0.4197  1.1189
   73CHL1   C26 7875   0.424   4.088   8.734 -0.1426  0.2252  0.6304
   73CHL1  H26A 7876   0.379   4.147   8.817 -2.2123  1.4017 -1.2008
   73CHL1  H26B 7877   0.422   3.977   8.741 -0.2437  0.2249  0.6027
   73CHL1  H26C 7878   0.532   4.115   8.729 -0.0642 -0.0250  0.9651
   73CHL1   C27 7879   0.355   4.271   8.574 -0.2090 -0.5490 -0.2898
   73CHL1  H27A 7880   0.450   4.329   8.569  0.2323 -1.2896 -0.6460
   73CHL1  H27B 7881   0.282   4.295   8.494  0.1511  1.1539 -0.1298
   73CHL1  H27C 7882   0.300   4.315   8.659  1.9305  1.7637  0.0103
   74CHL1    C3 7883   1.248   3.452   6.768 -0.2526  0.3923 -0.1003
   74CHL1    H3 7884   1.172   3.371   6.776 -0.1532  0.1245 -1.5741
   74CHL1    O3 7885   1.284   3.463   6.633 -0.0566 -0.8754 -0.5458
   74CHL1   H3' 7886   1.364   3.516   6.633 -0.3586 -0.3948  0.2545
   74CHL1    C4 7887   1.178   3.578   6.816 -0.4271 -0.8040  0.1586
   74CHL1   H4A 7888   1.246   3.663   6.792 -2.2270  0.4805 -0.6808
   74CHL1   H4B 7889   1.093   3.602   6.749  0.7864 -1.3959 -1.6789
   74CHL1    C5 7890   1.152   3.589   6.967 -0.5422  0.2892 -0.9445
   74CHL1    C6 7891   1.029   3.620   7.017  0.0143  1.4667  0.4008
   74CHL1    H6 7892   0.954   3.650   6.942  2.9713  0.5496 -3.2336
   74CHL1    C7 7893   0.995   3.620   7.164  0.0386 -0.3833  0.0883
   74CHL1   H7A 7894   0.939   3.711   7.196  0.5268  0.6871 -1.9845
   74CHL1   H7B 7895   0.921   3.539   7.182  2.5599 -2.8463  0.0681
   74CHL1    C8 7896   1.120   3.610   7.257  1.3924  0.1770  0.0627
   74CHL1    H8 7897   1.169   3.709   7.264  0.3615  0.6326  1.2271
   74CHL1   C14 7898   1.076   3.566   7.398 -0.5259 -0.0661 -0.3681
   74CHL1   H14 7899   1.051   3.458   7.394 -2.6680  0.2853  1.6365
   74CHL1   C15 7900   0.952   3.624   7.463  0.0749 -0.2456  0.2775
   74CHL1  H15A 7901   0.931   3.728   7.429 -1.2807 -0.3369  0.7735
   74CHL1  H15B 7902   0.863   3.561   7.443 -1.5836  1.8944  0.5606
   74CHL1   C16 7903   0.976   3.617   7.617  0.1715  0.3010 -0.2877
   74CHL1  H16A 7904   0.992   3.719   7.658  1.1722 -0.7696  2.1539
   74CHL1  H16B 7905   0.899   3.557   7.669 -0.7590  0.6919 -1.1881
   74CHL1   C17 7906   1.114   3.535   7.622  0.0200  0.2345 -0.3745
   74CHL1   H17 7907   1.071   3.433   7.609 -0.1210  0.0861  1.0651
   74CHL1   C13 7908   1.192   3.568   7.497  0.3091 -0.3967 -0.4725
   74CHL1   C18 7909   1.262   3.704   7.511 -0.2232 -0.8677 -0.8139
   74CHL1  H18A 7910   1.300   3.743   7.414  0.6701 -0.3685 -0.2718
   74CHL1  H18B 7911   1.197   3.785   7.552  0.1316  0.6838 -3.0960
   74CHL1  H18C 7912   1.345   3.697   7.585 -1.6651  0.8270  1.0841
   74CHL1   C12 7913   1.291   3.456   7.457  0.1333 -0.3141 -0.1630
   74CHL1  H12A 7914   1.379   3.476   7.522 -0.3217  0.9028  0.0962
   74CHL1  H12B 7915   1.247   3.355   7.475 -3.4987  1.0277 -0.5913
   74CHL1   C11 7916   1.332   3.469   7.306  1.0787  0.5363  1.1374
   74CHL1  H11A 7917   1.399   3.558   7.305 -0.5296  1.9259 -2.7996
   74CHL1  H11B 7918   1.381   3.374   7.275  1.2541  0.5893  1.2452
   74CHL1    C9 7919   1.215   3.504   7.205 -0.0570  0.1240  0.2540
   74CHL1    H9 7920   1.149   3.415   7.199  0.3229 -0.3285  2.2879
   74CHL1   C10 7921   1.266   3.541   7.063  0.0835 -1.2631  0.0831
   74CHL1   C19 7922   1.364   3.666   7.070  0.3181  0.3145 -0.1203
   74CHL1  H19A 7923   1.462   3.631   7.110  0.7299 -1.3878 -2.4147
   74CHL1  H19B 7924   1.390   3.696   6.966 -0.3476 -1.0530 -0.7022
   74CHL1  H19C 7925   1.326   3.755   7.125 -2.3397 -1.9876  2.0399
   74CHL1    C1 7926   1.333   3.407   7.000  0.6120  0.1912  0.7336
   74CHL1   H1A 7927   1.417   3.387   7.069  0.1085  3.1473  2.3771
   74CHL1   H1B 7928   1.245   3.340   7.010 -0.1983  0.9067 -1.1175
   74CHL1    C2 7929   1.374   3.419   6.852  0.2506 -0.2106 -0.3352
   74CHL1   H2A 7930   1.403   3.316   6.819  1.3251  0.2607 -0.9231
   74CHL1   H2B 7931   1.455   3.493   6.838  1.0220 -0.8794  0.4707
   74CHL1   C20 7932   1.189   3.537   7.759 -0.3397 -0.1907  0.1083
   74CHL1   H20 7933   1.291   3.504   7.733 -0.1194  0.3627  0.2549
   74CHL1   C21 7934   1.115   3.432   7.833  0.0456  1.3002 -1.3768
   74CHL1  H21A 7935   1.157   3.436   7.936 -1.5348  0.8378 -0.6839
   74CHL1  H21B 7936   1.127   3.330   7.791  0.1200 -0.4705  2.5115
   74CHL1  H21C 7937   1.007   3.454   7.845 -0.2830 -0.9085  0.3755
   74CHL1   C22 7938   1.195   3.668   7.840  0.1643  0.1557  0.1431
   74CHL1  H22A 7939   1.169   3.755   7.776  0.9198  1.7326  1.9007
   74CHL1  H22B 7940   1.118   3.658   7.919  1.6102 -0.0896  1.5582
   74CHL1   C23 7941   1.328   3.683   7.911  0.2238 -0.2623 -0.3429
   74CHL1  H23A 7942   1.346   3.598   7.979  0.4530  1.5538  2.0182
   74CHL1  H23B 7943   1.408   3.696   7.835  1.0407  2.1588  0.7971
   74CHL1   C24 7944   1.344   3.819   7.990  0.0198  0.8863 -0.0859
   74CHL1  H24A 7945   1.450   3.831   8.022  0.6427 -2.0140 -0.7250
   74CHL1  H24B 7946   1.311   3.896   7.918 -0.6207  1.0218  0.3426
   74CHL1   C25 7947   1.246   3.821   8.113 -0.4692 -1.2786 -0.1014
   74CHL1   H25 7948   1.139   3.812   8.082 -0.0657 -2.1485 -1.3141
   74CHL1   C26 7949   1.273   3.699   8.195 -0.3045  0.6530  0.5194
   74CHL1  H26A 7950   1.381   3.675   8.189  0.0526  1.9708  1.2034
   74CHL1  H26B 7951   1.233   3.711   8.298 -0.4215  0.5643  0.4836
   74CHL1  H26C 7952   1.229   3.603   8.160  1.6794  0.3989 -1.4894
   74CHL1   C27 7953   1.274   3.944   8.198 -0.6097  0.4188 -0.6417
   74CHL1  H27A 7954   1.384   3.955   8.212 -0.8079  0.8721  0.7452
   74CHL1  H27B 7955   1.244   4.041   8.153 -2.0608 -0.4936 -1.7280
   74CHL1  H27C 7956   1.235   3.933   8.302 -1.6858 -1.3615 -1.1883
   75CHL1    C3 7957   4.009   3.979   6.767  0.2522 -0.8060  0.0107
   75CHL1    H3 7958   4.116   3.950   6.761  0.1791 -0.8311 -1.5603
   75CHL1    O3 7959   3.983   4.014   6.635 -0.0498 -0.1804 -0.4262
   75CHL1   H3' 7960   3.901   4.065   6.633  0.0407  0.0052  0.4325
   75CHL1    C4 7961   3.918   3.867   6.804  0.5871 -0.1903  0.4624
   75CHL1   H4A 7962   3.814   3.889   6.774  0.1899 -1.3738  0.9282
   75CHL1   H4B 7963   3.947   3.779   6.742  0.5422  0.5017 -0.5799
   75CHL1    C5 7964   3.918   3.840   6.952 -0.1046  0.7431  0.5207
   75CHL1    C6 7965   3.936   3.714   7.002 -0.6196  0.4605 -0.5353
   75CHL1    H6 7966   3.946   3.634   6.927  0.6725  0.5864 -0.5083
   75CHL1    C7 7967   3.941   3.677   7.148 -0.2264  0.4598 -0.2336
   75CHL1   H7A 7968   3.882   3.588   7.178  0.7146 -1.1090 -2.7633
   75CHL1   H7B 7969   4.047   3.659   7.177 -0.1495  1.3553  0.0939
   75CHL1    C8 7970   3.905   3.796   7.236 -0.5257 -0.1075  0.3955
   75CHL1    H8 7971   3.794   3.801   7.238 -0.4866  0.5662  0.9386
   75CHL1   C14 7972   3.955   3.769   7.380  0.3199 -0.6673 -0.1269
   75CHL1   H14 7973   4.066   3.767   7.369  0.3174 -1.3628 -0.0569
   75CHL1   C15 7974   3.935   3.629   7.443 -0.1643  0.0036 -0.2069
   75CHL1  H15A 7975   3.830   3.602   7.418 -0.4763  1.8485 -1.0351
   75CHL1  H15B 7976   4.007   3.552   7.408  0.0646 -0.3968  1.0831
   75CHL1   C16 7977   3.961   3.657   7.592  0.2951 -0.0687 -0.1141
   75CHL1  H16A 7978   3.883   3.610   7.656  1.7127 -3.2756 -0.5249
   75CHL1  H16B 7979   4.054   3.608   7.630  0.9302  2.8569  2.4989
   75CHL1   C17 7980   3.977   3.812   7.604  0.3311  0.3981 -0.9506
   75CHL1   H17 7981   4.086   3.831   7.603  0.1767  1.4705  0.3801
   75CHL1   C13 7982   3.911   3.874   7.484  0.7412  0.6342  0.1832
   75CHL1   C18 7983   3.752   3.876   7.494  0.3609  0.1931 -0.3105
   75CHL1  H18A 7984   3.711   3.776   7.521  0.8740 -0.2686 -1.1941
   75CHL1  H18B 7985   3.715   3.941   7.576  0.0159  0.3532 -0.5914
   75CHL1  H18C 7986   3.701   3.906   7.401  2.3064  0.7430 -1.2619
   75CHL1   C12 7987   3.959   4.017   7.449  0.1766  0.2312  0.4600
   75CHL1  H12A 7988   3.897   4.092   7.503 -1.7594 -0.2526 -0.9615
   75CHL1  H12B 7989   4.069   4.030   7.463  0.2009 -0.1230  0.5903
   75CHL1   C11 7990   3.928   4.040   7.297 -0.1496  0.1274 -0.2401
   75CHL1  H11A 7991   3.818   4.056   7.304 -0.3545 -1.8858  2.3499
   75CHL1  H11B 7992   3.969   4.139   7.269  2.3071 -0.7248  0.1006
   75CHL1    C9 7993   3.963   3.933   7.195 -0.1802  0.6875  0.1968
   75CHL1    H9 7994   4.071   3.908   7.186  0.2025  2.3551 -0.1695
   75CHL1   C10 7995   3.923   3.963   7.047 -0.3288 -0.2113 -0.0998
   75CHL1   C19 7996   3.778   4.013   7.047 -0.1551 -0.6655  0.3994
   75CHL1  H19A 7997   3.704   3.949   7.099 -0.7565 -0.5412 -0.2924
   75CHL1  H19B 7998   3.782   4.111   7.099  2.8637 -0.0187 -0.8108
   75CHL1  H19C 7999   3.728   4.031   6.949  0.4184  0.7985  0.3484
   75CHL1    C1 8000   4.017   4.073   6.996 -0.2103 -0.3589 -0.4996
   75CHL1   H1A 8001   4.008   4.169   7.051  2.4265  0.2290 -0.9986
   75CHL1   H1B 8002   4.122   4.038   7.006 -0.3730 -1.0215 -1.0333
   75CHL1    C2 8003   3.997   4.104   6.854 -0.1687 -0.5501  0.0537
   75CHL1   H2A 8004   4.068   4.182   6.820 -1.6899  0.4500 -0.9040
   75CHL1   H2B 8005   3.895   4.146   6.843 -0.1593  0.1732  2.2807
   75CHL1   C20 8006   3.939   3.859   7.746  0.2820 -0.1932 -0.3843
   75CHL1   H20 8007   3.834   3.832   7.771  0.6786 -2.5572 -1.0103
   75CHL1   C21 8008   3.941   4.003   7.773  0.6747  0.0856  0.5149
   75CHL1  H21A 8009   3.885   4.071   7.704  1.2412 -0.0530 -0.0943
   75CHL1  H21B 8010   4.048   4.033   7.771  0.6630  0.1372  0.6507
   75CHL1  H21C 8011   3.907   4.015   7.878  0.7591 -0.4737  0.6108
   75CHL1   C22 8012   4.023   3.783   7.857 -0.0958  0.3755 -0.2702
   75CHL1  H22A 8013   4.102   3.722   7.810  1.0452  1.1803  0.5378
   75CHL1  H22B 8014   4.076   3.857   7.922 -0.2584  0.6858 -0.4885
   75CHL1   C23 8015   3.926   3.717   7.957  0.2739  0.4612  0.2371
   75CHL1  H23A 8016   3.865   3.802   7.995  0.1355  0.3832  0.1912
   75CHL1  H23B 8017   3.881   3.635   7.896 -0.0743 -0.0498  1.1627
   75CHL1   C24 8018   4.012   3.654   8.068  0.6877 -0.1021  0.2994
   75CHL1  H24A 8019   4.039   3.552   8.036  1.2617  0.8514 -2.5438
   75CHL1  H24B 8020   4.107   3.710   8.080  1.2159 -1.2741  1.8927
   75CHL1   C25 8021   3.949   3.634   8.201  0.1701  0.4706 -0.1646
   75CHL1   H25 8022   3.916   3.736   8.230  1.4035  0.9240 -0.2850
   75CHL1   C26 8023   3.831   3.527   8.196 -0.3591  0.1831 -0.3591
   75CHL1  H26A 8024   3.750   3.547   8.122 -0.4624  0.9736 -0.0461
   75CHL1  H26B 8025   3.875   3.429   8.167 -0.8581 -0.0774 -0.2467
   75CHL1  H26C 8026   3.789   3.525   8.298  0.3304  2.1413  0.0123
   75CHL1   C27 8027   4.058   3.584   8.296 -0.2951  1.0586 -0.0793
   75CHL1  H27A 8028   4.096   3.490   8.250 -1.9910 -0.2529  1.0756
   75CHL1  H27B 8029   4.139   3.658   8.311 -0.9320  1.8123 -0.3355
   75CHL1  H27C 8030   4.015   3.562   8.397 -0.1684 -2.2648 -0.6147
   76CHL1    C3 8031   5.652   5.445   7.247 -0.1572 -0.3889  0.4311
   76CHL1    H3 8032   5.556   5.405   7.287 -0.6112  3.0924  3.3848
   76CHL1    O3 8033   5.658   5.417   7.108 -0.1572 -0.3656 -0.0585
   76CHL1   H3' 8034   5.627   5.326   7.106  1.7263 -1.0515 -0.0998
   76CHL1    C4 8035   5.648   5.603   7.271 -0.5574  0.4089  0.7147
   76CHL1   H4A 8036   5.735   5.651   7.222  0.7114 -0.7566  1.7604
   76CHL1   H4B 8037   5.553   5.633   7.221 -0.9328 -0.0358  1.1479
   76CHL1    C5 8038   5.653   5.614   7.419  0.2660 -0.7781 -0.2810
   76CHL1    C6 8039   5.558   5.681   7.482  0.2443 -0.3454  0.1517
   76CHL1    H6 8040   5.486   5.738   7.421  1.7155  0.2598 -1.0924
   76CHL1    C7 8041   5.563   5.714   7.634  0.2596 -0.5022 -0.0024
   76CHL1   H7A 8042   5.524   5.817   7.644 -0.2580 -0.8461  2.1809
   76CHL1   H7B 8043   5.485   5.652   7.684  1.4585 -3.6469 -1.6939
   76CHL1    C8 8044   5.697   5.696   7.705  0.2487  0.0018 -0.0703
   76CHL1    H8 8045   5.758   5.782   7.671  1.8469 -0.3603  1.6640
   76CHL1   C14 8046   5.680   5.699   7.854 -0.5193 -0.5498 -0.4908
   76CHL1   H14 8047   5.621   5.611   7.887 -0.3157 -0.6283 -0.3359
   76CHL1   C15 8048   5.610   5.825   7.908 -0.3704 -0.1918  0.4011
   76CHL1  H15A 8049   5.657   5.902   7.844 -0.2901 -2.3926 -2.3624
   76CHL1  H15B 8050   5.500   5.830   7.898 -0.3132 -0.2870 -0.2925
   76CHL1   C16 8051   5.653   5.831   8.050 -0.0405  0.2541 -0.1067
   76CHL1  H16A 8052   5.701   5.930   8.066 -0.4231  0.6146 -1.1097
   76CHL1  H16B 8053   5.567   5.815   8.119  0.8798  0.1975  1.0652
   76CHL1   C17 8054   5.756   5.719   8.076  0.2525 -0.4010 -0.7109
   76CHL1   H17 8055   5.702   5.626   8.102  1.4861 -0.7760  0.6769
   76CHL1   C13 8056   5.807   5.686   7.933 -0.8946 -0.5193  0.1143
   76CHL1   C18 8057   5.901   5.803   7.899 -0.5920  0.3459  0.4309
   76CHL1  H18A 8058   5.995   5.808   7.958 -0.2383  1.0091 -0.1746
   76CHL1  H18B 8059   5.924   5.814   7.790 -0.3378  4.1714  0.7496
   76CHL1  H18C 8060   5.863   5.907   7.898 -1.7599 -0.0705 -0.3180
   76CHL1   C12 8061   5.869   5.544   7.896 -0.3102  0.2581  0.3868
   76CHL1  H12A 8062   5.963   5.521   7.951 -0.8983  0.0702  1.3385
   76CHL1  H12B 8063   5.793   5.469   7.927  0.1303  0.1211  1.1479
   76CHL1   C11 8064   5.888   5.532   7.742  0.0937  0.3722 -0.4032
   76CHL1  H11A 8065   5.974   5.598   7.717  1.2333 -1.2897 -0.9637
   76CHL1  H11B 8066   5.911   5.426   7.723  1.1364  0.6038 -0.4901
   76CHL1    C9 8067   5.754   5.564   7.656 -0.0859  0.1174 -0.8276
   76CHL1    H9 8068   5.676   5.493   7.693 -0.6111  1.7483  1.4543
   76CHL1   C10 8069   5.773   5.553   7.501 -0.5870 -0.3661 -0.6646
   76CHL1   C19 8070   5.901   5.628   7.455  0.4943  0.2693 -0.1994
   76CHL1  H19A 8071   5.899   5.625   7.344 -1.1058  0.4488 -0.2042
   76CHL1  H19B 8072   5.901   5.734   7.488  2.0043 -0.1641  1.3310
   76CHL1  H19C 8073   5.995   5.580   7.489  1.6286  1.5827 -1.3627
   76CHL1    C1 8074   5.783   5.404   7.459  0.0605  0.1362 -0.7353
   76CHL1   H1A 8075   5.875   5.357   7.500  1.0374  1.4813 -1.3232
   76CHL1   H1B 8076   5.688   5.358   7.493 -0.2746  0.6412 -0.9804
   76CHL1    C2 8077   5.782   5.391   7.308  0.6675  0.0123 -0.1587
   76CHL1   H2A 8078   5.790   5.282   7.289 -1.0751 -0.0882 -0.5212
   76CHL1   H2B 8079   5.871   5.442   7.265 -0.5501  0.3457 -2.4658
   76CHL1   C20 8080   5.865   5.748   8.180  0.2516  0.1042 -0.8126
   76CHL1   H20 8081   5.919   5.844   8.161  2.7686 -1.6262 -3.1300
   76CHL1   C21 8082   5.956   5.629   8.194 -0.4303 -0.0058 -0.3182
   76CHL1  H21A 8083   6.013   5.638   8.289 -2.0694 -0.3498  0.7502
   76CHL1  H21B 8084   6.029   5.640   8.112 -0.8072 -1.1773 -0.8313
   76CHL1  H21C 8085   5.900   5.533   8.188 -2.7177  1.2394  0.0596
   76CHL1   C22 8086   5.788   5.764   8.315 -0.1744  0.2221 -0.5083
   76CHL1  H22A 8087   5.693   5.821   8.309 -0.5221 -0.3208 -0.2508
   76CHL1  H22B 8088   5.758   5.666   8.357 -1.3086  0.0313 -1.6799
   76CHL1   C23 8089   5.873   5.846   8.410 -0.5264 -0.2939  0.6308
   76CHL1  H23A 8090   5.966   5.792   8.439  0.4617  0.8759 -0.2742
   76CHL1  H23B 8091   5.912   5.935   8.357 -0.3854 -1.4945 -1.4213
   76CHL1   C24 8092   5.806   5.886   8.541  0.0809 -0.7345 -0.1859
   76CHL1  H24A 8093   5.720   5.951   8.514 -0.0973 -1.1698 -0.6854
   76CHL1  H24B 8094   5.752   5.801   8.587  0.1814 -1.1185 -0.7655
   76CHL1   C25 8095   5.891   5.951   8.652  0.0828  0.2991 -0.3701
   76CHL1   H25 8096   5.986   5.895   8.667 -1.3405 -2.1251  0.1948
   76CHL1   C26 8097   5.921   6.097   8.623  0.1676  0.6324 -0.1027
   76CHL1  H26A 8098   5.996   6.103   8.541  1.0567 -0.9440  0.5353
   76CHL1  H26B 8099   5.836   6.155   8.584 -1.2789 -0.7119  0.9294
   76CHL1  H26C 8100   5.968   6.148   8.710  0.2644  2.5354 -1.2232
   76CHL1   C27 8101   5.809   5.956   8.785 -0.3186 -0.1153 -0.2271
   76CHL1  H27A 8102   5.767   5.860   8.822 -0.1749  0.8902  2.8856
   76CHL1  H27B 8103   5.868   5.997   8.871  2.5393 -0.2955 -1.9745
   76CHL1  H27C 8104   5.730   6.030   8.760 -1.2160 -1.7931 -2.6582
   77CHL1    C3 8105   0.244   4.322   6.988 -0.4067 -0.7705 -0.4063
   77CHL1    H3 8106   0.315   4.239   7.008 -3.5032 -3.5996 -0.3553
   77CHL1    O3 8107   0.266   4.377   6.861 -0.2718 -0.2442  0.1768
   77CHL1   H3' 8108   0.192   4.346   6.808 -0.3439  0.5614 -0.2172
   77CHL1    C4 8109   0.103   4.256   7.001  0.0432  0.2923 -0.5391
   77CHL1   H4A 8110   0.022   4.324   6.965  0.3015  0.7467 -0.2718
   77CHL1   H4B 8111   0.109   4.169   6.933  0.2132 -0.0901 -0.0347
   77CHL1    C5 8112   0.062   4.226   7.147  0.5099  0.6098  0.1533
   77CHL1    C6 8113   0.006   4.106   7.181 -0.0396 -0.5611  0.2376
   77CHL1    H6 8114  -0.026   4.037   7.101 -0.5613  0.1514 -0.1743
   77CHL1    C7 8115  -0.034   4.074   7.318 -0.9477  0.3958 -0.2891
   77CHL1   H7A 8116  -0.128   4.017   7.332 -1.0725  1.0403  1.8646
   77CHL1   H7B 8117   0.047   4.019   7.371 -1.6002 -0.0405  0.2703
   77CHL1    C8 8118  -0.043   4.199   7.412  0.4545  0.5541  0.4136
   77CHL1    H8 8119  -0.134   4.255   7.381 -0.4711 -0.7094  0.7801
   77CHL1   C14 8120  -0.057   4.154   7.554 -0.5827  0.8562 -0.0173
   77CHL1   H14 8121   0.036   4.100   7.581 -0.7627  0.1020 -0.8355
   77CHL1   C15 8122  -0.176   4.068   7.593  0.3861  0.0186 -0.2039
   77CHL1  H15A 8123  -0.266   4.099   7.535 -0.6959  0.5674  1.6610
   77CHL1  H15B 8124  -0.168   3.959   7.573 -0.9484 -0.2389  0.5367
   77CHL1   C16 8125  -0.192   4.090   7.746  0.2045 -0.0046 -0.6930
   77CHL1  H16A 8126  -0.298   4.117   7.763 -0.4417 -0.9513 -2.8365
   77CHL1  H16B 8127  -0.173   3.992   7.793  2.3679  1.3605  1.5152
   77CHL1   C17 8128  -0.082   4.193   7.788  0.1201  0.0408 -0.1035
   77CHL1   H17 8129   0.018   4.144   7.789 -0.0822 -0.4490 -1.5417
   77CHL1   C13 8130  -0.068   4.273   7.650  0.4161 -0.2918 -0.4076
   77CHL1   C18 8131  -0.193   4.365   7.628  0.0786  0.0352 -0.2981
   77CHL1  H18A 8132  -0.286   4.308   7.647  1.3225 -2.0433 -0.0297
   77CHL1  H18B 8133  -0.188   4.454   7.693 -0.2261  0.4245 -0.8013
   77CHL1  H18C 8134  -0.186   4.407   7.525 -1.8045 -2.0755 -1.3867
   77CHL1   C12 8135   0.056   4.365   7.636 -0.1169  0.0261  0.4208
   77CHL1  H12A 8136   0.050   4.461   7.690  0.3311  1.2897 -1.6586
   77CHL1  H12B 8137   0.146   4.312   7.673  0.5449  1.2980  0.6841
   77CHL1   C11 8138   0.085   4.404   7.491 -0.1428  0.2864 -0.7666
   77CHL1  H11A 8139  -0.002   4.465   7.459 -0.3923  0.7825  0.7427
   77CHL1  H11B 8140   0.183   4.451   7.468 -0.2345  0.8641 -0.0216
   77CHL1    C9 8141   0.082   4.283   7.395  0.2913  0.1344 -0.3739
   77CHL1    H9 8142   0.172   4.226   7.424  1.1297  1.5296 -0.1287
   77CHL1   C10 8143   0.100   4.330   7.251  0.3513  0.7229 -0.0084
   77CHL1   C19 8144   0.004   4.454   7.222 -0.3253  0.9078 -0.2836
   77CHL1  H19A 8145   0.005   4.481   7.114 -0.4248 -0.4452 -0.6429
   77CHL1  H19B 8146  -0.099   4.426   7.252  0.0237  1.8121  1.8738
   77CHL1  H19C 8147   0.035   4.544   7.279  3.2980  0.5189 -1.4098
   77CHL1    C1 8148   0.251   4.363   7.234 -0.7921 -0.0542  0.6755
   77CHL1   H1A 8149   0.288   4.428   7.316  0.5775 -1.0873  0.9066
   77CHL1   H1B 8150   0.305   4.266   7.235  0.3487  0.5333 -0.9400
   77CHL1    C2 8151   0.267   4.429   7.094 -0.4009 -0.5546 -0.2972
   77CHL1   H2A 8152   0.371   4.470   7.094 -0.4191 -0.3922  1.5973
   77CHL1   H2B 8153   0.198   4.514   7.076  0.0009  0.1025  1.1054
   77CHL1   C20 8154  -0.113   4.279   7.907  0.4660  0.4965  0.6528
   77CHL1   H20 8155  -0.187   4.359   7.886 -0.3603 -0.3559  0.2061
   77CHL1   C21 8156   0.007   4.353   7.982 -0.3563 -0.0954 -0.0588
   77CHL1  H21A 8157  -0.044   4.410   8.063 -2.8187  0.0032 -1.5853
   77CHL1  H21B 8158   0.050   4.427   7.912 -0.7736 -2.5282 -3.1286
   77CHL1  H21C 8159   0.091   4.286   8.013  0.6129  0.1493 -2.0422
   77CHL1   C22 8160  -0.172   4.192   8.015 -0.1236 -0.2836 -0.3445
   77CHL1  H22A 8161  -0.194   4.256   8.102  0.1607  0.9586 -1.1511
   77CHL1  H22B 8162  -0.271   4.154   7.983 -0.8480  0.6694  0.7013
   77CHL1   C23 8163  -0.071   4.077   8.062  0.8575 -0.2900  0.0196
   77CHL1  H23A 8164  -0.052   4.014   7.972 -0.8174  0.7073 -1.0817
   77CHL1  H23B 8165   0.020   4.122   8.108  1.0227 -1.4597  0.8886
   77CHL1   C24 8166  -0.138   3.996   8.170 -0.6510 -0.5188 -0.2272
   77CHL1  H24A 8167  -0.138   4.067   8.255  0.5031 -0.2706 -0.4214
   77CHL1  H24B 8168  -0.244   3.976   8.144 -1.0332 -0.9281  1.5076
   77CHL1   C25 8169  -0.064   3.863   8.181 -0.3539 -0.1285 -0.2105
   77CHL1   H25 8170  -0.075   3.804   8.087 -3.5676  2.8821 -1.9410
   77CHL1   C26 8171   0.079   3.887   8.214 -0.4209  0.7455 -0.6912
   77CHL1  H26A 8172   0.092   3.978   8.277 -1.3393  0.3666  0.0825
   77CHL1  H26B 8173   0.126   3.795   8.254 -0.7622  0.9865  0.3045
   77CHL1  H26C 8174   0.129   3.913   8.119  0.9309  2.0924  0.3324
   77CHL1   C27 8175  -0.137   3.788   8.298  0.1214  0.1450  0.7190
   77CHL1  H27A 8176  -0.153   3.858   8.383 -0.7138 -0.6516  1.2381
   77CHL1  H27B 8177  -0.234   3.763   8.248 -0.8301 -0.6817  2.8577
   77CHL1  H27C 8178  -0.092   3.691   8.326  0.4786  0.1421  0.1635
   78CHL1    C3 8179   1.835   5.950   6.726  0.0034 -0.1777 -0.4537
   78CHL1    H3 8180   1.933   5.975   6.772 -0.8557  2.2324  0.1936
   78CHL1    O3 8181   1.843   5.953   6.587 -0.1754 -0.1563 -0.0833
   78CHL1   H3' 8182   1.756   5.952   6.547 -0.8692  1.3669  1.3112
   78CHL1    C4 8183   1.778   5.818   6.778  0.2183  0.4608 -0.8687
   78CHL1   H4A 8184   1.685   5.785   6.727 -0.3568 -0.2463  0.5663
   78CHL1   H4B 8185   1.850   5.739   6.748 -0.4285 -1.0913  1.4144
   78CHL1    C5 8186   1.747   5.814   6.928 -0.2624  0.3702  0.2113
   78CHL1    C6 8187   1.801   5.722   7.006  0.2617 -0.5078  0.8959
   78CHL1    H6 8188   1.852   5.639   6.955 -0.7143  0.2264 -1.3872
   78CHL1    C7 8189   1.787   5.707   7.154 -0.3289  0.8690 -0.1317
   78CHL1   H7A 8190   1.755   5.603   7.174 -2.4784  1.4887 -0.0723
   78CHL1   H7B 8191   1.889   5.723   7.195 -0.7897 -0.4498  1.6253
   78CHL1    C8 8192   1.686   5.806   7.217 -0.3453 -0.4133  0.0547
   78CHL1    H8 8193   1.581   5.774   7.197  0.1215 -2.5427  0.7530
   78CHL1   C14 8194   1.715   5.831   7.361  0.2049  0.1630 -0.1517
   78CHL1   H14 8195   1.817   5.876   7.357 -0.2597  1.4072  1.1149
   78CHL1   C15 8196   1.724   5.701   7.448 -1.0546  0.2606  0.3660
   78CHL1  H15A 8197   1.635   5.642   7.415 -1.9354  0.7648  1.7438
   78CHL1  H15B 8198   1.821   5.650   7.427 -0.0844  2.0707  0.2253
   78CHL1   C16 8199   1.711   5.763   7.581  0.1810  0.9028  0.4246
   78CHL1  H16A 8200   1.641   5.708   7.648 -0.4069  0.6049 -0.4056
   78CHL1  H16B 8201   1.810   5.762   7.629 -0.3849  0.4731  1.6103
   78CHL1   C17 8202   1.670   5.913   7.574 -0.3521  0.1195  0.4298
   78CHL1   H17 8203   1.765   5.967   7.594  0.7016 -1.8887  1.1489
   78CHL1   C13 8204   1.624   5.936   7.432 -0.3664 -0.1401 -0.3534
   78CHL1   C18 8205   1.476   5.890   7.418  0.2548  0.1951  0.3370
   78CHL1  H18A 8206   1.450   5.860   7.314  0.9336 -1.0888  0.5197
   78CHL1  H18B 8207   1.473   5.799   7.481  0.7276  0.4367  0.7221
   78CHL1  H18C 8208   1.406   5.967   7.455  2.6582  2.2894  0.8483
   78CHL1   C12 8209   1.649   6.072   7.368  0.0875  0.0571  0.3143
   78CHL1  H12A 8210   1.584   6.149   7.415 -0.5384 -0.7371  0.7528
   78CHL1  H12B 8211   1.753   6.107   7.386 -0.5240  2.7960 -0.8403
   78CHL1   C11 8212   1.614   6.073   7.213 -0.8290  0.6262 -0.5350
   78CHL1  H11A 8213   1.505   6.062   7.194 -0.6457  0.9181 -1.8455
   78CHL1  H11B 8214   1.663   6.167   7.178  2.2640 -0.9224 -0.7081
   78CHL1    C9 8215   1.702   5.943   7.145 -0.4013  0.4115  0.1142
   78CHL1    H9 8216   1.806   5.979   7.160 -0.6955  0.5317  2.1883
   78CHL1   C10 8217   1.679   5.937   6.993 -0.4811 -0.4220  0.8996
   78CHL1   C19 8218   1.533   5.912   6.963 -0.0159 -0.2710  0.2197
   78CHL1  H19A 8219   1.515   5.933   6.856 -1.6041 -0.8152  0.3445
   78CHL1  H19B 8220   1.498   5.812   6.998  1.4050 -0.4896  1.0974
   78CHL1  H19C 8221   1.487   5.996   7.020 -0.7356 -0.7987  0.4244
   78CHL1    C1 8222   1.724   6.071   6.928  0.5263  0.4446  0.1005
   78CHL1   H1A 8223   1.662   6.160   6.951 -0.3009  0.1212 -0.7609
   78CHL1   H1B 8224   1.820   6.096   6.977  1.0368 -2.7285  0.9752
   78CHL1    C2 8225   1.747   6.067   6.779  0.5538 -0.0907 -0.2115
   78CHL1   H2A 8226   1.787   6.166   6.747  0.0297  0.6229  1.2495
   78CHL1   H2B 8227   1.648   6.061   6.730 -0.4026  2.0010  1.3026
   78CHL1   C20 8228   1.578   5.949   7.687 -0.2813 -0.4113 -0.6032
   78CHL1   H20 8229   1.484   5.890   7.684 -0.1396 -0.8298  1.6248
   78CHL1   C21 8230   1.535   6.094   7.680 -0.5670  0.2478  0.6703
   78CHL1  H21A 8231   1.471   6.114   7.769 -0.0640  0.5405  0.9676
   78CHL1  H21B 8232   1.479   6.118   7.586  0.7895  0.2616 -0.1563
   78CHL1  H21C 8233   1.624   6.160   7.689  0.6333 -0.7088 -2.6429
   78CHL1   C22 8234   1.646   5.923   7.830 -1.1257 -0.4764 -0.5806
   78CHL1  H22A 8235   1.675   5.816   7.834  1.1721  0.0787 -1.1001
   78CHL1  H22B 8236   1.741   5.980   7.826 -0.8913 -0.8681 -0.7182
   78CHL1   C23 8237   1.566   5.973   7.953 -0.1894  0.4782  0.0243
   78CHL1  H23A 8238   1.551   6.083   7.950  0.2809  0.5669  0.6170
   78CHL1  H23B 8239   1.471   5.915   7.955 -1.9886  3.2213 -0.6817
   78CHL1   C24 8240   1.642   5.958   8.081 -0.5905  0.0420  0.5236
   78CHL1  H24A 8241   1.688   5.857   8.071  2.7913  1.4676  0.5363
   78CHL1  H24B 8242   1.725   6.030   8.072 -0.0512 -0.8324 -3.1886
   78CHL1   C25 8243   1.564   5.962   8.209  0.5434 -0.3238  0.3128
   78CHL1   H25 8244   1.480   5.890   8.199 -0.4648  0.6138  1.7364
   78CHL1   C26 8245   1.645   5.903   8.325 -0.1998  0.2509 -0.1154
   78CHL1  H26A 8246   1.717   5.980   8.358  0.6995 -0.8838  0.6712
   78CHL1  H26B 8247   1.576   5.874   8.408  0.6997  0.8961  0.8700
   78CHL1  H26C 8248   1.692   5.805   8.300 -1.6813 -0.7973  1.0225
   78CHL1   C27 8249   1.511   6.098   8.240  0.1777 -0.1863 -0.0509
   78CHL1  H27A 8250   1.431   6.126   8.167 -0.3549  2.1391  1.3142
   78CHL1  H27B 8251   1.456   6.101   8.336  1.1013 -0.5647  0.4928
   78CHL1  H27C 8252   1.592   6.173   8.249  1.1261 -0.9452 -1.7422
   79CHL1    C3 8253   0.245   5.055   7.216  0.1541  0.0333  0.0433
   79CHL1    H3 8254   0.345   5.027   7.254  0.9897  0.1709 -1.9361
   79CHL1    O3 8255   0.276   5.071   7.076 -0.3332 -0.0705 -0.2690
   79CHL1   H3' 8256   0.319   5.156   7.066 -0.4498  0.1554  0.9604
   79CHL1    C4 8257   0.150   4.940   7.243  0.0470  0.2731  0.4067
   79CHL1   H4A 8258   0.064   4.954   7.174 -0.7191  0.9509  1.4553
   79CHL1   H4B 8259   0.204   4.855   7.197 -2.4412 -2.1684  1.7257
   79CHL1    C5 8260   0.112   4.917   7.383  0.0716 -0.0127 -1.0348
   79CHL1    C6 8261   0.127   4.797   7.443 -0.0007  0.2547 -0.1363
   79CHL1    H6 8262   0.168   4.713   7.385 -2.8714 -2.1897  1.1349
   79CHL1    C7 8263   0.072   4.765   7.573  0.7196  0.5504  0.0529
   79CHL1   H7A 8264   0.009   4.674   7.572  0.5246  0.5435  3.3333
   79CHL1   H7B 8265   0.155   4.743   7.643  0.1277 -1.3761  0.2090
   79CHL1    C8 8266   0.001   4.882   7.644  0.4086  0.0518 -0.5647
   79CHL1    H8 8267  -0.107   4.872   7.616  0.2799  1.4056 -0.5949
   79CHL1   C14 8268   0.011   4.863   7.803  0.4212 -0.4488 -0.0718
   79CHL1   H14 8269   0.120   4.866   7.826  0.0404  0.5021  1.8115
   79CHL1   C15 8270  -0.037   4.728   7.860 -0.7367 -0.3971  0.1071
   79CHL1  H15A 8271  -0.128   4.682   7.816 -0.4955  0.6105 -1.5249
   79CHL1  H15B 8272   0.049   4.663   7.836 -0.1985 -0.5684  2.3515
   79CHL1   C16 8273  -0.049   4.754   8.007 -0.0953  0.1436 -0.0388
   79CHL1  H16A 8274  -0.146   4.719   8.050 -0.3218  2.1502  1.2200
   79CHL1  H16B 8275   0.024   4.696   8.067  1.7650  1.9918 -0.4201
   79CHL1   C17 8276  -0.037   4.908   8.023 -0.1389  0.1560 -0.2943
   79CHL1   H17 8277   0.071   4.929   8.039 -0.1741 -0.5816  1.0265
   79CHL1   C13 8278  -0.060   4.961   7.887 -0.2772  0.1433  0.2896
   79CHL1   C18 8279  -0.210   4.967   7.852 -0.1765 -0.1199 -0.0455
   79CHL1  H18A 8280  -0.263   4.874   7.882  0.3447  0.0897  1.6376
   79CHL1  H18B 8281  -0.258   5.051   7.907 -0.6616 -0.6991  0.4360
   79CHL1  H18C 8282  -0.220   4.972   7.742 -3.8970  0.1389  0.1684
   79CHL1   C12 8283   0.001   5.102   7.852  0.3342 -0.1409 -0.3416
   79CHL1  H12A 8284  -0.062   5.186   7.889 -0.4299 -0.5655 -0.6705
   79CHL1  H12B 8285   0.094   5.111   7.912 -0.9749  0.6561  1.6822
   79CHL1   C11 8286   0.002   5.131   7.701 -0.0573 -0.2001 -0.1275
   79CHL1  H11A 8287  -0.102   5.149   7.667  0.4333  2.1438 -0.5208
   79CHL1  H11B 8288   0.045   5.233   7.689 -0.3256 -0.0527  0.1459
   79CHL1    C9 8289   0.067   5.020   7.610 -0.1125  0.4834 -0.2150
   79CHL1    H9 8290   0.172   5.008   7.644 -0.3608 -0.8029  0.1715
   79CHL1   C10 8291   0.073   5.039   7.459 -0.1755 -0.1572  0.0529
   79CHL1   C19 8292  -0.070   5.066   7.401 -0.4310 -0.5090 -0.0249
   79CHL1  H19A 8293  -0.138   4.979   7.384  1.2895 -2.1106  0.9752
   79CHL1  H19B 8294  -0.119   5.144   7.463  0.6583  2.5598 -2.7334
   79CHL1  H19C 8295  -0.064   5.128   7.309  0.6978  1.2432  1.1601
   79CHL1    C1 8296   0.165   5.158   7.431 -0.4087 -0.3877  0.4282
   79CHL1   H1A 8297   0.136   5.258   7.470  1.6856  0.0217  1.0496
   79CHL1   H1B 8298   0.263   5.141   7.480 -0.3063  0.7537  0.6375
   79CHL1    C2 8299   0.204   5.182   7.281 -0.6305  0.3078 -0.0849
   79CHL1   H2A 8300   0.294   5.247   7.273 -1.1958  1.1553  0.3540
   79CHL1   H2B 8301   0.118   5.208   7.217  0.6429  0.5704 -1.7474
   79CHL1   C20 8302  -0.115   4.946   8.149 -0.4459  0.2994  0.8198
   79CHL1   H20 8303  -0.222   4.919   8.132  0.4070 -1.7536 -1.8928
   79CHL1   C21 8304  -0.099   5.095   8.167 -0.0181  0.1275 -0.6349
   79CHL1  H21A 8305   0.006   5.124   8.151  0.7493 -1.1737  1.6063
   79CHL1  H21B 8306  -0.153   5.123   8.260 -0.9980  0.6673 -1.3451
   79CHL1  H21C 8307  -0.146   5.148   8.082 -0.4270  0.3957 -0.2497
   79CHL1   C22 8308  -0.078   4.865   8.276  0.4507  0.6818 -0.7649
   79CHL1  H22A 8309  -0.141   4.902   8.360 -1.4798 -2.2792 -0.7533
   79CHL1  H22B 8310  -0.116   4.761   8.270 -1.5517  1.3767 -0.9938
   79CHL1   C23 8311   0.066   4.862   8.320 -0.2426 -0.1918  0.3372
   79CHL1  H23A 8312   0.124   4.797   8.251 -0.4039 -0.2873  0.2924
   79CHL1  H23B 8313   0.102   4.968   8.317  0.2687 -0.3798 -1.0592
   79CHL1   C24 8314   0.092   4.794   8.455 -0.4805  0.1607 -0.3834
   79CHL1  H24A 8315   0.048   4.860   8.533  0.5323  0.0098  0.3398
   79CHL1  H24B 8316   0.029   4.705   8.472  1.5795 -1.0707  1.4161
   79CHL1   C25 8317   0.236   4.748   8.483  0.1845 -0.1064 -0.2804
   79CHL1   H25 8318   0.262   4.657   8.425 -0.0675 -0.5186  0.2395
   79CHL1   C26 8319   0.340   4.861   8.451 -0.4183  0.2510  0.1528
   79CHL1  H26A 8320   0.320   4.955   8.507  2.4327  2.1580 -1.7579
   79CHL1  H26B 8321   0.441   4.820   8.472 -0.6482 -1.0580 -1.0760
   79CHL1  H26C 8322   0.332   4.891   8.344 -1.5167  0.0302  0.1606
   79CHL1   C27 8323   0.238   4.703   8.629 -0.3217  0.3189 -0.0135
   79CHL1  H27A 8324   0.340   4.675   8.663 -0.4294  0.9539  0.8743
   79CHL1  H27B 8325   0.211   4.783   8.701 -1.0672 -1.6610  2.0361
   79CHL1  H27C 8326   0.168   4.622   8.657 -0.5147  0.8743  1.1702
   80CHL1    C3 8327   1.018   2.399   6.945  0.0302  0.2740 -0.5115
   80CHL1    H3 8328   0.920   2.353   6.968  1.6598 -3.6179 -0.4882
   80CHL1    O3 8329   1.015   2.449   6.810  0.5001  0.1213  0.3503
   80CHL1   H3' 8330   1.014   2.367   6.762 -1.8726 -1.4755  2.8015
   80CHL1    C4 8331   1.047   2.513   7.039  0.3611  0.0519 -0.0873
   80CHL1   H4A 8332   1.144   2.556   7.005  0.0656  1.4048  0.6857
   80CHL1   H4B 8333   0.974   2.597   7.032  2.1555  1.7891  1.0131
   80CHL1    C5 8334   1.061   2.466   7.179  0.3610 -0.4240 -0.2069
   80CHL1    C6 8335   0.984   2.518   7.278  0.1992 -0.2863  0.1843
   80CHL1    H6 8336   0.919   2.601   7.247 -2.0101 -1.0944  2.2574
   80CHL1    C7 8337   1.011   2.499   7.424 -0.2857 -0.0649  0.2203
   80CHL1   H7A 8338   1.030   2.597   7.471  1.5306  0.0375 -0.6169
   80CHL1   H7B 8339   0.924   2.448   7.470 -0.0931 -0.2231  0.4145
   80CHL1    C8 8340   1.144   2.418   7.458 -0.1664 -0.3244  0.4532
   80CHL1    H8 8341   1.223   2.496   7.455 -1.0833  0.5985 -1.2595
   80CHL1   C14 8342   1.141   2.362   7.600 -0.8121  0.5172  0.1022
   80CHL1   H14 8343   1.054   2.293   7.599  0.6441 -1.4239  0.8091
   80CHL1   C15 8344   1.116   2.460   7.723  0.3751  0.5455 -0.1828
   80CHL1  H15A 8345   1.173   2.553   7.705 -0.4801  0.8938 -1.1985
   80CHL1  H15B 8346   1.008   2.485   7.725 -0.2400 -1.7942  1.7664
   80CHL1   C16 8347   1.160   2.375   7.844  0.1125 -0.3791 -0.7665
   80CHL1  H16A 8348   1.219   2.439   7.913  0.5591 -0.9214 -0.6383
   80CHL1  H16B 8349   1.072   2.341   7.902 -1.3310  0.2028 -2.5392
   80CHL1   C17 8350   1.239   2.247   7.797  0.0407 -0.6528 -0.0882
   80CHL1   H17 8351   1.168   2.162   7.798 -0.0834 -0.5452  1.2529
   80CHL1   C13 8352   1.261   2.278   7.649  0.0711  0.0537  0.4814
   80CHL1   C18 8353   1.386   2.358   7.631 -0.4017  0.2549  0.3815
   80CHL1  H18A 8354   1.474   2.301   7.669  0.4085  0.6971 -0.7641
   80CHL1  H18B 8355   1.403   2.372   7.522  0.2053 -3.2656 -0.1162
   80CHL1  H18C 8356   1.382   2.458   7.679 -1.8212  0.5340 -0.2738
   80CHL1   C12 8357   1.257   2.154   7.550 -0.5355 -0.7269 -0.1566
   80CHL1  H12A 8358   1.341   2.086   7.577 -1.3350 -1.7174 -0.0862
   80CHL1  H12B 8359   1.169   2.087   7.559  1.1093 -2.7029  3.5199
   80CHL1   C11 8360   1.264   2.189   7.398 -0.6916  0.2687 -0.4164
   80CHL1  H11A 8361   1.368   2.222   7.384 -0.9438  1.4790  0.4240
   80CHL1  H11B 8362   1.249   2.094   7.342  0.5248  0.0148 -0.3361
   80CHL1    C9 8363   1.161   2.302   7.358  0.4186 -0.1243 -0.2555
   80CHL1    H9 8364   1.062   2.253   7.353 -0.2742  0.6715  2.9547
   80CHL1   C10 8365   1.176   2.361   7.214  0.4978  0.2161  0.4689
   80CHL1   C19 8366   1.308   2.437   7.209 -0.0878  0.3232  0.3890
   80CHL1  H19A 8367   1.335   2.463   7.104 -0.0988  2.9612  0.9686
   80CHL1  H19B 8368   1.316   2.534   7.264 -0.5963 -1.2498  3.4445
   80CHL1  H19C 8369   1.387   2.378   7.261 -0.4133 -1.1034 -0.6805
   80CHL1    C1 8370   1.158   2.246   7.103  0.3874  0.1459 -0.1409
   80CHL1   H1A 8371   1.257   2.195   7.093  0.7379  1.1639 -2.3779
   80CHL1   H1B 8372   1.079   2.174   7.133  2.0987 -2.8685 -2.3602
   80CHL1    C2 8373   1.127   2.293   6.958 -0.5156 -0.2609  0.4448
   80CHL1   H2A 8374   1.107   2.208   6.890  1.5539  0.9697 -1.8591
   80CHL1   H2B 8375   1.224   2.331   6.919  0.1706 -2.5713 -0.2689
   80CHL1   C20 8376   1.349   2.208   7.895 -0.1972 -0.3843 -0.1846
   80CHL1   H20 8377   1.427   2.282   7.867  1.3527 -2.4530 -1.5813
   80CHL1   C21 8378   1.412   2.072   7.852  0.0228 -0.1596 -0.0776
   80CHL1  H21A 8379   1.342   1.987   7.866 -0.3063  0.5101  2.8724
   80CHL1  H21B 8380   1.488   2.047   7.929 -0.8247  3.0715  1.9544
   80CHL1  H21C 8381   1.451   2.077   7.748 -1.6236 -0.3895 -0.7347
   80CHL1   C22 8382   1.323   2.219   8.047  0.6882  0.2785 -0.8216
   80CHL1  H22A 8383   1.400   2.165   8.107  0.0537 -0.6728 -0.8434
   80CHL1  H22B 8384   1.313   2.325   8.081 -2.2366  0.5304 -2.1145
   80CHL1   C23 8385   1.184   2.145   8.090 -0.6129 -0.1625  0.0901
   80CHL1  H23A 8386   1.117   2.183   8.009 -0.1811 -1.8237 -1.1009
   80CHL1  H23B 8387   1.198   2.035   8.080  2.2377  0.0608  0.8848
   80CHL1   C24 8388   1.146   2.164   8.238  0.4748 -0.4324 -0.0470
   80CHL1  H24A 8389   1.220   2.107   8.298 -0.0975 -0.7864  0.3337
   80CHL1  H24B 8390   1.142   2.271   8.267 -1.5043 -0.4070 -0.2623
   80CHL1   C25 8391   1.007   2.105   8.268  0.5007 -0.6704 -0.7023
   80CHL1   H25 8392   1.019   1.996   8.249  0.6156 -0.5917 -1.1054
   80CHL1   C26 8393   0.954   2.138   8.410 -0.1488  0.2893  0.4926
   80CHL1  H26A 8394   0.933   2.244   8.434  0.2416  0.1543  1.4728
   80CHL1  H26B 8395   0.866   2.070   8.421 -1.6427  1.5387 -2.6775
   80CHL1  H26C 8396   1.024   2.106   8.490  0.5134  0.1657 -0.1334
   80CHL1   C27 8397   0.898   2.149   8.170 -0.2694 -0.5795  0.5811
   80CHL1  H27A 8398   0.932   2.156   8.065  0.6362  0.3574  0.9105
   80CHL1  H27B 8399   0.811   2.080   8.169 -0.0412 -0.8673  0.5110
   80CHL1  H27C 8400   0.856   2.248   8.194 -1.2596 -0.7738 -0.2827
   81CHL1    C3 8401   5.480   2.010   6.831 -0.5605  1.0312 -0.1056
   81CHL1    H3 8402   5.451   1.904   6.816  2.0449 -0.0821  1.8049
   81CHL1    O3 8403   5.502   2.070   6.699 -0.2218 -0.6931 -0.1703
   81CHL1   H3' 8404   5.472   2.008   6.632  1.1902 -1.2662 -0.3156
   81CHL1    C4 8405   5.372   2.079   6.909  0.0700 -0.4340  0.8566
   81CHL1   H4A 8406   5.384   2.189   6.902  1.3163 -0.6134 -0.1577
   81CHL1   H4B 8407   5.291   2.069   6.834 -0.2124  0.4247  1.0361
   81CHL1    C5 8408   5.349   2.025   7.046  0.5683  0.2239 -0.6495
   81CHL1    C6 8409   5.239   1.964   7.088 -0.1332 -0.0113 -0.0487
   81CHL1    H6 8410   5.151   1.973   7.022  0.8109 -1.9294 -1.6523
   81CHL1    C7 8411   5.214   1.921   7.227  0.0418 -0.7971  0.6073
   81CHL1   H7A 8412   5.109   1.944   7.253 -0.4795 -1.5050 -0.8185
   81CHL1   H7B 8413   5.232   1.811   7.229  2.1614 -0.5223 -0.0686
   81CHL1    C8 8414   5.316   1.982   7.328  0.0361  0.0128  0.5942
   81CHL1    H8 8415   5.289   2.090   7.335 -1.2560 -0.3788  2.5368
   81CHL1   C14 8416   5.293   1.918   7.464  0.7921  0.1992 -0.1295
   81CHL1   H14 8417   5.312   1.809   7.457  1.7470  0.2566  1.0831
   81CHL1   C15 8418   5.153   1.924   7.527 -0.2987 -0.9368 -0.1167
   81CHL1  H15A 8419   5.116   2.028   7.514 -0.2764 -0.8896  0.1972
   81CHL1  H15B 8420   5.081   1.859   7.472 -1.0179  0.8183 -1.3484
   81CHL1   C16 8421   5.178   1.892   7.672 -0.1745  0.0969 -0.7977
   81CHL1  H16A 8422   5.115   1.952   7.741 -0.8262 -1.9510  0.4990
   81CHL1  H16B 8423   5.160   1.782   7.673 -0.2980  0.1144  0.4449
   81CHL1   C17 8424   5.334   1.915   7.695  0.3642 -0.3438  0.6504
   81CHL1   H17 8425   5.378   1.813   7.689 -0.7151 -0.8073  0.5207
   81CHL1   C13 8426   5.388   1.974   7.570  0.2833 -0.5056 -0.7991
   81CHL1   C18 8427   5.369   2.124   7.582 -0.1025 -0.3611  0.6403
   81CHL1  H18A 8428   5.375   2.167   7.480 -0.2660 -2.9057 -0.5322
   81CHL1  H18B 8429   5.269   2.160   7.615 -0.0319  1.0830 -0.6510
   81CHL1  H18C 8430   5.448   2.174   7.642 -1.2451  1.5457  0.6507
   81CHL1   C12 8431   5.532   1.931   7.520  0.5516  0.1598  0.1854
   81CHL1  H12A 8432   5.604   1.973   7.593  1.3997  1.9235 -1.5426
   81CHL1  H12B 8433   5.536   1.821   7.508  1.1425  0.0930  0.9503
   81CHL1   C11 8434   5.565   1.988   7.380  0.0814  0.5432  0.0846
   81CHL1  H11A 8435   5.597   2.093   7.394  1.1659  0.2472 -0.0488
   81CHL1  H11B 8436   5.660   1.935   7.356 -0.2597 -1.8600  3.3057
   81CHL1    C9 8437   5.456   1.965   7.275  0.2330 -0.6833 -0.1201
   81CHL1    H9 8438   5.469   1.856   7.258  2.9048 -0.6727  1.2466
   81CHL1   C10 8439   5.479   2.041   7.134 -0.5872  0.3798  0.2283
   81CHL1   C19 8440   5.503   2.184   7.167 -0.1464 -0.6676 -0.2845
   81CHL1  H19A 8441   5.492   2.243   7.073  2.2890 -0.5944 -0.6093
   81CHL1  H19B 8442   5.422   2.221   7.232  0.2680  0.3965 -0.3535
   81CHL1  H19C 8443   5.605   2.198   7.209  0.7849 -2.6596 -1.6845
   81CHL1    C1 8444   5.596   1.979   7.056  0.2668 -0.5216  0.2369
   81CHL1   H1A 8445   5.696   1.995   7.101 -0.2236  1.7693  0.6367
   81CHL1   H1B 8446   5.582   1.869   7.053 -1.1351 -0.3494 -1.0845
   81CHL1    C2 8447   5.608   2.039   6.908 -0.5342  0.3789  0.5810
   81CHL1   H2A 8448   5.694   1.995   6.852 -0.4384  0.4461  0.6752
   81CHL1   H2B 8449   5.624   2.149   6.918  0.6480  0.1538  1.2997
   81CHL1   C20 8450   5.389   1.975   7.830  0.2487  0.2386  0.6497
   81CHL1   H20 8451   5.475   2.037   7.796 -0.2384 -0.3040 -1.7839
   81CHL1   C21 8452   5.431   1.854   7.922  0.8264  0.8434  0.2846
   81CHL1  H21A 8453   5.476   1.897   8.015 -0.6329  1.4385  0.7430
   81CHL1  H21B 8454   5.501   1.792   7.863  0.5466  1.5802 -0.8580
   81CHL1  H21C 8455   5.337   1.802   7.949  0.7393  0.5736 -0.5184
   81CHL1   C22 8456   5.293   2.077   7.900  0.4697  1.1953 -0.1597
   81CHL1  H22A 8457   5.256   2.147   7.822  0.1111  0.0354 -1.0624
   81CHL1  H22B 8458   5.202   2.024   7.936  0.5402  1.3557  0.2608
   81CHL1   C23 8459   5.352   2.139   8.025  0.1839 -0.7630 -0.0775
   81CHL1  H23A 8460   5.376   2.057   8.095 -0.0895 -0.4618  0.3749
   81CHL1  H23B 8461   5.436   2.204   7.990 -1.4854  0.5573 -1.8788
   81CHL1   C24 8462   5.257   2.237   8.091 -0.4550 -0.0272 -0.1102
   81CHL1  H24A 8463   5.229   2.307   8.009 -0.3282  0.6207  0.3974
   81CHL1  H24B 8464   5.161   2.188   8.121 -0.4084 -0.6957 -1.0176
   81CHL1   C25 8465   5.317   2.324   8.202  0.4038 -0.3566 -0.5216
   81CHL1   H25 8466   5.420   2.358   8.177  0.5027 -0.2112  0.0519
   81CHL1   C26 8467   5.228   2.449   8.225  0.1160 -0.5940 -1.2709
   81CHL1  H26A 8468   5.269   2.509   8.309 -0.5920 -1.4411 -0.2961
   81CHL1  H26B 8469   5.231   2.521   8.141 -2.4343  0.0305 -0.8961
   81CHL1  H26C 8470   5.123   2.415   8.238  0.3259 -1.4540 -1.7343
   81CHL1   C27 8471   5.319   2.238   8.321 -0.3291  0.3736  0.1899
   81CHL1  H27A 8472   5.354   2.283   8.416  0.8892 -2.5263  1.2234
   81CHL1  H27B 8473   5.220   2.190   8.340  0.0705  0.2083  2.0677
   81CHL1  H27C 8474   5.384   2.152   8.295  0.2035  1.1645 -1.1474
   82CHL1    C3 8475   3.971   3.198   7.053 -0.2318 -0.0184  0.2109
   82CHL1    H3 8476   4.066   3.225   7.104  0.5360  0.9210 -1.6060
   82CHL1    O3 8477   3.977   3.216   6.911  0.2333  0.2658 -0.0413
   82CHL1   H3' 8478   4.021   3.138   6.879  0.0342  0.4343 -0.7580
   82CHL1    C4 8479   3.937   3.048   7.111 -0.0668 -0.3536 -0.6608
   82CHL1   H4A 8480   3.859   2.998   7.050  0.2500  1.1969 -2.4288
   82CHL1   H4B 8481   4.028   2.988   7.088  0.3324 -1.9413  3.9959
   82CHL1    C5 8482   3.927   3.041   7.258 -0.9726 -0.0957 -0.5943
   82CHL1    C6 8483   4.000   2.956   7.337 -0.1219 -0.7836  0.3340
   82CHL1    H6 8484   4.067   2.879   7.297  1.2123  0.4361  0.1906
   82CHL1    C7 8485   3.978   2.961   7.481  0.0548  0.4386  0.1477
   82CHL1   H7A 8486   3.967   2.860   7.525 -1.6750  0.3774 -0.3237
   82CHL1   H7B 8487   4.069   2.997   7.534 -0.7721  2.3689  0.3351
   82CHL1    C8 8488   3.858   3.036   7.540  0.2171 -0.6067  0.8398
   82CHL1    H8 8489   3.762   2.985   7.515  0.4699 -0.0914 -1.4226
   82CHL1   C14 8490   3.875   3.056   7.690 -0.3273 -0.3243 -0.8935
   82CHL1   H14 8491   3.959   3.128   7.700 -1.1881  0.6976 -0.8612
   82CHL1   C15 8492   3.898   2.929   7.761 -0.5026 -0.6338  0.1177
   82CHL1  H15A 8493   3.841   2.846   7.713  1.2705 -0.8226 -1.7826
   82CHL1  H15B 8494   4.006   2.910   7.744 -0.2074  1.2766 -0.3644
   82CHL1   C16 8495   3.849   2.955   7.905 -0.3586  0.0376  1.0089
   82CHL1  H16A 8496   3.768   2.883   7.933  0.5363 -1.7194 -0.7176
   82CHL1  H16B 8497   3.934   2.930   7.972  0.6716  0.9264  0.0707
   82CHL1   C17 8498   3.795   3.103   7.899 -0.0280  0.3536  1.0576
   82CHL1   H17 8499   3.873   3.174   7.931  1.0290 -1.4613  2.7595
   82CHL1   C13 8500   3.757   3.123   7.751  0.2468  0.2626 -0.3489
   82CHL1   C18 8501   3.615   3.056   7.732  0.5604  0.2566 -0.7568
   82CHL1  H18A 8502   3.608   2.956   7.779 -0.6072  1.1524  1.0710
   82CHL1  H18B 8503   3.523   3.107   7.766  0.3028  0.5958 -1.8917
   82CHL1  H18C 8504   3.597   3.041   7.623 -1.2838  3.5400 -1.0367
   82CHL1   C12 8505   3.756   3.267   7.699  0.1782 -0.6075  0.2758
   82CHL1  H12A 8506   3.674   3.328   7.742  0.6531  1.8052 -1.9619
   82CHL1  H12B 8507   3.851   3.318   7.727  0.6117 -1.4939  0.4696
   82CHL1   C11 8508   3.737   3.268   7.546 -0.3403 -0.4180  0.4175
   82CHL1  H11A 8509   3.642   3.230   7.505  0.0199 -1.9496  0.9432
   82CHL1  H11B 8510   3.740   3.373   7.510  3.6651 -0.4833  0.1066
   82CHL1    C9 8511   3.846   3.173   7.470 -0.0035 -0.4508 -1.2120
   82CHL1    H9 8512   3.946   3.220   7.479  0.2139 -1.0388 -0.4452
   82CHL1   C10 8513   3.835   3.155   7.319  0.2998 -0.0460 -0.9877
   82CHL1   C19 8514   3.688   3.120   7.284 -0.4245  0.8797  0.4776
   82CHL1  H19A 8515   3.648   3.042   7.352 -0.6312 -0.7943 -1.4664
   82CHL1  H19B 8516   3.632   3.214   7.304 -2.2817  0.0957 -0.7255
   82CHL1  H19C 8517   3.678   3.097   7.176 -0.2452 -0.2452  0.6837
   82CHL1    C1 8518   3.873   3.289   7.258 -0.8842 -0.2471 -0.0879
   82CHL1   H1A 8519   3.798   3.365   7.289 -0.4243  0.1657  0.0134
   82CHL1   H1B 8520   3.975   3.310   7.295 -1.1782 -0.9670  1.1919
   82CHL1    C2 8521   3.872   3.304   7.104 -0.5398 -0.0369 -0.3352
   82CHL1   H2A 8522   3.909   3.401   7.066  0.5297 -0.6291 -0.8767
   82CHL1   H2B 8523   3.768   3.292   7.065 -0.5993  0.1960 -0.2495
   82CHL1   C20 8524   3.681   3.130   8.006 -0.2660 -0.3372  0.0812
   82CHL1   H20 8525   3.601   3.054   7.991  1.4184 -1.8691 -1.5817
   82CHL1   C21 8526   3.635   3.275   7.987  0.2208 -0.0967  0.1493
   82CHL1  H21A 8527   3.715   3.351   7.978  0.4369 -0.2956  0.3947
   82CHL1  H21B 8528   3.567   3.305   8.069 -0.3727  2.5234 -1.1968
   82CHL1  H21C 8529   3.570   3.278   7.897  2.1927  2.7219 -1.3201
   82CHL1   C22 8530   3.735   3.113   8.149 -0.6475 -0.5415 -0.5558
   82CHL1  H22A 8531   3.772   3.009   8.162  0.6651  0.1505  1.8171
   82CHL1  H22B 8532   3.826   3.175   8.161 -1.6384  0.6081  1.5980
   82CHL1   C23 8533   3.650   3.159   8.263  0.6283  0.4885 -0.4919
   82CHL1  H23A 8534   3.693   3.117   8.357  1.0610  0.1878 -0.8212
   82CHL1  H23B 8535   3.650   3.267   8.289  1.3078  0.3221  0.2505
   82CHL1   C24 8536   3.514   3.089   8.258  1.0641  0.1299 -0.0317
   82CHL1  H24A 8537   3.439   3.150   8.203  0.2177 -0.2723  0.6309
   82CHL1  H24B 8538   3.539   3.002   8.194  2.5999  1.1275 -0.8269
   82CHL1   C25 8539   3.434   3.041   8.385 -0.4139 -0.1689  0.0257
   82CHL1   H25 8540   3.409   3.133   8.444  4.0756  0.6768  1.0264
   82CHL1   C26 8541   3.316   2.948   8.359  0.1182 -0.0937 -0.7971
   82CHL1  H26A 8542   3.228   2.998   8.313  0.3756  0.5169 -0.6283
   82CHL1  H26B 8543   3.338   2.864   8.290  0.0621 -0.1782 -0.7131
   82CHL1  H26C 8544   3.281   2.907   8.456  0.5635 -0.3487 -0.7433
   82CHL1   C27 8545   3.521   2.958   8.479 -0.2018  0.5008  0.0443
   82CHL1  H27A 8546   3.468   2.923   8.570  1.4433 -0.1870  0.7807
   82CHL1  H27B 8547   3.559   2.874   8.417 -1.4732  0.2389 -0.4055
   82CHL1  H27C 8548   3.606   3.014   8.525 -0.5674  0.6955  0.4871
   83CHL1    C3 8549   0.776   4.880   7.004  0.1437  0.2054 -0.5994
   83CHL1    H3 8550   0.870   4.903   7.059 -0.5492 -0.8093  1.0875
   83CHL1    O3 8551   0.776   4.915   6.866 -0.0774 -0.1585 -0.0925
   83CHL1   H3' 8552   0.855   4.871   6.835  0.0014 -2.1487  2.5278
   83CHL1    C4 8553   0.764   4.724   7.037  0.4184 -0.6493  0.2558
   83CHL1   H4A 8554   0.672   4.691   6.985 -1.9019  2.8732  1.7646
   83CHL1   H4B 8555   0.854   4.676   6.992  1.3953  1.2086  0.1070
   83CHL1    C5 8556   0.748   4.688   7.182 -0.0804  0.1341 -0.2294
   83CHL1    C6 8557   0.829   4.598   7.242  0.2501 -0.6281 -0.1292
   83CHL1    H6 8558   0.915   4.561   7.185 -0.4569  0.8531 -2.2926
   83CHL1    C7 8559   0.797   4.551   7.380 -0.1442 -0.2364  0.1036
   83CHL1   H7A 8560   0.792   4.441   7.372 -2.1962 -0.1040 -1.0580
   83CHL1   H7B 8561   0.882   4.586   7.443 -1.3671  1.3780  0.9231
   83CHL1    C8 8562   0.667   4.594   7.449 -0.3685 -0.5637 -0.4971
   83CHL1    H8 8563   0.580   4.538   7.410 -1.6816  0.0639  1.3844
   83CHL1   C14 8564   0.669   4.589   7.599  0.1899  0.6425  0.1284
   83CHL1   H14 8565   0.757   4.643   7.637  0.1553 -0.8785  2.5663
   83CHL1   C15 8566   0.684   4.449   7.664 -0.0149 -0.3749  0.5481
   83CHL1  H15A 8567   0.608   4.378   7.624  0.1015  0.1098 -0.5577
   83CHL1  H15B 8568   0.785   4.406   7.650 -0.3776 -0.5074 -2.3072
   83CHL1   C16 8569   0.662   4.486   7.812 -0.9023 -0.1497 -0.2281
   83CHL1  H16A 8570   0.603   4.404   7.859 -1.2012  0.0835 -0.1950
   83CHL1  H16B 8571   0.764   4.490   7.857 -1.4261 -1.3889  1.1689
   83CHL1   C17 8572   0.595   4.625   7.816 -0.3064  0.1606 -0.3148
   83CHL1   H17 8573   0.680   4.694   7.835  0.0601 -0.4700  0.3574
   83CHL1   C13 8574   0.554   4.658   7.674 -0.6922  0.0782  0.4085
   83CHL1   C18 8575   0.424   4.577   7.645  0.3630 -0.7381  0.0367
   83CHL1  H18A 8576   0.413   4.471   7.677 -0.7399 -1.4913 -2.5610
   83CHL1  H18B 8577   0.344   4.633   7.698  0.6313  1.6876 -1.9416
   83CHL1  H18C 8578   0.391   4.581   7.539  0.0112 -1.5789  0.1054
   83CHL1   C12 8579   0.542   4.808   7.636 -0.6754  0.2834  0.0286
   83CHL1  H12A 8580   0.449   4.849   7.680 -2.1765  0.2139 -2.9064
   83CHL1  H12B 8581   0.636   4.860   7.666 -0.8361  0.7760 -0.3055
   83CHL1   C11 8582   0.528   4.823   7.485 -0.4478 -0.4944 -0.7165
   83CHL1  H11A 8583   0.427   4.796   7.445 -0.5265  0.0705 -0.9220
   83CHL1  H11B 8584   0.545   4.932   7.467 -0.3331 -0.0686  1.7455
   83CHL1    C9 8585   0.634   4.740   7.409  0.2671 -0.1605  0.0426
   83CHL1    H9 8586   0.725   4.786   7.453 -2.1045  4.2593  0.9139
   83CHL1   C10 8587   0.635   4.763   7.258  0.3738 -0.7637  0.1745
   83CHL1   C19 8588   0.492   4.722   7.200 -0.0425  0.3232  0.4582
   83CHL1  H19A 8589   0.503   4.704   7.091 -1.3528  0.5430  0.2783
   83CHL1  H19B 8590   0.466   4.623   7.243 -0.1604 -0.1833 -0.7398
   83CHL1  H19C 8591   0.402   4.786   7.212 -0.7154 -0.2129 -1.3869
   83CHL1    C1 8592   0.651   4.918   7.229 -0.6373 -0.5891  0.1572
   83CHL1   H1A 8593   0.564   4.979   7.260  0.2440  0.9381 -0.2398
   83CHL1   H1B 8594   0.747   4.943   7.278 -0.1395  1.1333 -1.5641
   83CHL1    C2 8595   0.654   4.945   7.072 -0.0664 -0.0798 -0.4954
   83CHL1   H2A 8596   0.648   5.053   7.047 -0.8553 -0.4931 -2.2746
   83CHL1   H2B 8597   0.561   4.905   7.025 -1.5017  2.0875  0.3613
   83CHL1   C20 8598   0.492   4.641   7.932 -0.3443 -0.2121 -0.7642
   83CHL1   H20 8599   0.404   4.573   7.922 -2.3945  2.1588  0.1132
   83CHL1   C21 8600   0.433   4.785   7.945 -0.5677 -0.0099 -0.2674
   83CHL1  H21A 8601   0.522   4.852   7.953  0.5048 -1.3218 -0.7261
   83CHL1  H21B 8602   0.369   4.805   8.034 -0.6732  2.2893 -0.7934
   83CHL1  H21C 8603   0.379   4.820   7.855  0.1269  0.6795 -0.4248
   83CHL1   C22 8604   0.559   4.601   8.065 -1.0699 -0.3181 -0.4101
   83CHL1  H22A 8605   0.601   4.498   8.065  2.0850  0.8471  1.2111
   83CHL1  H22B 8606   0.655   4.655   8.080 -0.8396 -0.7366 -0.3743
   83CHL1   C23 8607   0.462   4.610   8.191  0.0355 -0.5797  0.0945
   83CHL1  H23A 8608   0.449   4.717   8.217 -2.9914 -0.4270 -1.6571
   83CHL1  H23B 8609   0.365   4.571   8.154  0.4652 -0.5627 -1.0787
   83CHL1   C24 8610   0.515   4.516   8.303 -0.1735 -0.1616 -0.1302
   83CHL1  H24A 8611   0.444   4.531   8.387 -0.3293 -0.1195 -0.2677
   83CHL1  H24B 8612   0.513   4.411   8.265  2.5007 -0.2936 -0.0356
   83CHL1   C25 8613   0.660   4.534   8.346 -0.0737 -0.7569  0.6787
   83CHL1   H25 8614   0.725   4.547   8.257 -0.1412  1.3501  0.8842
   83CHL1   C26 8615   0.686   4.656   8.437  0.4896  0.1715 -0.0698
   83CHL1  H26A 8616   0.669   4.754   8.388 -1.0770  1.2826  2.4844
   83CHL1  H26B 8617   0.613   4.664   8.521 -0.1335  0.0274 -0.5895
   83CHL1  H26C 8618   0.784   4.661   8.489 -1.3327  0.0925  3.7047
   83CHL1   C27 8619   0.716   4.401   8.406  0.5794  0.7268 -0.2353
   83CHL1  H27A 8620   0.816   4.416   8.452  1.4199  1.0626 -2.0744
   83CHL1  H27B 8621   0.651   4.365   8.488 -0.7586  2.2181 -0.5693
   83CHL1  H27C 8622   0.720   4.333   8.318 -0.0371  1.6326 -0.9923
   84CHL1    C3 8623   1.825   0.250   6.769 -0.2630 -0.1173 -0.3522
   84CHL1    H3 8624   1.833   0.359   6.787  0.5634 -0.1482 -0.4911
   84CHL1    O3 8625   1.810   0.223   6.634 -0.3184  0.9306 -0.3048
   84CHL1   H3' 8626   1.728   0.264   6.605 -0.1094  0.1028 -2.1819
   84CHL1    C4 8627   1.952   0.191   6.818  0.1324  0.2659  0.3818
   84CHL1   H4A 8628   1.960   0.087   6.780  1.9814  1.2248 -2.1312
   84CHL1   H4B 8629   2.040   0.240   6.770 -0.2583  0.0266 -0.5883
   84CHL1    C5 8630   1.962   0.208   6.970  0.3601 -0.4420 -0.4174
   84CHL1    C6 8631   2.070   0.257   7.024 -0.1029  0.5801 -0.2899
   84CHL1    H6 8632   2.157   0.265   6.957  0.1760  1.5514  0.1707
   84CHL1    C7 8633   2.098   0.278   7.170  0.7114  0.2567 -0.8585
   84CHL1   H7A 8634   2.197   0.241   7.202  0.2718 -1.6510 -1.6013
   84CHL1   H7B 8635   2.101   0.389   7.185  0.0128  0.1487  0.2023
   84CHL1    C8 8636   1.990   0.206   7.254  0.3551 -0.4228  0.5991
   84CHL1    H8 8637   2.019   0.099   7.256  0.6532 -0.3582  0.0162
   84CHL1   C14 8638   1.991   0.259   7.397  1.5854 -0.9826  0.2517
   84CHL1   H14 8639   1.972   0.368   7.381 -0.2213 -0.9670  2.0919
   84CHL1   C15 8640   2.120   0.243   7.474 -0.1867  0.7345 -0.7243
   84CHL1  H15A 8641   2.139   0.134   7.483 -0.3055  0.6516 -1.4069
   84CHL1  H15B 8642   2.213   0.290   7.436  1.7329 -0.0153  2.6275
   84CHL1   C16 8643   2.079   0.283   7.615  0.4204  0.1934  0.6162
   84CHL1  H16A 8644   2.104   0.210   7.695  0.3530 -0.4877  0.0258
   84CHL1  H16B 8645   2.127   0.383   7.620 -0.8644  0.9037 -0.4949
   84CHL1   C17 8646   1.921   0.298   7.617  0.7442  0.0826  0.1433
   84CHL1   H17 8647   1.900   0.404   7.592 -0.2101  0.0940  0.9406
   84CHL1   C13 8648   1.879   0.216   7.495  0.5323  0.7212  0.3505
   84CHL1   C18 8649   1.891   0.064   7.528  0.5192 -1.3574  0.4794
   84CHL1  H18A 8650   1.981   0.041   7.588  0.7547  1.8821  1.5462
   84CHL1  H18B 8651   1.808   0.021   7.589  0.7653 -1.5460  0.6862
   84CHL1  H18C 8652   1.908   0.017   7.429  1.1973  0.6018 -0.3808
   84CHL1   C12 8653   1.748   0.249   7.433 -0.3039  0.9811  0.1891
   84CHL1  H12A 8654   1.671   0.197   7.494  0.5798 -0.4270  0.1459
   84CHL1  H12B 8655   1.725   0.358   7.435 -1.6813  1.1612 -5.5744
   84CHL1   C11 8656   1.737   0.203   7.289  0.4717 -0.7693 -1.1403
   84CHL1  H11A 8657   1.720   0.093   7.295 -0.4096 -0.5976 -0.3023
   84CHL1  H11B 8658   1.644   0.246   7.247 -0.0815 -3.2637 -2.7231
   84CHL1    C9 8659   1.850   0.234   7.193  0.3930 -0.2560 -0.2321
   84CHL1    H9 8660   1.843   0.343   7.170 -3.0777 -0.2929  0.1445
   84CHL1   C10 8661   1.835   0.171   7.056 -0.0881  0.3187  0.5502
   84CHL1   C19 8662   1.828   0.013   7.074  0.6668 -0.0071  0.1371
   84CHL1  H19A 8663   1.728  -0.024   7.103  1.4754 -2.5063 -0.0855
   84CHL1  H19B 8664   1.854  -0.045   6.984 -1.9590  0.1730 -0.8210
   84CHL1  H19C 8665   1.895  -0.025   7.155  0.0621 -1.4296 -0.0052
   84CHL1    C1 8666   1.707   0.220   6.982 -0.0493  0.4305  0.0975
   84CHL1   H1A 8667   1.615   0.171   7.020  0.2350 -1.3747 -1.4172
   84CHL1   H1B 8668   1.706   0.329   7.004 -0.7641  0.4378  0.0652
   84CHL1    C2 8669   1.699   0.196   6.831 -0.6171  0.5195  0.0614
   84CHL1   H2A 8670   1.608   0.248   6.793 -1.5804 -0.9325  0.3130
   84CHL1   H2B 8671   1.684   0.087   6.817 -0.0759  0.6516 -1.7984
   84CHL1   C20 8672   1.858   0.273   7.755  0.4133  0.0671  0.1039
   84CHL1   H20 8673   1.870   0.166   7.785 -1.9408 -0.5216 -0.7869
   84CHL1   C21 8674   1.708   0.315   7.747  0.3111 -0.1664 -0.1468
   84CHL1  H21A 8675   1.662   0.230   7.692  1.6664 -2.4685  2.0422
   84CHL1  H21B 8676   1.706   0.416   7.700 -1.4726  0.4596  1.1846
   84CHL1  H21C 8677   1.662   0.329   7.847 -0.1164 -0.2217 -0.3346
   84CHL1   C22 8678   1.918   0.360   7.864  0.4875  0.6546 -0.4261
   84CHL1  H22A 8679   2.028   0.341   7.867  0.4279  0.2581 -0.7369
   84CHL1  H22B 8680   1.919   0.468   7.838  1.2832  0.6529 -0.4530
   84CHL1   C23 8681   1.861   0.337   8.006  0.0704  0.6788  0.1950
   84CHL1  H23A 8682   1.756   0.371   7.997  0.2867  1.2077 -0.4261
   84CHL1  H23B 8683   1.861   0.227   8.021 -2.1797  0.5003 -0.7299
   84CHL1   C24 8684   1.941   0.396   8.128 -0.2661 -0.0558  0.2497
   84CHL1  H24A 8685   2.040   0.345   8.124 -0.9479 -1.3630 -0.4099
   84CHL1  H24B 8686   1.956   0.506   8.115  2.9629 -0.4286 -0.0591
   84CHL1   C25 8687   1.885   0.359   8.262  0.4934  0.4895 -0.0832
   84CHL1   H25 8688   1.958   0.391   8.339  1.8904 -0.5818 -0.9088
   84CHL1   C26 8689   1.764   0.448   8.291  0.5419  0.9426 -0.1413
   84CHL1  H26A 8690   1.680   0.425   8.221 -0.6017  1.4956  1.0061
   84CHL1  H26B 8691   1.715   0.431   8.389 -1.1536  3.9240 -0.3440
   84CHL1  H26C 8692   1.799   0.553   8.286  1.4557  0.7575  1.6966
   84CHL1   C27 8693   1.855   0.206   8.285 -0.0688  0.2567 -0.2455
   84CHL1  H27A 8694   1.948   0.151   8.262 -1.9791 -2.7384 -1.5127
   84CHL1  H27B 8695   1.841   0.183   8.392 -0.2209  1.1426 -0.0681
   84CHL1  H27C 8696   1.770   0.166   8.225 -2.3706  1.4748  2.0171
   85CHL1    C3 8697   3.195   5.472   6.706  0.2408 -0.2781 -0.7239
   85CHL1    H3 8698   3.101   5.524   6.734  1.6595  0.5615  3.1018
   85CHL1    O3 8699   3.239   5.510   6.576 -0.2055  0.2411 -0.0742
   85CHL1   H3' 8700   3.322   5.464   6.565 -0.1614  0.7371 -2.7358
   85CHL1    C4 8701   3.302   5.511   6.809  0.5324  0.2551 -0.8143
   85CHL1   H4A 8702   3.405   5.472   6.801  1.3519  1.5641  1.9809
   85CHL1   H4B 8703   3.309   5.622   6.808  0.4283  0.5887  4.6645
   85CHL1    C5 8704   3.251   5.474   6.947  1.2141  0.3015 -0.4527
   85CHL1    C6 8705   3.213   5.565   7.041  0.5318  1.1031 -0.8177
   85CHL1    H6 8706   3.226   5.673   7.022  2.2829  0.8340 -1.2946
   85CHL1    C7 8707   3.170   5.517   7.176  0.8555 -0.0725  0.3374
   85CHL1   H7A 8708   3.207   5.597   7.244 -0.1063  2.2609 -1.7383
   85CHL1   H7B 8709   3.060   5.527   7.177  0.8266 -0.2093 -0.5589
   85CHL1    C8 8710   3.218   5.376   7.217 -0.0673  0.1497  0.0717
   85CHL1    H8 8711   3.328   5.370   7.228 -0.0489 -0.0112 -0.2060
   85CHL1   C14 8712   3.151   5.331   7.346  0.1780 -0.7318 -0.2939
   85CHL1   H14 8713   3.041   5.345   7.337 -0.0886 -2.0430  0.7198
   85CHL1   C15 8714   3.175   5.412   7.473  0.0195  0.4074  0.2741
   85CHL1  H15A 8715   3.281   5.447   7.470  0.6432 -1.4126 -1.6608
   85CHL1  H15B 8716   3.112   5.503   7.468  0.5705  0.8846  1.6620
   85CHL1   C16 8717   3.135   5.323   7.587 -0.1443  0.4226  0.3574
   85CHL1  H16A 8718   3.227   5.300   7.645 -1.3187  0.1687  2.1820
   85CHL1  H16B 8719   3.059   5.377   7.647  0.5067 -0.7033  2.2680
   85CHL1   C17 8720   3.093   5.180   7.519  0.3228  0.1567  0.3096
   85CHL1   H17 8721   2.985   5.193   7.497  0.4629 -0.2288 -0.6405
   85CHL1   C13 8722   3.156   5.184   7.381  0.0450  0.3942 -0.6287
   85CHL1   C18 8723   3.300   5.137   7.402 -0.4365 -0.0285 -0.2649
   85CHL1  H18A 8724   3.345   5.196   7.484 -0.8717 -0.5187  0.3392
   85CHL1  H18B 8725   3.297   5.028   7.426 -2.4680 -0.6674 -2.8535
   85CHL1  H18C 8726   3.365   5.145   7.312  0.5619 -0.3122  0.4267
   85CHL1   C12 8727   3.090   5.111   7.261  0.3625 -0.1454 -0.1008
   85CHL1  H12A 8728   3.092   5.002   7.282  1.0362 -0.4608 -1.6451
   85CHL1  H12B 8729   2.979   5.120   7.260  0.4147  0.9197 -2.4015
   85CHL1   C11 8730   3.168   5.134   7.126 -0.4444  0.4329  0.5257
   85CHL1  H11A 8731   3.271   5.095   7.136 -0.0605  1.6277  1.3238
   85CHL1  H11B 8732   3.103   5.084   7.050 -1.8179  0.4736  1.6360
   85CHL1    C9 8733   3.176   5.287   7.092 -0.1691  1.0958 -0.5414
   85CHL1    H9 8734   3.067   5.300   7.074 -0.4064  0.5383  0.4224
   85CHL1   C10 8735   3.243   5.322   6.960  0.0123  0.2391  0.6640
   85CHL1   C19 8736   3.386   5.260   6.965 -0.8501 -0.8137  0.1807
   85CHL1  H19A 8737   3.453   5.278   6.879 -0.6704  2.4754  0.8926
   85CHL1  H19B 8738   3.428   5.309   7.055  0.0033 -1.4217  0.1304
   85CHL1  H19C 8739   3.374   5.150   6.975 -2.1508 -0.7391 -0.3940
   85CHL1    C1 8740   3.166   5.256   6.846 -0.3645  0.0105  0.2791
   85CHL1   H1A 8741   3.185   5.146   6.845 -1.3637 -0.2147 -1.9923
   85CHL1   H1B 8742   3.056   5.269   6.862 -0.4029  0.7898 -0.5765
   85CHL1    C2 8743   3.192   5.316   6.704  0.7289 -0.5347  0.3024
   85CHL1   H2A 8744   3.123   5.272   6.629  1.4090  0.3224 -0.8493
   85CHL1   H2B 8745   3.286   5.274   6.663 -0.9934 -3.6570 -0.7782
   85CHL1   C20 8746   3.117   5.060   7.613 -0.5112  0.0446 -0.7606
   85CHL1   H20 8747   3.225   5.035   7.609 -0.8031 -1.1187 -2.3062
   85CHL1   C21 8748   3.038   4.933   7.565 -0.2129 -0.1172 -0.4124
   85CHL1  H21A 8749   3.026   4.854   7.641 -1.5010 -1.4019 -1.8798
   85CHL1  H21B 8750   3.080   4.883   7.475 -1.4040 -2.0178  0.0466
   85CHL1  H21C 8751   2.938   4.959   7.524  0.2830 -0.1050 -1.6804
   85CHL1   C22 8752   3.094   5.096   7.762 -0.0129 -0.2474  0.0436
   85CHL1  H22A 8753   3.110   4.998   7.810  0.0248  0.2905  1.1477
   85CHL1  H22B 8754   3.171   5.162   7.807  0.9987 -1.6248  0.4059
   85CHL1   C23 8755   2.951   5.132   7.806 -0.2103  0.6504  0.1600
   85CHL1  H23A 8756   2.912   5.230   7.772  0.2093  0.8518  0.2514
   85CHL1  H23B 8757   2.886   5.045   7.785 -1.3507  1.6355 -0.5278
   85CHL1   C24 8758   2.942   5.151   7.956 -0.0823 -0.0844  0.6372
   85CHL1  H24A 8759   2.988   5.064   8.006 -1.4041 -0.9778  0.3421
   85CHL1  H24B 8760   3.010   5.233   7.990  0.8150 -1.2209  1.6493
   85CHL1   C25 8761   2.801   5.166   8.020 -0.3379 -0.0913 -0.1952
   85CHL1   H25 8762   2.768   5.265   7.981 -0.3278 -1.0700 -2.8738
   85CHL1   C26 8763   2.700   5.060   7.971 -0.1440  0.4659 -0.2200
   85CHL1  H26A 8764   2.608   5.057   8.034 -0.5981  0.6850 -0.8628
   85CHL1  H26B 8765   2.676   5.074   7.864  1.8830 -1.7020 -1.0274
   85CHL1  H26C 8766   2.756   4.965   7.985 -0.2735  0.3194 -0.6699
   85CHL1   C27 8767   2.822   5.180   8.171 -0.2011  0.4705  0.3330
   85CHL1  H27A 8768   2.846   5.074   8.194  1.6065  0.4230 -1.4571
   85CHL1  H27B 8769   2.916   5.230   8.203  0.9909 -2.4746  1.8899
   85CHL1  H27C 8770   2.735   5.203   8.235 -0.0957 -2.9321  1.9350
   86CHL1    C3 8771   5.238   2.478   6.957  0.1948 -0.2188 -0.1085
   86CHL1    H3 8772   5.335   2.444   6.999 -0.1704  1.3129  2.1357
   86CHL1    O3 8773   5.232   2.456   6.819 -0.0397 -0.4248 -0.2419
   86CHL1   H3' 8774   5.153   2.507   6.797 -0.5215 -0.2958  1.6257
   86CHL1    C4 8775   5.121   2.400   7.030 -0.8500  0.2164  0.7780
   86CHL1   H4A 8776   5.027   2.428   6.980 -2.6467 -0.3662  3.5870
   86CHL1   H4B 8777   5.146   2.294   7.009  0.4200  0.6069  0.1993
   86CHL1    C5 8778   5.119   2.429   7.177 -0.3637 -0.7212 -0.6813
   86CHL1    C6 8779   5.140   2.339   7.274 -0.4875 -0.2120 -1.0639
   86CHL1    H6 8780   5.156   2.233   7.250  1.0552 -0.1359 -0.4910
   86CHL1    C7 8781   5.126   2.358   7.427  0.0502  0.6464 -0.2081
   86CHL1   H7A 8782   5.076   2.270   7.472 -0.8372 -0.4761 -3.1414
   86CHL1   H7B 8783   5.227   2.351   7.472  0.3033 -0.9849 -0.9687
   86CHL1    C8 8784   5.064   2.496   7.453 -0.5390  0.0346  0.5293
   86CHL1    H8 8785   4.954   2.492   7.434 -0.5638  0.7636  0.5047
   86CHL1   C14 8786   5.096   2.530   7.594 -0.1813 -0.0706 -0.5170
   86CHL1   H14 8787   5.206   2.543   7.603 -0.2671 -0.4053  1.8143
   86CHL1   C15 8788   5.054   2.429   7.705 -0.7407 -0.5389 -0.2614
   86CHL1  H15A 8789   4.960   2.378   7.675 -0.8184  1.0200 -3.0045
   86CHL1  H15B 8790   5.135   2.354   7.713  2.2616  2.2008 -2.3246
   86CHL1   C16 8791   5.038   2.512   7.835  0.3250 -0.3227 -0.0233
   86CHL1  H16A 8792   4.930   2.513   7.863  0.0184  2.9687 -0.9459
   86CHL1  H16B 8793   5.105   2.484   7.919 -0.2328  1.4735  1.0807
   86CHL1   C17 8794   5.071   2.655   7.793  0.7447  0.3045 -0.1370
   86CHL1   H17 8795   5.182   2.661   7.792  0.8034  0.2630  1.9308
   86CHL1   C13 8796   5.041   2.662   7.644  0.1375 -0.6844  0.0024
   86CHL1   C18 8797   4.891   2.669   7.624  0.4142  0.2125 -0.1972
   86CHL1  H18A 8798   4.850   2.756   7.679 -1.1790  0.4423 -1.6576
   86CHL1  H18B 8799   4.848   2.673   7.521 -1.2270  1.9595  0.5126
   86CHL1  H18C 8800   4.842   2.582   7.672 -0.7242  0.0251 -1.6351
   86CHL1   C12 8801   5.099   2.780   7.560 -1.2417  0.0900 -0.7957
   86CHL1  H12A 8802   5.042   2.874   7.579 -2.5121 -0.1142 -3.2536
   86CHL1  H12B 8803   5.205   2.804   7.583 -0.8063 -0.2592 -2.3547
   86CHL1   C11 8804   5.085   2.750   7.411  0.3628 -0.2357 -0.4537
   86CHL1  H11A 8805   4.979   2.762   7.381 -0.0494 -2.0446  0.1629
   86CHL1  H11B 8806   5.135   2.833   7.357  1.6207 -1.1856 -0.8059
   86CHL1    C9 8807   5.128   2.603   7.365 -0.1757 -0.0370  0.0550
   86CHL1    H9 8808   5.234   2.597   7.396  0.1498  1.9164 -0.5367
   86CHL1   C10 8809   5.110   2.578   7.211 -0.3148 -0.1775 -0.1538
   86CHL1   C19 8810   4.969   2.629   7.162  0.0278  0.6384  0.6279
   86CHL1  H19A 8811   4.891   2.563   7.206 -1.0140  0.8293 -0.8499
   86CHL1  H19B 8812   4.961   2.739   7.175  0.8976  1.0707 -1.9711
   86CHL1  H19C 8813   4.964   2.615   7.052  1.0766  1.3095  0.4874
   86CHL1    C1 8814   5.227   2.660   7.133  0.1544 -0.2197  0.3517
   86CHL1   H1A 8815   5.198   2.765   7.155 -2.7873 -1.1668  1.3756
   86CHL1   H1B 8816   5.329   2.633   7.170  0.1172  1.1475  1.5455
   86CHL1    C2 8817   5.223   2.636   6.980  0.4482  0.2041 -0.5710
   86CHL1   H2A 8818   5.310   2.681   6.929  1.3772 -0.1277  0.6566
   86CHL1   H2B 8819   5.136   2.682   6.930 -0.6940 -0.8628  0.3821
   86CHL1   C20 8820   5.016   2.774   7.870  0.4251 -0.1742 -0.3314
   86CHL1   H20 8821   4.991   2.868   7.816 -0.7649  1.1831  2.3633
   86CHL1   C21 8822   5.141   2.813   7.961 -0.5585  1.2580  0.0327
   86CHL1  H21A 8823   5.232   2.831   7.900  0.2348  1.2443  1.1764
   86CHL1  H21B 8824   5.149   2.740   8.044  0.0428  0.6453 -0.5584
   86CHL1  H21C 8825   5.111   2.907   8.012 -1.1078  0.9845  0.2251
   86CHL1   C22 8826   4.891   2.751   7.955 -0.2081  0.3727  0.7549
   86CHL1  H22A 8827   4.809   2.707   7.894  2.1158 -0.2063 -2.2152
   86CHL1  H22B 8828   4.909   2.670   8.029  1.0165 -3.2433 -3.1034
   86CHL1   C23 8829   4.846   2.875   8.032  0.3942  0.0735 -0.8541
   86CHL1  H23A 8830   4.926   2.920   8.096 -0.8917  0.9980  0.1444
   86CHL1  H23B 8831   4.808   2.958   7.969 -0.4735  2.1693  2.2001
   86CHL1   C24 8832   4.729   2.819   8.122  0.1622 -0.1171  0.2229
   86CHL1  H24A 8833   4.666   2.741   8.074  0.5504 -0.2888 -0.0134
   86CHL1  H24B 8834   4.784   2.764   8.201  0.2604 -0.6237 -0.1937
   86CHL1   C25 8835   4.640   2.924   8.197  0.9799 -0.0367  0.2271
   86CHL1   H25 8836   4.613   3.002   8.122  1.9443 -1.1027 -1.2837
   86CHL1   C26 8837   4.505   2.848   8.229 -0.7135  0.7769  0.1115
   86CHL1  H26A 8838   4.452   2.804   8.142  1.0139 -1.8173  0.2356
   86CHL1  H26B 8839   4.527   2.757   8.290  0.9217  1.2820  0.3169
   86CHL1  H26C 8840   4.426   2.905   8.281 -2.5591 -1.1785 -0.4191
   86CHL1   C27 8841   4.696   2.977   8.326 -0.2949 -0.2440 -0.2374
   86CHL1  H27A 8842   4.747   2.891   8.375  0.0744 -0.6524 -1.3199
   86CHL1  H27B 8843   4.779   3.049   8.314  1.3640 -2.2481 -1.4296
   86CHL1  H27C 8844   4.604   3.012   8.378 -1.2172 -0.4743 -1.6527
   87CHL1    C3 8845   4.372   0.467   6.863 -0.0113 -0.2178 -1.2227
   87CHL1    H3 8846   4.406   0.362   6.874 -0.4909 -0.2954 -0.3846
   87CHL1    O3 8847   4.388   0.498   6.730  0.2149 -0.0843  0.0174
   87CHL1   H3' 8848   4.455   0.436   6.699  0.2360  1.3348 -3.1321
   87CHL1    C4 8849   4.235   0.498   6.914 -0.0011 -0.5980  0.6884
   87CHL1   H4A 8850   4.214   0.604   6.887  1.5735 -0.8892 -2.0718
   87CHL1   H4B 8851   4.152   0.444   6.865 -1.8688  2.2919  0.4407
   87CHL1    C5 8852   4.221   0.482   7.062 -0.4911  0.1136  0.4512
   87CHL1    C6 8853   4.133   0.398   7.115 -0.2728 -0.3388 -0.4761
   87CHL1    H6 8854   4.064   0.340   7.053 -0.6262  2.2149 -2.6674
   87CHL1    C7 8855   4.116   0.379   7.268 -1.0221 -0.4349  0.4686
   87CHL1   H7A 8856   4.009   0.390   7.297 -0.7222 -1.2422  1.9839
   87CHL1   H7B 8857   4.151   0.278   7.297 -1.4151 -0.3137  1.4097
   87CHL1    C8 8858   4.192   0.484   7.357 -0.7845 -0.4018  0.1209
   87CHL1    H8 8859   4.130   0.576   7.349 -2.0995 -1.1376  1.4022
   87CHL1   C14 8860   4.203   0.446   7.505  0.4446  0.6224 -0.5045
   87CHL1   H14 8861   4.268   0.355   7.511 -1.4852 -0.7190  2.2829
   87CHL1   C15 8862   4.076   0.392   7.577 -0.4460  0.3707 -0.0612
   87CHL1  H15A 8863   3.985   0.450   7.550 -0.5209 -0.9014 -2.8125
   87CHL1  H15B 8864   4.054   0.285   7.558 -4.2817  0.8003  0.9823
   87CHL1   C16 8865   4.106   0.423   7.724 -0.3929  0.3657 -0.2232
   87CHL1  H16A 8866   4.034   0.499   7.761 -1.4543 -1.6508  2.1218
   87CHL1  H16B 8867   4.092   0.339   7.794  1.9137  1.8622  2.2514
   87CHL1   C17 8868   4.252   0.479   7.733 -0.6013  0.1120  0.1394
   87CHL1   H17 8869   4.324   0.394   7.740 -0.3517  0.3506  0.5161
   87CHL1   C13 8870   4.274   0.542   7.594  0.0640 -0.0901 -1.2973
   87CHL1   C18 8871   4.203   0.677   7.601  0.3183  0.0560  0.3316
   87CHL1  H18A 8872   4.255   0.739   7.678  1.3617  0.4964 -0.7033
   87CHL1  H18B 8873   4.222   0.731   7.506 -1.3063 -0.7791 -0.5056
   87CHL1  H18C 8874   4.092   0.673   7.608 -0.0486  1.3274 -3.0983
   87CHL1   C12 8875   4.419   0.553   7.545 -0.0367 -0.2728 -1.5479
   87CHL1  H12A 8876   4.464   0.637   7.602 -1.3320 -0.4182 -0.2544
   87CHL1  H12B 8877   4.473   0.456   7.555  1.6276  0.4773 -2.7792
   87CHL1   C11 8878   4.435   0.594   7.394  0.2277 -0.9314  0.1940
   87CHL1  H11A 8879   4.411   0.703   7.395  1.0415 -0.7440 -0.2852
   87CHL1  H11B 8880   4.542   0.590   7.364  0.8434  1.3903  1.8106
   87CHL1    C9 8881   4.334   0.517   7.301 -0.1383 -0.3671  1.2242
   87CHL1    H9 8882   4.377   0.415   7.300  0.9649  0.0442  3.0143
   87CHL1   C10 8883   4.331   0.556   7.146  0.2706  0.3394 -0.3008
   87CHL1   C19 8884   4.310   0.711   7.131 -0.5137 -0.3119 -0.4380
   87CHL1  H19A 8885   4.242   0.740   7.214 -1.3622 -4.1026  0.4038
   87CHL1  H19B 8886   4.412   0.751   7.150  0.0484 -1.8939  0.0653
   87CHL1  H19C 8887   4.260   0.746   7.038 -1.8391  0.2798  0.4590
   87CHL1    C1 8888   4.470   0.516   7.090 -0.0758  0.2201 -0.2725
   87CHL1   H1A 8889   4.551   0.576   7.137  0.6846 -0.7431 -0.3238
   87CHL1   H1B 8890   4.485   0.408   7.112  0.0070  0.1323 -0.7513
   87CHL1    C2 8891   4.476   0.540   6.945  0.4053  0.3966  0.1989
   87CHL1   H2A 8892   4.576   0.524   6.900  0.6654  0.3402  0.7898
   87CHL1   H2B 8893   4.457   0.649   6.933 -0.4288  0.2115 -0.2707
   87CHL1   C20 8894   4.276   0.550   7.869 -0.2308  0.8966 -0.3562
   87CHL1   H20 8895   4.210   0.640   7.867  0.4591  1.4330  0.5061
   87CHL1   C21 8896   4.427   0.590   7.882 -0.2516 -1.0840  0.2279
   87CHL1  H21A 8897   4.495   0.508   7.850  1.7270  0.2324  0.9549
   87CHL1  H21B 8898   4.452   0.644   7.976  0.0687  0.4399 -0.6965
   87CHL1  H21C 8899   4.445   0.668   7.805  1.4383  0.2038  1.8386
   87CHL1   C22 8900   4.235   0.472   7.999 -0.2634 -0.1913  0.3242
   87CHL1  H22A 8901   4.130   0.437   7.994 -0.1056 -1.0052  1.9460
   87CHL1  H22B 8902   4.302   0.384   7.989 -1.5379 -1.0325 -1.2240
   87CHL1   C23 8903   4.263   0.533   8.136 -0.2115 -0.0605 -0.0304
   87CHL1  H23A 8904   4.372   0.545   8.152 -0.3455 -0.4119  1.2962
   87CHL1  H23B 8905   4.211   0.631   8.131  2.0372  1.2985  1.5029
   87CHL1   C24 8906   4.209   0.452   8.253 -0.1958 -0.0514  0.5952
   87CHL1  H24A 8907   4.098   0.460   8.258 -0.1547  0.7452  0.3183
   87CHL1  H24B 8908   4.251   0.350   8.239  0.7827  0.5763 -1.2433
   87CHL1   C25 8909   4.273   0.499   8.386  0.1410 -0.5998 -0.7714
   87CHL1   H25 8910   4.383   0.504   8.378  0.4346 -1.6257  1.7262
   87CHL1   C26 8911   4.204   0.625   8.426 -0.6971  0.8697 -0.0834
   87CHL1  H26A 8912   4.095   0.617   8.440 -0.4199  0.3473  2.1451
   87CHL1  H26B 8913   4.250   0.651   8.524 -1.0884 -0.8257  0.5764
   87CHL1  H26C 8914   4.230   0.699   8.347  2.6883 -0.0013  0.0519
   87CHL1   C27 8915   4.244   0.395   8.497 -0.5006 -0.0806 -0.0807
   87CHL1  H27A 8916   4.290   0.420   8.595  0.8136  0.2218 -0.7414
   87CHL1  H27B 8917   4.135   0.379   8.500 -0.4107 -0.8297 -0.5498
   87CHL1  H27C 8918   4.276   0.293   8.468 -1.0760 -0.1769 -0.3871
   88CHL1    C3 8919   6.821   0.362   6.806  0.1595 -1.0243 -0.4817
   88CHL1    H3 8920   6.850   0.469   6.792 -2.9651 -0.1743 -1.3181
   88CHL1    O3 8921   6.821   0.291   6.687 -0.4234  0.0844 -0.2901
   88CHL1   H3' 8922   6.788   0.204   6.713  0.7601 -1.1238 -2.4906
   88CHL1    C4 8923   6.911   0.295   6.910 -0.2201  0.1792 -0.8052
   88CHL1   H4A 8924   6.862   0.196   6.916 -1.3379  0.6858 -1.3460
   88CHL1   H4B 8925   7.015   0.296   6.870  0.1730  2.4202  0.1074
   88CHL1    C5 8926   6.916   0.358   7.047  0.3190  0.3294 -0.0832
   88CHL1    C6 8927   7.035   0.389   7.100 -0.1139  1.0150 -0.1054
   88CHL1    H6 8928   7.130   0.370   7.048  0.0994 -0.9270  0.9106
   88CHL1    C7 8929   7.046   0.449   7.239  1.0597  1.0468 -0.5792
   88CHL1   H7A 8930   7.127   0.397   7.296  0.6258  2.8964  1.9068
   88CHL1   H7B 8931   7.072   0.557   7.231  0.6031  1.1197 -1.1468
   88CHL1    C8 8932   6.903   0.445   7.323 -0.5632  0.0398  0.3293
   88CHL1    H8 8933   6.899   0.339   7.357  1.0859 -0.3683 -0.6237
   88CHL1   C14 8934   6.908   0.534   7.440  0.2237  0.7741 -0.7184
   88CHL1   H14 8935   6.923   0.633   7.392  1.3619  0.7036 -0.5391
   88CHL1   C15 8936   7.036   0.527   7.528 -0.0087  0.3996 -0.5032
   88CHL1  H15A 8937   7.053   0.423   7.565 -1.5811 -0.1175 -1.1352
   88CHL1  H15B 8938   7.130   0.562   7.481  1.2044 -1.3508  0.4758
   88CHL1   C16 8939   6.996   0.604   7.654  0.3438 -0.5019 -0.1770
   88CHL1  H16A 8940   7.020   0.540   7.742 -1.6885  0.5903  1.2482
   88CHL1  H16B 8941   7.041   0.704   7.668 -1.2015 -0.0457  1.8992
   88CHL1   C17 8942   6.837   0.634   7.636 -1.2389  0.1044 -0.2577
   88CHL1   H17 8943   6.836   0.738   7.599  0.5439  0.0364 -0.6148
   88CHL1   C13 8944   6.780   0.541   7.528 -0.0702  0.2548 -0.5609
   88CHL1   C18 8945   6.745   0.404   7.585 -0.5309  0.4992 -0.3725
   88CHL1  H18A 8946   6.663   0.413   7.660 -0.6983  0.5566 -0.5641
   88CHL1  H18B 8947   6.698   0.338   7.508  0.2546  0.8937 -1.1983
   88CHL1  H18C 8948   6.835   0.356   7.630 -1.0345  0.4673  0.6392
   88CHL1   C12 8949   6.671   0.596   7.427 -0.6585  0.0729  0.2859
   88CHL1  H12A 8950   6.578   0.592   7.488  0.8829 -2.9083  2.7794
   88CHL1  H12B 8951   6.713   0.691   7.388 -0.3476 -0.8323 -1.7069
   88CHL1   C11 8952   6.653   0.509   7.303 -0.7783 -0.5608 -0.0020
   88CHL1  H11A 8953   6.601   0.417   7.337 -2.8388  0.9498  1.1662
   88CHL1  H11B 8954   6.578   0.560   7.239  1.1997  3.7557  0.8069
   88CHL1    C9 8955   6.787   0.478   7.232  0.2233 -0.5811 -0.5780
   88CHL1    H9 8956   6.817   0.578   7.196 -0.0607 -0.6807 -1.1065
   88CHL1   C10 8957   6.774   0.384   7.112 -0.3270  0.2161 -0.0615
   88CHL1   C19 8958   6.712   0.250   7.155 -0.3632 -0.2354  1.4137
   88CHL1  H19A 8959   6.616   0.270   7.206 -0.3174  1.0697  1.0186
   88CHL1  H19B 8960   6.687   0.185   7.068  1.7683  0.2214  0.3969
   88CHL1  H19C 8961   6.775   0.191   7.226 -1.1657 -0.4304  1.9715
   88CHL1    C1 8962   6.687   0.450   7.004  0.2377  0.1088 -0.8001
   88CHL1   H1A 8963   6.582   0.456   7.042 -0.5881 -3.1532 -2.2128
   88CHL1   H1B 8964   6.713   0.557   6.989 -0.2947  0.6767  1.8514
   88CHL1    C2 8965   6.675   0.377   6.865 -0.3792  0.4324  1.1274
   88CHL1   H2A 8966   6.614   0.436   6.793  0.6370 -1.2806 -1.2567
   88CHL1   H2B 8967   6.633   0.274   6.864  1.4692 -0.3638 -0.6671
   88CHL1   C20 8968   6.780   0.634   7.775  0.2272 -0.3499 -0.0718
   88CHL1   H20 8969   6.775   0.527   7.803  3.7932 -0.9063 -1.0762
   88CHL1   C21 8970   6.631   0.688   7.762 -0.5547  0.3036  0.0332
   88CHL1  H21A 8971   6.569   0.691   7.854 -0.8870  1.8159 -0.2089
   88CHL1  H21B 8972   6.571   0.653   7.675  1.4924  1.9257 -2.1726
   88CHL1  H21C 8973   6.651   0.795   7.741  0.3131  0.2064  0.3206
   88CHL1   C22 8974   6.860   0.706   7.885  0.6157  0.2524  0.0580
   88CHL1  H22A 8975   6.961   0.662   7.899 -0.7041 -2.7975  0.9788
   88CHL1  H22B 8976   6.872   0.813   7.858  0.1180 -0.0862 -1.6731
   88CHL1   C23 8977   6.797   0.691   8.019  0.2895  0.3684  0.7137
   88CHL1  H23A 8978   6.724   0.774   8.028  0.1233  0.5725 -1.7007
   88CHL1  H23B 8979   6.746   0.593   8.030 -2.4449  1.3308 -1.9691
   88CHL1   C24 8980   6.896   0.706   8.131  0.2718 -0.3849  0.4358
   88CHL1  H24A 8981   6.991   0.649   8.128 -0.5910 -2.4503  4.5836
   88CHL1  H24B 8982   6.910   0.816   8.130 -2.1558 -0.0094 -1.3500
   88CHL1   C25 8983   6.832   0.683   8.270  0.1095 -0.0677  0.7242
   88CHL1   H25 8984   6.722   0.679   8.257 -0.0512 -2.8105  2.1675
   88CHL1   C26 8985   6.879   0.550   8.328 -0.1164 -0.7235 -0.2538
   88CHL1  H26A 8986   6.839   0.475   8.257 -1.1027  0.2961 -0.8244
   88CHL1  H26B 8987   6.988   0.541   8.349 -0.2733  0.0632  1.0427
   88CHL1  H26C 8988   6.834   0.522   8.425  3.4624 -4.3948  0.6204
   88CHL1   C27 8989   6.856   0.803   8.367 -0.2532  0.4664  0.4569
   88CHL1  H27A 8990   6.966   0.817   8.379 -0.4842  1.9822  1.0310
   88CHL1  H27B 8991   6.832   0.904   8.325  3.1652  1.2175  0.0275
   88CHL1  H27C 8992   6.812   0.787   8.467 -1.5500  0.4017 -0.1055
   89CHL1    C3 8993   6.084   2.356   7.011 -0.4211  0.0008  0.6038
   89CHL1    H3 8994   6.019   2.446   7.010  1.0787  1.1204 -0.4463
   89CHL1    O3 8995   6.150   2.352   6.884 -0.1828  0.0709 -0.0933
   89CHL1   H3' 8996   6.105   2.285   6.830 -1.6742  0.3017  0.7994
   89CHL1    C4 8997   6.192   2.364   7.118 -0.3569 -0.2958 -0.3498
   89CHL1   H4A 8998   6.274   2.293   7.097  2.9612  3.3235 -0.8150
   89CHL1   H4B 8999   6.244   2.461   7.103  0.0446 -0.5948 -0.8879
   89CHL1    C5 9000   6.142   2.353   7.257 -0.2217 -0.1940 -0.5109
   89CHL1    C6 9001   6.162   2.448   7.352 -0.6367  0.5001 -0.1537
   89CHL1    H6 9002   6.241   2.524   7.341  0.4008 -0.9069 -3.7839
   89CHL1    C7 9003   6.097   2.437   7.485  0.2201 -0.6830 -0.2609
   89CHL1   H7A 9004   6.153   2.478   7.571 -1.0269 -0.1994  0.3502
   89CHL1   H7B 9005   5.997   2.486   7.481 -0.3674 -1.8633 -0.7793
   89CHL1    C8 9006   6.058   2.287   7.517  0.1866  0.1000 -0.2289
   89CHL1    H8 9007   6.149   2.224   7.528  2.0803  2.6214 -0.7095
   89CHL1   C14 9008   5.981   2.286   7.648  0.7473  0.3322 -0.7390
   89CHL1   H14 9009   5.881   2.332   7.634  0.0228  0.2162  2.9907
   89CHL1   C15 9010   6.041   2.362   7.767 -0.2404 -0.6754 -0.0042
   89CHL1  H15A 9011   6.152   2.364   7.772 -0.1393 -1.4808 -1.2972
   89CHL1  H15B 9012   6.021   2.470   7.752 -0.1321 -0.6540  0.0070
   89CHL1   C16 9013   5.976   2.298   7.883  0.3411  0.6385  0.4360
   89CHL1  H16A 9014   6.048   2.264   7.960  0.7686  0.3898 -0.0593
   89CHL1  H16B 9015   5.914   2.378   7.928 -0.7649  0.0637 -0.0255
   89CHL1   C17 9016   5.877   2.188   7.837 -0.5777  0.3865 -0.1557
   89CHL1   H17 9017   5.778   2.235   7.818 -1.0031 -0.3147  0.2900
   89CHL1   C13 9018   5.943   2.140   7.711 -0.0816  0.0983 -0.6823
   89CHL1   C18 9019   6.068   2.053   7.746 -0.5977  0.6450  0.8950
   89CHL1  H18A 9020   6.038   1.952   7.782 -2.5872  1.0540  0.4833
   89CHL1  H18B 9021   6.136   2.042   7.659  1.1136  1.6229  2.0384
   89CHL1  H18C 9022   6.127   2.106   7.825  0.5471  0.1055  0.4159
   89CHL1   C12 9023   5.853   2.079   7.602  0.0683  0.4458 -0.0183
   89CHL1  H12A 9024   5.831   1.973   7.627  0.8679 -0.3881 -2.5542
   89CHL1  H12B 9025   5.764   2.144   7.585 -1.0544 -1.3250 -1.3215
   89CHL1   C11 9026   5.931   2.075   7.464 -0.5081  0.1644 -0.9455
   89CHL1  H11A 9027   6.027   2.020   7.468 -1.2488 -1.1127 -0.0836
   89CHL1  H11B 9028   5.864   2.033   7.385 -0.2867 -0.5446 -0.7596
   89CHL1    C9 9029   5.976   2.218   7.412  0.6896  0.2115  0.1497
   89CHL1    H9 9030   5.887   2.284   7.404  2.3046  2.4251 -0.8413
   89CHL1   C10 9031   6.046   2.229   7.271 -0.0363  0.7408  0.3994
   89CHL1   C19 9032   6.155   2.115   7.264 -0.1764  0.0919 -0.8411
   89CHL1  H19A 9033   6.098   2.020   7.276  0.4595 -0.0968  0.9578
   89CHL1  H19B 9034   6.207   2.108   7.166 -0.8044 -1.1200 -1.1045
   89CHL1  H19C 9035   6.222   2.122   7.352  0.0688 -0.6417 -0.9582
   89CHL1    C1 9036   5.950   2.208   7.159  0.5721  0.3074 -0.1227
   89CHL1   H1A 9037   5.906   2.106   7.159 -0.1971  0.6332 -0.5035
   89CHL1   H1B 9038   5.866   2.280   7.173 -0.2010 -0.6045  0.0638
   89CHL1    C2 9039   6.007   2.230   7.022  0.0608  0.1274  0.1979
   89CHL1   H2A 9040   5.917   2.242   6.958  0.7674  1.3766 -0.6003
   89CHL1   H2B 9041   6.055   2.134   6.995  0.7890  0.1151  1.4648
   89CHL1   C20 9042   5.850   2.084   7.945 -0.2113  0.1025 -0.0254
   89CHL1   H20 9043   5.945   2.030   7.969  0.1714  0.5132 -0.5784
   89CHL1   C21 9044   5.747   1.983   7.889  0.1120  0.2862  0.0381
   89CHL1  H21A 9045   5.684   1.958   7.977  0.0583 -0.4579 -0.2091
   89CHL1  H21B 9046   5.788   1.887   7.853  0.1318  0.5399 -0.6249
   89CHL1  H21C 9047   5.696   2.042   7.810  1.5704  3.1447  1.0559
   89CHL1   C22 9048   5.787   2.149   8.064  0.1612  0.2948 -0.3119
   89CHL1  H22A 9049   5.840   2.246   8.077  1.0735  0.0577 -2.0506
   89CHL1  H22B 9050   5.677   2.161   8.058  0.2156  0.0840 -2.3307
   89CHL1   C23 9051   5.801   2.058   8.194 -0.3474 -1.0761  0.4762
   89CHL1  H23A 9052   5.774   1.955   8.162 -2.4636 -0.7126  0.9483
   89CHL1  H23B 9053   5.911   2.052   8.211  0.1596  2.3301 -0.6575
   89CHL1   C24 9054   5.722   2.111   8.313  0.7986 -0.2562  0.7114
   89CHL1  H24A 9055   5.741   2.220   8.328  1.0753 -0.1130 -0.5710
   89CHL1  H24B 9056   5.615   2.112   8.283  1.2296  2.5229 -1.0768
   89CHL1   C25 9057   5.716   2.031   8.444 -0.3449  0.1222  0.2674
   89CHL1   H25 9058   5.670   1.935   8.413  2.6281 -1.1643 -0.5803
   89CHL1   C26 9059   5.858   1.990   8.501 -0.8938 -0.1257  0.0714
   89CHL1  H26A 9060   5.846   1.931   8.594 -4.4170 -1.7956 -1.2737
   89CHL1  H26B 9061   5.908   1.932   8.420 -4.0549 -1.2031 -1.2848
   89CHL1  H26C 9062   5.925   2.076   8.523 -1.6579  0.8243 -1.2275
   89CHL1   C27 9063   5.635   2.105   8.552 -0.8134  0.0129 -0.3021
   89CHL1  H27A 9064   5.640   2.049   8.647  0.6947 -0.6255 -0.7270
   89CHL1  H27B 9065   5.675   2.208   8.568 -0.7957 -0.3037  2.0081
   89CHL1  H27C 9066   5.530   2.115   8.519 -0.4996  0.4470 -1.2235
   90CHL1    C3 9067   6.046   2.905   6.889  0.3319 -0.0901  0.1017
   90CHL1    H3 9068   6.006   3.008   6.876 -0.2828 -0.4189 -0.6938
   90CHL1    O3 9069   6.064   2.850   6.766  0.3750 -0.2049 -0.2814
   90CHL1   H3' 9070   6.068   2.756   6.783  0.2928  0.0277  1.1121
   90CHL1    C4 9071   6.177   2.925   6.967  0.2455 -0.4696  0.0010
   90CHL1   H4A 9072   6.234   2.830   6.968 -0.9081 -1.1792 -0.1267
   90CHL1   H4B 9073   6.240   2.998   6.910  0.3207 -1.6989 -1.5622
   90CHL1    C5 9074   6.156   2.963   7.114 -0.8485 -0.0500  0.1267
   90CHL1    C6 9075   6.233   3.061   7.168 -0.2305  0.0976 -0.3579
   90CHL1    H6 9076   6.292   3.126   7.101 -0.2941  1.0979  0.5250
   90CHL1    C7 9077   6.250   3.091   7.318 -0.7983  0.4066 -0.2424
   90CHL1   H7A 9078   6.353   3.096   7.361 -2.2199  2.4468  3.2825
   90CHL1   H7B 9079   6.209   3.194   7.322  0.9475  1.2343 -1.7485
   90CHL1    C8 9080   6.171   2.984   7.402  0.1896  0.5707  0.2595
   90CHL1    H8 9081   6.241   2.899   7.418  0.7811  0.8268 -0.8640
   90CHL1   C14 9082   6.129   3.037   7.540 -0.3461 -0.7614 -0.7283
   90CHL1   H14 9083   6.048   3.111   7.519  0.0213 -0.3004 -0.5356
   90CHL1   C15 9084   6.231   3.097   7.636  0.6470  0.4195  0.3008
   90CHL1  H15A 9085   6.317   3.028   7.650  0.8474  0.5267 -0.3998
   90CHL1  H15B 9086   6.269   3.193   7.596  1.8179  0.2511  0.9718
   90CHL1   C16 9087   6.166   3.106   7.769  0.6037  0.0581  0.1121
   90CHL1  H16A 9088   6.232   3.067   7.849  0.6802 -1.1751 -0.5296
   90CHL1  H16B 9089   6.142   3.212   7.793 -2.4629 -1.3280  4.2836
   90CHL1   C17 9090   6.036   3.021   7.755  0.3518 -0.0210  0.6637
   90CHL1   H17 9091   5.952   3.087   7.724  0.4954 -1.0390 -2.0869
   90CHL1   C13 9092   6.057   2.944   7.629 -0.3455 -0.6271 -0.4182
   90CHL1   C18 9093   6.142   2.820   7.659  0.4291 -0.0380 -0.1879
   90CHL1  H18A 9094   6.089   2.745   7.721  1.2347  0.1092  0.7025
   90CHL1  H18B 9095   6.164   2.762   7.567 -0.5267 -1.5595  0.5210
   90CHL1  H18C 9096   6.229   2.852   7.721 -0.4198  1.1611  0.4181
   90CHL1   C12 9097   5.924   2.903   7.560  0.6199  0.0732  0.3189
   90CHL1  H12A 9098   5.851   2.850   7.625  2.0326  0.4149  2.2899
   90CHL1  H12B 9099   5.880   3.000   7.529  0.1766 -0.2777 -0.1554
   90CHL1   C11 9100   5.946   2.841   7.420 -0.5268 -0.4465  0.3820
   90CHL1  H11A 9101   5.992   2.744   7.447  0.5033  0.1382  0.7798
   90CHL1  H11B 9102   5.849   2.822   7.370 -0.5998  0.1579  0.2851
   90CHL1    C9 9103   6.039   2.932   7.335 -0.6682  0.2460 -0.0656
   90CHL1    H9 9104   5.983   3.025   7.313  0.4866  1.1268  0.6037
   90CHL1   C10 9105   6.064   2.875   7.193  0.6836 -0.1206 -0.3179
   90CHL1   C19 9106   6.123   2.734   7.200 -0.2948  0.9717  0.9610
   90CHL1  H19A 9107   6.062   2.667   7.265  0.2109  0.3188  0.7641
   90CHL1  H19B 9108   6.145   2.675   7.109 -2.3927 -1.2476  1.7640
   90CHL1  H19C 9109   6.221   2.752   7.249 -0.5998 -0.7787  2.3193
   90CHL1    C1 9110   5.928   2.888   7.118 -0.4854  0.7925 -0.1746
   90CHL1   H1A 9111   5.841   2.851   7.178 -1.0945  3.1212  0.5067
   90CHL1   H1B 9112   5.894   2.992   7.102  0.6021  1.4647  1.5853
   90CHL1    C2 9113   5.939   2.833   6.969 -0.6555  0.1812 -0.2576
   90CHL1   H2A 9114   5.845   2.854   6.913 -1.5424 -1.1225  0.6795
   90CHL1   H2B 9115   5.964   2.725   6.968  0.8576  0.5126 -0.8077
   90CHL1   C20 9116   5.986   2.954   7.887 -0.2803  0.0477  0.4680
   90CHL1   H20 9117   6.055   2.869   7.907 -0.5422 -0.2393  0.1585
   90CHL1   C21 9118   5.846   2.889   7.879  0.3675  0.1983  0.3899
   90CHL1  H21A 9119   5.815   2.845   7.976  0.8534  2.9630  1.8753
   90CHL1  H21B 9120   5.863   2.805   7.808  0.3255 -1.3834  2.1809
   90CHL1  H21C 9121   5.765   2.956   7.846  0.0529 -0.1620  0.4246
   90CHL1   C22 9122   5.995   3.043   8.013 -0.2791  0.4999  0.0672
   90CHL1  H22A 9123   6.098   3.086   8.015  0.1623 -0.5148  2.5824
   90CHL1  H22B 9124   5.927   3.131   8.010  1.1022  1.6047 -1.1437
   90CHL1   C23 9125   5.977   2.978   8.153  0.2661 -0.1975  0.3644
   90CHL1  H23A 9126   5.868   2.954   8.159  0.1575  0.0160 -0.7112
   90CHL1  H23B 9127   6.029   2.879   8.159  0.6251 -0.0510 -0.2425
   90CHL1   C24 9128   6.009   3.070   8.275  0.0238  0.0744 -0.2445
   90CHL1  H24A 9129   6.101   3.127   8.250 -1.0930  2.7971  1.4056
   90CHL1  H24B 9130   5.919   3.133   8.285 -0.9144 -1.5345  2.3614
   90CHL1   C25 9131   6.018   2.996   8.409  0.2684 -0.2441 -0.1026
   90CHL1   H25 9132   6.084   2.910   8.385 -3.5487 -3.3838 -0.4334
   90CHL1   C26 9133   6.085   3.090   8.505  0.3719 -0.1237  0.1921
   90CHL1  H26A 9134   6.174   3.141   8.463  0.7605  1.2184  2.4733
   90CHL1  H26B 9135   6.010   3.169   8.528  0.9902  0.6422 -0.3896
   90CHL1  H26C 9136   6.117   3.041   8.600 -1.1141 -0.2181  0.6759
   90CHL1   C27 9137   5.893   2.933   8.464  0.3308 -0.3345  0.2990
   90CHL1  H27A 9138   5.841   2.862   8.396 -0.6773 -0.2057  0.9057
   90CHL1  H27B 9139   5.907   2.887   8.564  1.9732  1.3004  0.8671
   90CHL1  H27C 9140   5.819   3.015   8.477 -2.1614 -2.0181 -2.1980
   91CHL1    C3 9141   6.279   5.056   7.263  0.2838  0.1145  0.3793
   91CHL1    H3 9142   6.305   4.948   7.269  1.5149  0.1125 -2.9484
   91CHL1    O3 9143   6.305   5.103   7.126  1.2658  0.2624 -0.0439
   91CHL1   H3' 9144   6.248   5.058   7.064 -0.3566  0.1574  1.4401
   91CHL1    C4 9145   6.134   5.088   7.300  0.1151 -0.2882 -0.2127
   91CHL1   H4A 9146   6.125   5.196   7.276 -0.3575 -0.7180 -2.1228
   91CHL1   H4B 9147   6.078   5.025   7.228 -0.2946  1.7707 -1.7762
   91CHL1    C5 9148   6.101   5.061   7.447 -0.1264 -0.5267  0.5159
   91CHL1    C6 9149   5.995   4.988   7.480 -0.3441  0.3876 -0.7904
   91CHL1    H6 9150   5.929   4.952   7.399  0.7621 -0.9687 -1.1278
   91CHL1    C7 9151   5.961   4.958   7.626  0.2852  0.0655 -0.1071
   91CHL1   H7A 9152   5.852   4.959   7.645 -0.4225 -0.3989 -3.5939
   91CHL1   H7B 9153   5.997   4.855   7.646 -0.8884 -0.1262  1.1734
   91CHL1    C8 9154   6.026   5.055   7.726 -0.8038 -0.2696 -0.0596
   91CHL1    H8 9155   5.973   5.153   7.725  0.8614  0.6835  0.8440
   91CHL1   C14 9156   6.015   4.995   7.862  0.0774  0.2496 -0.3771
   91CHL1   H14 9157   6.072   4.900   7.863 -0.2417  0.0524  0.7356
   91CHL1   C15 9158   5.874   4.972   7.921  0.1005 -0.2952  0.3211
   91CHL1  H15A 9159   5.800   5.050   7.892 -1.5742 -1.0075  2.4219
   91CHL1  H15B 9160   5.838   4.872   7.888  0.3300 -0.5759  0.9135
   91CHL1   C16 9161   5.903   4.966   8.075 -0.1332 -0.0606 -0.0751
   91CHL1  H16A 9162   5.820   5.021   8.125 -1.4846  0.6172 -2.8827
   91CHL1  H16B 9163   5.903   4.857   8.097 -1.1638  0.0113  0.3616
   91CHL1   C17 9164   6.045   5.012   8.100 -0.8901 -0.1275  0.5083
   91CHL1   H17 9165   6.110   4.923   8.092  0.4848  1.0048 -2.8415
   91CHL1   C13 9166   6.085   5.087   7.968 -0.6947  0.1201 -0.0812
   91CHL1   C18 9167   6.022   5.229   7.977  0.6014  0.4240  0.0925
   91CHL1  H18A 9168   6.061   5.279   8.068  1.7043  0.4424 -0.3743
   91CHL1  H18B 9169   6.040   5.282   7.881  2.0626  0.2588  0.2573
   91CHL1  H18C 9170   5.912   5.219   7.989  0.0902  2.0637 -2.4802
   91CHL1   C12 9171   6.237   5.094   7.941 -0.1928  0.2775  0.0048
   91CHL1  H12A 9172   6.291   5.161   8.011  1.6266  2.1663 -3.0021
   91CHL1  H12B 9173   6.290   4.996   7.930  1.5853  1.1579  0.4527
   91CHL1   C11 9174   6.260   5.154   7.805 -0.4580  0.1504  0.5224
   91CHL1  H11A 9175   6.235   5.262   7.817 -0.1191  0.4602 -1.3474
   91CHL1  H11B 9176   6.367   5.150   7.775 -0.4122  0.0903  0.6923
   91CHL1    C9 9177   6.176   5.073   7.696  0.1636  0.3992 -0.5993
   91CHL1    H9 9178   6.221   4.971   7.700  0.6499  0.6035 -0.8236
   91CHL1   C10 9179   6.199   5.123   7.552 -0.3868 -0.3968  0.5587
   91CHL1   C19 9180   6.179   5.278   7.554 -0.0178  0.4254 -0.2509
   91CHL1  H19A 9181   6.195   5.316   7.451  0.6835 -0.3372 -0.4307
   91CHL1  H19B 9182   6.083   5.303   7.604 -0.8251 -1.0636 -1.0068
   91CHL1  H19C 9183   6.264   5.323   7.612  0.7451 -1.9942  0.6130
   91CHL1    C1 9184   6.342   5.085   7.501  0.2737 -0.1388  0.6440
   91CHL1   H1A 9185   6.418   5.133   7.565 -0.4683 -0.9193  2.1635
   91CHL1   H1B 9186   6.356   4.975   7.505  0.3314 -0.1056  1.4538
   91CHL1    C2 9187   6.374   5.138   7.355  0.2850 -0.3332  0.1684
   91CHL1   H2A 9188   6.478   5.123   7.319  1.1971 -0.2768  2.6092
   91CHL1   H2B 9189   6.341   5.245   7.354  0.2329 -0.3375 -1.4578
   91CHL1   C20 9190   6.058   5.069   8.246 -0.4985 -0.0413 -0.2478
   91CHL1   H20 9191   5.991   5.157   8.254 -1.0909 -0.5422  0.5164
   91CHL1   C21 9192   6.199   5.113   8.279 -0.0522 -0.4201 -0.0991
   91CHL1  H21A 9193   6.275   5.033   8.286 -0.3638 -0.8568 -1.4816
   91CHL1  H21B 9194   6.206   5.169   8.375  1.5180 -0.2445 -0.2963
   91CHL1  H21C 9195   6.233   5.189   8.205  0.9988  1.3649  2.0928
   91CHL1   C22 9196   6.013   4.968   8.353  0.1666  0.7096  0.1010
   91CHL1  H22A 9197   5.909   4.934   8.336  0.8836 -2.5620  1.5939
   91CHL1  H22B 9198   6.074   4.876   8.359  0.4515  0.9608  1.3045
   91CHL1   C23 9199   6.024   5.009   8.501 -0.0166  0.6220  0.6072
   91CHL1  H23A 9200   6.128   4.993   8.537 -0.6320 -3.0552  1.0911
   91CHL1  H23B 9201   6.003   5.118   8.501  1.5095  0.9768 -1.8332
   91CHL1   C24 9202   5.926   4.925   8.589  0.0634  0.7070  0.0404
   91CHL1  H24A 9203   5.823   4.941   8.551 -0.6730  0.0143  1.6717
   91CHL1  H24B 9204   5.938   4.816   8.578 -0.5005  0.8008 -1.9170
   91CHL1   C25 9205   5.937   4.956   8.742  0.5618 -0.4297  0.1412
   91CHL1   H25 9206   6.038   4.926   8.776  0.6443  0.8709  1.1187
   91CHL1   C26 9207   5.933   5.115   8.765  0.2752 -0.0616  0.1648
   91CHL1  H26A 9208   5.924   5.135   8.873  1.0800 -1.0363  0.4303
   91CHL1  H26B 9209   6.026   5.162   8.727 -0.0243  0.4201  0.0273
   91CHL1  H26C 9210   5.843   5.159   8.717  0.2401  2.1761  2.1287
   91CHL1   C27 9211   5.838   4.880   8.830  0.3580  0.2290 -0.6539
   91CHL1  H27A 9212   5.737   4.867   8.787 -0.2932 -1.3387  1.2074
   91CHL1  H27B 9213   5.874   4.778   8.857  0.6801  0.8492  1.4444
   91CHL1  H27C 9214   5.838   4.922   8.932 -0.2705  0.0885 -0.5967
   92CHL1    C3 9215   0.523   0.249   6.840 -0.8694 -0.3635 -0.0592
   92CHL1    H3 9216   0.425   0.243   6.892 -0.8036  1.3141  0.3215
   92CHL1    O3 9217   0.504   0.223   6.703 -0.6659  0.0138 -0.0556
   92CHL1   H3' 9218   0.571   0.261   6.646 -0.3130 -1.5940 -0.7576
   92CHL1    C4 9219   0.591   0.388   6.870 -0.6700  0.1722  0.3675
   92CHL1   H4A 9220   0.681   0.396   6.805 -1.6043  2.2629 -0.7602
   92CHL1   H4B 9221   0.521   0.464   6.829  1.1766  0.6057 -2.2096
   92CHL1    C5 9222   0.624   0.408   7.014 -0.0932  0.2166 -0.2549
   92CHL1    C6 9223   0.573   0.507   7.086  0.1634  0.1412  0.2372
   92CHL1    H6 9224   0.498   0.574   7.043 -0.2393  0.5526  1.5276
   92CHL1    C7 9225   0.602   0.532   7.233 -0.1877 -0.3121 -0.4577
   92CHL1   H7A 9226   0.605   0.641   7.256  0.1888  0.5415 -4.0277
   92CHL1   H7B 9227   0.518   0.493   7.294 -0.5964  0.8499 -0.2590
   92CHL1    C8 9228   0.728   0.469   7.278  0.4886 -0.5533 -0.5751
   92CHL1    H8 9229   0.813   0.524   7.232 -0.2386  2.0657  0.9637
   92CHL1   C14 9230   0.737   0.483   7.435 -0.0424 -0.4228  0.3690
   92CHL1   H14 9231   0.650   0.421   7.464 -0.9646 -1.2634 -3.5448
   92CHL1   C15 9232   0.727   0.624   7.490  0.4509  0.2493  0.1595
   92CHL1  H15A 9233   0.781   0.711   7.446  0.2079  1.1398  1.5557
   92CHL1  H15B 9234   0.622   0.659   7.503  0.6750  1.2921 -0.6727
   92CHL1   C16 9235   0.794   0.599   7.631  0.0830 -0.0409  0.1962
   92CHL1  H16A 9236   0.871   0.677   7.646 -0.3446  0.2419  0.9877
   92CHL1  H16B 9237   0.724   0.605   7.718 -1.6967 -0.0328 -1.1785
   92CHL1   C17 9238   0.856   0.457   7.632 -1.2460 -0.7415 -0.6220
   92CHL1   H17 9239   0.780   0.392   7.680  0.8862 -1.8375  1.5074
   92CHL1   C13 9240   0.868   0.421   7.483 -0.1934  1.0845  0.1147
   92CHL1   C18 9241   1.001   0.486   7.419 -0.1628 -0.7898  0.1465
   92CHL1  H18A 9242   1.087   0.430   7.462 -0.2219  1.6574  3.9458
   92CHL1  H18B 9243   1.000   0.496   7.309  1.4380  2.7123  0.3153
   92CHL1  H18C 9244   1.004   0.592   7.452 -0.7412 -0.4263 -0.9245
   92CHL1   C12 9245   0.867   0.268   7.452  0.2117 -0.5519 -0.3707
   92CHL1  H12A 9246   0.952   0.208   7.493  1.1187  0.1133 -1.2601
   92CHL1  H12B 9247   0.783   0.227   7.513  0.0786 -1.8248 -1.3731
   92CHL1   C11 9248   0.849   0.244   7.301  0.4550  0.3288 -0.0659
   92CHL1  H11A 9249   0.945   0.271   7.252  0.5365  1.6656  0.7932
   92CHL1  H11B 9250   0.825   0.136   7.289 -0.3825  0.5237 -0.2200
   92CHL1    C9 9251   0.732   0.322   7.232  0.1135 -0.9127 -0.0678
   92CHL1    H9 9252   0.639   0.281   7.275  0.1792 -1.5348 -0.5179
   92CHL1   C10 9253   0.715   0.301   7.077 -0.4993 -0.3792  0.7789
   92CHL1   C19 9254   0.853   0.312   7.014 -0.7995  0.6976 -0.1024
   92CHL1  H19A 9255   0.909   0.217   7.027 -1.6242 -0.1388 -2.1131
   92CHL1  H19B 9256   0.853   0.320   6.903  1.8202  1.2529 -0.1111
   92CHL1  H19C 9257   0.915   0.395   7.052  1.4678 -0.6256 -0.7488
   92CHL1    C1 9258   0.646   0.164   7.049 -0.0466 -0.4493 -0.7232
   92CHL1   H1A 9259   0.717   0.089   7.090  0.8242  1.2493  1.0255
   92CHL1   H1B 9260   0.551   0.166   7.106  0.5042 -2.2307  0.3585
   92CHL1    C2 9261   0.615   0.139   6.902 -0.0765 -0.0489  0.5490
   92CHL1   H2A 9262   0.565   0.041   6.884 -0.6766  0.3753 -0.1815
   92CHL1   H2B 9263   0.711   0.139   6.845 -0.1200  0.4039  0.4717
   92CHL1   C20 9264   0.979   0.456   7.724 -0.5353  0.3644  0.0842
   92CHL1   H20 9265   1.068   0.510   7.684  1.6144 -1.7264  1.7359
   92CHL1   C21 9266   1.032   0.316   7.733 -0.6060  0.4179 -0.0721
   92CHL1  H21A 9267   0.949   0.244   7.749 -1.1102  0.4247 -2.3282
   92CHL1  H21B 9268   1.098   0.292   7.819 -0.0030  2.0715 -0.0413
   92CHL1  H21C 9269   1.096   0.302   7.643 -0.9371 -1.2221 -0.0853
   92CHL1   C22 9270   0.949   0.521   7.859  0.3502  0.4649  0.9338
   92CHL1  H22A 9271   0.925   0.629   7.861 -0.8412  0.1987  1.6033
   92CHL1  H22B 9272   0.865   0.470   7.911  0.2725 -0.8660 -0.4159
   92CHL1   C23 9273   1.075   0.513   7.947  0.3690  0.5578 -0.3314
   92CHL1  H23A 9274   1.090   0.410   7.985  2.2109  0.7663 -0.3634
   92CHL1  H23B 9275   1.155   0.546   7.877  1.4632 -0.0071  0.6063
   92CHL1   C24 9276   1.071   0.606   8.069 -0.3516  0.4536 -0.5361
   92CHL1  H24A 9277   1.062   0.710   8.030  1.7983  0.6945 -0.4819
   92CHL1  H24B 9278   0.968   0.582   8.106 -0.7364  0.7652 -1.3721
   92CHL1   C25 9279   1.182   0.594   8.175  0.2695  0.3345 -0.5984
   92CHL1   H25 9280   1.182   0.689   8.234  0.1435 -0.8008  1.3214
   92CHL1   C26 9281   1.151   0.480   8.274  0.2716 -0.3573  0.9426
   92CHL1  H26A 9282   1.168   0.383   8.222  0.4127 -1.0799  2.2916
   92CHL1  H26B 9283   1.217   0.474   8.363 -0.6284 -0.8463  1.5999
   92CHL1  H26C 9284   1.045   0.481   8.309  0.7716 -1.1519  2.6152
   92CHL1   C27 9285   1.322   0.578   8.120  0.2162 -0.2403  0.2146
   92CHL1  H27A 9286   1.400   0.573   8.199 -0.9487 -1.2958  1.3462
   92CHL1  H27B 9287   1.328   0.482   8.063 -0.0124 -0.4331  0.5118
   92CHL1  H27C 9288   1.349   0.662   8.054  1.2884 -0.9606 -0.2924
   93CHL1    C3 9289   0.845   6.528   6.792  0.2255 -0.1236  0.1887
   93CHL1    H3 9290   0.795   6.429   6.789  3.2821 -1.8001  0.6417
   93CHL1    O3 9291   0.888   6.563   6.661  0.8351  0.2172 -0.4178
   93CHL1   H3' 9292   0.907   6.657   6.660  0.2594  0.3714  0.8244
   93CHL1    C4 9293   0.754   6.642   6.835 -0.4254 -0.6143  0.2119
   93CHL1   H4A 9294   0.819   6.731   6.827 -1.3249 -0.1486 -3.4276
   93CHL1   H4B 9295   0.668   6.646   6.765 -2.9134  0.2096  3.1147
   93CHL1    C5 9296   0.719   6.629   6.986 -0.1119  0.2734  0.5134
   93CHL1    C6 9297   0.591   6.610   7.028 -0.1931 -0.1074  0.1715
   93CHL1    H6 9298   0.507   6.625   6.959 -0.1731 -0.2796  0.1077
   93CHL1    C7 9299   0.554   6.578   7.172  0.2427 -0.2438 -0.3319
   93CHL1   H7A 9300   0.463   6.635   7.198  1.4911  1.8721 -0.3461
   93CHL1   H7B 9301   0.533   6.471   7.194  0.5722 -0.0893  0.7932
   93CHL1    C8 9302   0.661   6.625   7.267 -0.0507 -0.0238 -1.3490
   93CHL1    H8 9303   0.667   6.736   7.269  1.4276 -0.0584  1.4379
   93CHL1   C14 9304   0.637   6.573   7.407 -0.4152 -0.5321  0.7170
   93CHL1   H14 9305   0.661   6.465   7.403 -1.1048 -0.6826  0.5068
   93CHL1   C15 9306   0.500   6.587   7.477  0.2426  0.1679  0.3147
   93CHL1  H15A 9307   0.445   6.683   7.459 -2.1485 -1.1370  0.1890
   93CHL1  H15B 9308   0.432   6.504   7.449  0.0310  0.1690  0.8224
   93CHL1   C16 9309   0.522   6.570   7.629 -0.6344 -0.2160 -0.1756
   93CHL1  H16A 9310   0.487   6.666   7.674 -1.3594  0.0965 -1.3554
   93CHL1  H16B 9311   0.469   6.481   7.670  0.9978 -0.0680  2.5188
   93CHL1   C17 9312   0.677   6.554   7.640 -0.6204 -0.4606  0.0939
   93CHL1   H17 9313   0.692   6.444   7.628 -2.2014 -0.6152 -0.6230
   93CHL1   C13 9314   0.738   6.609   7.507 -0.1495  0.2033 -0.1998
   93CHL1   C18 9315   0.740   6.760   7.527 -0.4927  0.4046 -0.4579
   93CHL1  H18A 9316   0.780   6.812   7.437  2.5954  1.0888  1.1544
   93CHL1  H18B 9317   0.638   6.794   7.555 -0.1730 -0.7365  2.4374
   93CHL1  H18C 9318   0.809   6.790   7.609  0.4589 -1.6665 -0.4445
   93CHL1   C12 9319   0.875   6.557   7.469 -0.4906  0.2254 -0.0102
   93CHL1  H12A 9320   0.951   6.591   7.543  1.1934 -0.1101 -1.5368
   93CHL1  H12B 9321   0.886   6.447   7.465 -0.2230  0.1809  1.4259
   93CHL1   C11 9322   0.912   6.604   7.333  0.1385 -0.0115 -0.2646
   93CHL1  H11A 9323   0.934   6.713   7.340  0.9066 -0.1746 -0.0585
   93CHL1  H11B 9324   1.005   6.558   7.293  1.7613  2.9846 -0.2357
   93CHL1    C9 9325   0.804   6.583   7.226 -0.1461  0.0105  0.7224
   93CHL1    H9 9326   0.787   6.473   7.218  0.9820 -0.0927 -0.5308
   93CHL1   C10 9327   0.842   6.618   7.077  0.4555 -1.0166  0.2770
   93CHL1   C19 9328   0.942   6.741   7.082 -0.0306  0.2493 -0.3962
   93CHL1  H19A 9329   0.947   6.771   6.975  2.9777 -2.1309 -1.0614
   93CHL1  H19B 9330   0.902   6.820   7.149  1.1681 -0.3283  1.0438
   93CHL1  H19C 9331   1.047   6.716   7.108  0.2621  1.0967 -0.7232
   93CHL1    C1 9332   0.925   6.496   7.022  0.0892 -0.3465  0.8661
   93CHL1   H1A 9333   1.017   6.475   7.082  0.8529 -1.3424 -0.5894
   93CHL1   H1B 9334   0.864   6.404   7.037  0.5671 -0.4749  2.1237
   93CHL1    C2 9335   0.968   6.513   6.879 -0.5157  0.0902  0.3020
   93CHL1   H2A 9336   1.033   6.433   6.838  0.2869  1.6944 -1.7612
   93CHL1   H2B 9337   1.036   6.600   6.866 -1.2390  0.6212 -0.0087
   93CHL1   C20 9338   0.749   6.582   7.771 -0.2875  0.2629 -0.3178
   93CHL1   H20 9339   0.857   6.598   7.751 -0.7710  2.3306 -1.6169
   93CHL1   C21 9340   0.723   6.464   7.860  0.5961 -0.0503 -0.0950
   93CHL1  H21A 9341   0.783   6.486   7.951 -0.8720 -1.5265  1.2995
   93CHL1  H21B 9342   0.764   6.377   7.804 -1.0644  0.4854 -2.3009
   93CHL1  H21C 9343   0.612   6.458   7.872  0.6966 -2.8840  0.1071
   93CHL1   C22 9344   0.710   6.711   7.850  0.2831 -1.2056  0.5258
   93CHL1  H22A 9345   0.700   6.802   7.788 -0.7642 -2.1615 -0.7579
   93CHL1  H22B 9346   0.608   6.688   7.888 -0.9314 -1.4472 -2.5747
   93CHL1   C23 9347   0.799   6.746   7.980  0.1840 -0.5235  0.3099
   93CHL1  H23A 9348   0.807   6.664   8.055  1.7876  0.3878  1.1922
   93CHL1  H23B 9349   0.905   6.753   7.946 -0.1993  1.0401 -0.6174
   93CHL1   C24 9350   0.751   6.879   8.041 -0.1356  0.4345 -0.1938
   93CHL1  H24A 9351   0.775   6.961   7.971 -0.5585 -0.0398 -0.9049
   93CHL1  H24B 9352   0.640   6.877   8.040 -0.1480 -0.7697  0.6500
   93CHL1   C25 9353   0.799   6.905   8.183 -0.4814 -0.1105 -0.1620
   93CHL1   H25 9354   0.799   6.807   8.237  2.8060 -0.2169 -0.1287
   93CHL1   C26 9355   0.957   6.935   8.184  0.6900 -0.4896 -0.0364
   93CHL1  H26A 9356   0.990   6.951   8.288 -0.8691  1.1825  0.2476
   93CHL1  H26B 9357   1.022   6.859   8.136  2.1348  0.7905 -0.2009
   93CHL1  H26C 9358   0.962   7.032   8.130 -0.1237 -0.3702  0.1004
   93CHL1   C27 9359   0.718   7.010   8.259 -0.0277  0.3830  0.2218
   93CHL1  H27A 9360   0.624   6.971   8.304 -0.3755 -0.1597 -0.9281
   93CHL1  H27B 9361   0.775   7.057   8.342 -2.4375 -0.0887  2.2753
   93CHL1  H27C 9362   0.691   7.089   8.186 -0.8134 -0.7867 -0.8012
   94CHL1    C3 9363   3.528   0.287   6.743 -0.4802 -0.3139 -0.1728
   94CHL1    H3 9364   3.486   0.186   6.762 -0.2451 -0.1893  1.1631
   94CHL1    O3 9365   3.530   0.312   6.602  0.2374 -0.2145 -0.0140
   94CHL1   H3' 9366   3.452   0.356   6.567  2.0168  1.7848 -1.7903
   94CHL1    C4 9367   3.435   0.396   6.806  0.3216  0.5932  0.1499
   94CHL1   H4A 9368   3.470   0.495   6.770  1.0222 -0.5387 -2.5619
   94CHL1   H4B 9369   3.332   0.393   6.763  1.3773 -0.2818 -2.5055
   94CHL1    C5 9370   3.436   0.378   6.957  0.4717  0.2351  1.4123
   94CHL1    C6 9371   3.324   0.349   7.031  0.3191 -1.3027 -0.1651
   94CHL1    H6 9372   3.226   0.332   6.984 -0.1415 -0.6854  0.5458
   94CHL1    C7 9373   3.319   0.336   7.178  0.1596  0.3325 -0.2871
   94CHL1   H7A 9374   3.229   0.391   7.213 -1.4117  0.6402 -4.3222
   94CHL1   H7B 9375   3.301   0.231   7.211 -0.3096  0.4959 -0.0019
   94CHL1    C8 9376   3.457   0.379   7.248  0.5204  0.5676 -0.0763
   94CHL1    H8 9377   3.439   0.489   7.250 -1.4352  0.3227 -1.4579
   94CHL1   C14 9378   3.459   0.326   7.390  0.5452  0.2855 -0.0737
   94CHL1   H14 9379   3.472   0.217   7.375 -1.7301 -0.0841  0.3468
   94CHL1   C15 9380   3.330   0.350   7.471 -0.4040  0.2268 -0.5771
   94CHL1  H15A 9381   3.277   0.447   7.464  0.4674  0.6015 -2.5235
   94CHL1  H15B 9382   3.277   0.258   7.438  3.7388 -1.8219 -2.2978
   94CHL1   C16 9383   3.379   0.328   7.612 -0.2080  0.0124 -0.1858
   94CHL1  H16A 9384   3.349   0.412   7.677  0.9162 -0.5526  1.1212
   94CHL1  H16B 9385   3.328   0.237   7.651 -3.3470  1.1244 -1.4240
   94CHL1   C17 9386   3.538   0.312   7.598  0.2323  0.5875  0.6788
   94CHL1   H17 9387   3.564   0.204   7.585  0.2844  0.6944 -0.1821
   94CHL1   C13 9388   3.578   0.372   7.472  0.2340  0.1807 -0.4091
   94CHL1   C18 9389   3.578   0.526   7.485  0.0190 -0.7978  0.0998
   94CHL1  H18A 9390   3.489   0.565   7.538 -0.3647 -4.1707  2.2558
   94CHL1  H18B 9391   3.659   0.564   7.551 -0.6704 -0.1030  0.5649
   94CHL1  H18C 9392   3.581   0.580   7.389  0.2188  0.8666  1.0073
   94CHL1   C12 9393   3.700   0.325   7.403 -0.3807  0.4205 -0.5159
   94CHL1  H12A 9394   3.794   0.354   7.453 -1.1370 -0.4614  1.5038
   94CHL1  H12B 9395   3.699   0.215   7.410 -2.2321  0.5010  1.9620
   94CHL1   C11 9396   3.713   0.367   7.253 -0.1983  0.4422 -0.5218
   94CHL1  H11A 9397   3.726   0.478   7.256 -2.7195  0.7920  0.4361
   94CHL1  H11B 9398   3.788   0.321   7.185 -0.9048  0.6509 -1.4678
   94CHL1    C9 9399   3.579   0.331   7.173  0.0378 -0.3357  0.0815
   94CHL1    H9 9400   3.571   0.220   7.174  0.8776 -0.4023  0.3585
   94CHL1   C10 9401   3.575   0.375   7.021 -0.2291  0.1756  0.0459
   94CHL1   C19 9402   3.640   0.515   7.009  0.2045 -0.1296  0.0350
   94CHL1  H19A 9403   3.606   0.590   7.084  0.7821  1.6464 -1.4034
   94CHL1  H19B 9404   3.745   0.504   7.044  0.0060 -1.0309  0.3607
   94CHL1  H19C 9405   3.630   0.551   6.905 -0.3876 -1.7673 -0.4857
   94CHL1    C1 9406   3.665   0.273   6.950 -0.1718 -0.8638  0.2215
   94CHL1   H1A 9407   3.775   0.274   6.963  0.0023  0.2203 -1.0929
   94CHL1   H1B 9408   3.628   0.168   6.959 -2.6612  0.0071  1.0096
   94CHL1    C2 9409   3.675   0.291   6.791  0.6955 -0.2837  0.2381
   94CHL1   H2A 9410   3.739   0.207   6.758 -0.6775 -0.6019 -1.7932
   94CHL1   H2B 9411   3.707   0.390   6.753  1.3253 -1.0293 -1.2439
   94CHL1   C20 9412   3.600   0.354   7.730 -0.3235 -0.0927 -0.8287
   94CHL1   H20 9413   3.586   0.463   7.743 -2.9998 -0.4944  0.4427
   94CHL1   C21 9414   3.751   0.330   7.723  0.3094  0.9095 -0.6718
   94CHL1  H21A 9415   3.775   0.227   7.690 -2.1844  0.0612 -0.0337
   94CHL1  H21B 9416   3.797   0.343   7.823 -2.0873  1.7064  0.3932
   94CHL1  H21C 9417   3.802   0.404   7.657  4.5809  0.3739  1.6060
   94CHL1   C22 9418   3.535   0.284   7.850 -0.8354  0.3861 -0.0645
   94CHL1  H22A 9419   3.424   0.294   7.854 -0.9488 -0.6324 -0.5087
   94CHL1  H22B 9420   3.560   0.176   7.845 -0.2628  0.5776 -2.3173
   94CHL1   C23 9421   3.594   0.340   7.977 -0.1572  0.0944 -0.0429
   94CHL1  H23A 9422   3.702   0.318   7.989 -0.0661  0.7643  0.4374
   94CHL1  H23B 9423   3.571   0.449   7.972 -0.2307  0.0644 -0.3630
   94CHL1   C24 9424   3.524   0.284   8.111 -0.0270 -0.2466 -0.1437
   94CHL1  H24A 9425   3.416   0.311   8.110 -0.1091 -0.5437  0.2447
   94CHL1  H24B 9426   3.532   0.173   8.115 -0.4323 -0.2556  0.8278
   94CHL1   C25 9427   3.566   0.351   8.239 -0.5761 -0.1337 -0.6154
   94CHL1   H25 9428   3.569   0.462   8.227 -1.1351 -0.1556 -0.9795
   94CHL1   C26 9429   3.458   0.315   8.352 -0.2034  0.7568 -0.0558
   94CHL1  H26A 9430   3.358   0.345   8.316 -0.4871 -0.3791 -0.2708
   94CHL1  H26B 9431   3.460   0.204   8.362 -0.3174  0.5177 -2.2653
   94CHL1  H26C 9432   3.473   0.354   8.455  0.3678 -2.8051  1.3506
   94CHL1   C27 9433   3.709   0.304   8.285  0.2613  0.1309  0.2945
   94CHL1  H27A 9434   3.707   0.193   8.272 -1.1160  0.4447 -3.8448
   94CHL1  H27B 9435   3.783   0.353   8.218  0.3072 -1.0710 -0.5783
   94CHL1  H27C 9436   3.719   0.336   8.391 -0.2023 -0.4042  0.5065
   95CHL1    C3 9437   2.343   0.594   6.676  0.3986 -0.8284 -0.1556
   95CHL1    H3 9438   2.236   0.590   6.706  0.2461 -0.9368 -0.7094
   95CHL1    O3 9439   2.349   0.587   6.537 -0.1996 -0.3024  0.1404
   95CHL1   H3' 9440   2.441   0.586   6.508 -1.2979 -1.6349 -3.8100
   95CHL1    C4 9441   2.404   0.729   6.724 -0.1057 -0.2061 -0.1777
   95CHL1   H4A 9442   2.514   0.740   6.707  0.6384 -0.0224  3.8252
   95CHL1   H4B 9443   2.347   0.801   6.662 -1.2593 -1.7099 -0.9340
   95CHL1    C5 9444   2.387   0.737   6.877 -0.2639  0.7152 -0.4622
   95CHL1    C6 9445   2.332   0.838   6.941  0.3887 -0.0530 -0.0201
   95CHL1    H6 9446   2.297   0.921   6.878  1.7864  0.5563 -0.0180
   95CHL1    C7 9447   2.318   0.847   7.087  0.1520 -0.3568 -0.3896
   95CHL1   H7A 9448   2.330   0.954   7.117  0.0957 -0.1137 -1.2016
   95CHL1   H7B 9449   2.222   0.811   7.129  2.3510 -2.9226  2.9966
   95CHL1    C8 9450   2.419   0.760   7.168 -0.0002  0.6429  1.5050
   95CHL1    H8 9451   2.522   0.797   7.144 -0.3468  0.5809 -0.2710
   95CHL1   C14 9452   2.401   0.774   7.316 -0.0512  0.3346  0.1264
   95CHL1   H14 9453   2.294   0.751   7.330 -0.6995  0.3407 -3.6774
   95CHL1   C15 9454   2.408   0.908   7.386  0.4087 -0.5136  0.3500
   95CHL1  H15A 9455   2.483   0.980   7.349 -0.5225  1.3539  1.8854
   95CHL1  H15B 9456   2.317   0.971   7.376  1.3366  0.9045  0.5710
   95CHL1   C16 9457   2.443   0.880   7.535 -0.3631  0.6734 -0.1149
   95CHL1  H16A 9458   2.539   0.929   7.562  0.0431 -0.0277 -0.2682
   95CHL1  H16B 9459   2.356   0.908   7.598 -1.0907  1.7598 -1.5419
   95CHL1   C17 9460   2.451   0.721   7.540 -0.8821  0.0557  0.3103
   95CHL1   H17 9461   2.344   0.693   7.545 -0.5153 -1.6925 -0.5490
   95CHL1   C13 9462   2.484   0.676   7.398  0.6912 -0.4691 -0.2329
   95CHL1   C18 9463   2.633   0.696   7.386  0.3277 -0.7378  0.1034
   95CHL1  H18A 9464   2.699   0.618   7.430 -0.1745 -1.3621 -0.2411
   95CHL1  H18B 9465   2.653   0.686   7.277 -0.5219 -0.2416 -0.1021
   95CHL1  H18C 9466   2.656   0.799   7.421  0.3129 -0.1484 -1.5349
   95CHL1   C12 9467   2.436   0.531   7.353 -0.1657 -0.9823  0.0188
   95CHL1  H12A 9468   2.484   0.466   7.429 -0.7322 -2.2393 -0.6672
   95CHL1  H12B 9469   2.326   0.532   7.363 -0.1556 -0.3201  0.1323
   95CHL1   C11 9470   2.469   0.507   7.201  0.0575 -0.2952 -0.1904
   95CHL1  H11A 9471   2.578   0.508   7.182  0.2465 -0.4655  0.7994
   95CHL1  H11B 9472   2.433   0.405   7.180 -1.9994 -0.1514  2.0956
   95CHL1    C9 9473   2.401   0.614   7.110 -0.3064  0.8517 -0.5741
   95CHL1    H9 9474   2.292   0.600   7.122 -0.1990 -1.1526 -1.5319
   95CHL1   C10 9475   2.443   0.612   6.959 -0.7258  0.1015  0.8180
   95CHL1   C19 9476   2.599   0.614   6.947 -0.2653  0.1163 -0.0882
   95CHL1  H19A 9477   2.626   0.614   6.839 -1.5160  0.3797 -0.4179
   95CHL1  H19B 9478   2.650   0.701   6.994  1.5517  0.2342 -2.1018
   95CHL1  H19C 9479   2.641   0.519   6.985 -2.9765  0.3675  4.0872
   95CHL1    C1 9480   2.386   0.481   6.892 -0.7611  0.4399  0.6319
   95CHL1   H1A 9481   2.448   0.400   6.937 -0.3628  0.2165 -0.2783
   95CHL1   H1B 9482   2.278   0.466   6.913 -1.4187  0.2807 -2.4132
   95CHL1    C2 9483   2.402   0.468   6.739  0.5173  0.1965  0.6339
   95CHL1   H2A 9484   2.357   0.372   6.705  2.3368 -1.4712  2.6430
   95CHL1   H2B 9485   2.509   0.461   6.710 -0.0041 -1.5307 -1.0731
   95CHL1   C20 9486   2.528   0.644   7.654  0.4927 -0.3356 -0.0777
   95CHL1   H20 9487   2.575   0.547   7.625 -0.9506 -0.7502 -1.1478
   95CHL1   C21 9488   2.409   0.607   7.747 -0.5008 -0.7026  0.3604
   95CHL1  H21A 9489   2.327   0.554   7.695 -1.1092 -0.5713  1.1588
   95CHL1  H21B 9490   2.365   0.706   7.773 -3.6191 -0.5883 -4.1922
   95CHL1  H21C 9491   2.447   0.550   7.834  0.4154 -2.8853 -1.3952
   95CHL1   C22 9492   2.631   0.733   7.728  0.6809 -0.0819 -0.4003
   95CHL1  H22A 9493   2.709   0.775   7.661  2.5802 -3.1294 -0.2634
   95CHL1  H22B 9494   2.579   0.822   7.770  0.5201 -0.3786  0.0445
   95CHL1   C23 9495   2.702   0.663   7.842 -0.3479 -0.4922  0.5727
   95CHL1  H23A 9496   2.637   0.595   7.901 -2.0948  1.2179  0.7422
   95CHL1  H23B 9497   2.774   0.591   7.798  1.6056 -0.2614  3.1894
   95CHL1   C24 9498   2.769   0.757   7.950  0.2390  0.4517 -0.0626
   95CHL1  H24A 9499   2.866   0.784   7.904  0.1034 -0.4415 -0.9119
   95CHL1  H24B 9500   2.702   0.844   7.964 -0.3201  0.3553 -1.8741
   95CHL1   C25 9501   2.790   0.690   8.087 -0.0394 -0.0130  0.1304
   95CHL1   H25 9502   2.688   0.658   8.119 -0.7389  1.0025 -1.0001
   95CHL1   C26 9503   2.876   0.567   8.069  0.0988  0.6549  0.1612
   95CHL1  H26A 9504   2.911   0.528   8.166  0.0074  0.5770  0.1631
   95CHL1  H26B 9505   2.813   0.486   8.027  0.8107  0.2110 -0.0813
   95CHL1  H26C 9506   2.974   0.577   8.017  0.9548 -0.6446  1.4625
   95CHL1   C27 9507   2.847   0.788   8.196  0.1135  0.2772  0.0894
   95CHL1  H27A 9508   2.779   0.876   8.188  0.2347  0.3751  0.1238
   95CHL1  H27B 9509   2.844   0.756   8.303  0.4939 -0.8430 -0.2218
   95CHL1  H27C 9510   2.944   0.822   8.155  0.3658 -1.1098 -0.4801
   96CHL1    C3 9511   2.290   5.755   6.677  0.4541 -1.4415 -0.0869
   96CHL1    H3 9512   2.181   5.749   6.657  0.2965 -1.3451  0.7009
   96CHL1    O3 9513   2.350   5.736   6.554 -0.7457  0.4038  0.0619
   96CHL1   H3' 9514   2.342   5.819   6.505 -0.9442 -0.1233 -0.8181
   96CHL1    C4 9515   2.319   5.895   6.739  0.4139  0.1126 -0.1097
   96CHL1   H4A 9516   2.429   5.904   6.755  0.5254 -1.4399  0.1327
   96CHL1   H4B 9517   2.294   5.973   6.664 -0.8839 -1.1158 -0.9933
   96CHL1    C5 9518   2.248   5.911   6.876 -0.5540  0.4383  0.0985
   96CHL1    C6 9519   2.151   5.999   6.901  0.0449 -0.2637  0.0983
   96CHL1    H6 9520   2.135   6.072   6.819  1.6594  0.2857  0.2316
   96CHL1    C7 9521   2.092   6.032   7.035 -0.5632  0.0346  0.8242
   96CHL1   H7A 9522   2.087   6.142   7.051 -4.3231  0.3753 -1.4512
   96CHL1   H7B 9523   1.990   5.991   7.050 -1.4377  1.4814 -0.8558
   96CHL1    C8 9524   2.189   5.973   7.145  0.1362  0.0565 -0.0841
   96CHL1    H8 9525   2.287   6.023   7.134 -0.3227  1.1725  0.7777
   96CHL1   C14 9526   2.125   5.988   7.287  1.0517 -0.4302  0.9637
   96CHL1   H14 9527   2.023   5.946   7.284  0.5545  0.5500  2.8006
   96CHL1   C15 9528   2.096   6.132   7.340  0.3327  0.0066  0.1691
   96CHL1  H15A 9529   2.190   6.192   7.333  3.1117 -4.1460 -2.7578
   96CHL1  H15B 9530   2.011   6.180   7.287  0.5672 -1.1774 -1.3493
   96CHL1   C16 9531   2.069   6.109   7.486  0.8760  0.3726  0.3665
   96CHL1  H16A 9532   2.136   6.171   7.550 -0.8743  2.6720  0.0975
   96CHL1  H16B 9533   1.960   6.120   7.507  0.8924  0.6731  0.2982
   96CHL1   C17 9534   2.101   5.960   7.521 -0.1785  0.2748 -0.1570
   96CHL1   H17 9535   2.002   5.913   7.507  0.4911 -1.1677 -0.2347
   96CHL1   C13 9536   2.187   5.908   7.402  0.1142 -0.5054  0.4861
   96CHL1   C18 9537   2.340   5.958   7.416 -0.4505  0.7116  0.8774
   96CHL1  H18A 9538   2.406   5.890   7.475  0.2243 -1.2320 -1.9228
   96CHL1  H18B 9539   2.389   5.952   7.317 -0.8228 -0.2692  0.7443
   96CHL1  H18C 9540   2.337   6.063   7.454 -1.0181  0.3815  1.7762
   96CHL1   C12 9541   2.168   5.762   7.363 -0.1831  0.2939  0.0479
   96CHL1  H12A 9542   2.215   5.702   7.443 -1.0199  0.0978  0.4042
   96CHL1  H12B 9543   2.060   5.735   7.364 -0.7308  1.8545 -2.8753
   96CHL1   C11 9544   2.235   5.731   7.225 -0.2856  0.5110 -0.9053
   96CHL1  H11A 9545   2.344   5.717   7.240 -0.4736 -1.8662 -1.3400
   96CHL1  H11B 9546   2.204   5.626   7.207  0.0003  0.4387 -0.9869
   96CHL1    C9 9547   2.198   5.822   7.111 -0.1692  0.3138  0.2309
   96CHL1    H9 9548   2.093   5.793   7.092 -0.4444  0.5225  1.3476
   96CHL1   C10 9549   2.286   5.801   6.981  0.0911 -0.4374 -1.3447
   96CHL1   C19 9550   2.437   5.812   7.028  0.2279 -0.8584  0.3839
   96CHL1  H19A 9551   2.506   5.822   6.941 -1.8359  0.8454 -1.1811
   96CHL1  H19B 9552   2.446   5.897   7.099 -1.4978 -0.0447 -0.3114
   96CHL1  H19C 9553   2.467   5.718   7.078 -2.5888 -1.3463  1.3547
   96CHL1    C1 9554   2.251   5.663   6.924 -0.6025 -0.0101  0.1660
   96CHL1   H1A 9555   2.290   5.577   6.982  1.5448  1.4444  0.9707
   96CHL1   H1B 9556   2.142   5.641   6.918 -0.4354 -0.7398 -0.3597
   96CHL1    C2 9557   2.314   5.636   6.779  0.2029  0.9884 -0.2733
   96CHL1   H2A 9558   2.283   5.537   6.739 -0.9115  1.7886 -1.4763
   96CHL1   H2B 9559   2.423   5.631   6.803 -0.1636 -0.8152  1.3112
   96CHL1   C20 9560   2.156   5.942   7.671 -0.2990 -0.1339 -0.1969
   96CHL1   H20 9561   2.261   5.977   7.676  0.0437 -1.1560  0.0881
   96CHL1   C21 9562   2.150   5.789   7.705 -0.9796  0.0749 -0.5851
   96CHL1  H21A 9563   2.238   5.736   7.662  1.5249  2.6205  1.0589
   96CHL1  H21B 9564   2.064   5.744   7.652 -1.1319 -0.7347  0.3134
   96CHL1  H21C 9565   2.155   5.766   7.814  0.4235  0.8084 -0.4697
   96CHL1   C22 9566   2.058   6.008   7.767 -0.3126 -0.5728 -0.1545
   96CHL1  H22A 9567   2.025   6.112   7.744 -0.0268 -0.2902  0.6843
   96CHL1  H22B 9568   1.965   5.949   7.775  1.3803 -3.5223 -0.4899
   96CHL1   C23 9569   2.129   6.030   7.905 -0.9451 -0.3076 -0.1843
   96CHL1  H23A 9570   2.170   5.934   7.944  0.8186  0.5352  0.1209
   96CHL1  H23B 9571   2.214   6.099   7.886 -0.7706 -0.1235  1.1782
   96CHL1   C24 9572   2.029   6.085   8.012 -0.4608 -0.1488  0.2484
   96CHL1  H24A 9573   1.969   6.170   7.975  0.1230  0.2519  0.2171
   96CHL1  H24B 9574   1.953   6.005   8.028 -2.7590  1.3905 -2.0732
   96CHL1   C25 9575   2.094   6.120   8.150 -0.6595  1.1549  0.2324
   96CHL1   H25 9576   2.190   6.167   8.121  0.9266 -1.6264  0.6665
   96CHL1   C26 9577   2.002   6.207   8.233  0.2613  0.5385 -0.1380
   96CHL1  H26A 9578   1.963   6.293   8.175  0.6578 -0.2882 -1.6671
   96CHL1  H26B 9579   1.916   6.144   8.266 -0.2924 -1.3399 -4.4617
   96CHL1  H26C 9580   2.051   6.248   8.324 -0.3983  1.1261 -0.0375
   96CHL1   C27 9581   2.120   5.994   8.230  0.7174  0.3538  0.1597
   96CHL1  H27A 9582   2.194   5.926   8.182  0.1921 -1.3491  1.6641
   96CHL1  H27B 9583   2.174   6.033   8.320  2.6112  0.9602 -1.1764
   96CHL1  H27C 9584   2.023   5.947   8.256  1.3712 -1.5022 -0.6499
   97OSM      N 9585   6.746   0.542  11.216 -0.9008  0.3285 -0.2953
   97OSM    C15 9586   6.852   0.644  11.210 -1.1527  0.3883 -0.2584
   97OSM   H15A 9587   6.836   0.713  11.129  2.2395 -0.2023 -1.5967
   97OSM   H15B 9588   6.946   0.593  11.205 -2.0751 -1.2698 -1.5975
   97OSM   H15C 9589   6.847   0.701  11.302 -2.3631  2.5533 -1.5838
   97OSM    C14 9590   6.769   0.451  11.328  0.1661  0.0620  0.4730
   97OSM   H14A 9591   6.756   0.498  11.425 -2.8228 -0.2496  0.3104
   97OSM   H14B 9592   6.868   0.408  11.321  0.4284  0.4910  1.3800
   97OSM   H14C 9593   6.707   0.362  11.330  0.7863 -0.4065 -0.4143
   97OSM    C13 9594   6.615   0.612  11.232  0.1025  0.7994  0.5508
   97OSM   H13A 9595   6.626   0.686  11.310  1.5168  1.7050 -0.4520
   97OSM   H13B 9596   6.535   0.545  11.258  1.6570 -1.1573  0.5477
   97OSM   H13C 9597   6.595   0.673  11.146 -0.1673  1.2119  0.9041
   97OSM    C12 9598   6.751   0.463  11.081 -0.1468  0.6209  0.0243
   97OSM   H12A 9599   6.854   0.431  11.068 -0.5059 -0.4762 -0.2087
   97OSM   H12B 9600   6.731   0.531  11.000 -3.0846  1.3660  1.2470
   97OSM    C11 9601   6.666   0.332  11.073  0.0722 -0.3985 -0.0366
   97OSM   H11A 9602   6.670   0.302  10.966  0.8237 -1.6881  0.3290
   97OSM   H11B 9603   6.558   0.353  11.084 -0.1559 -1.3296 -0.3694
   97OSM      P 9604   6.823   0.134  11.135 -0.1874  0.1211  0.1671
   97OSM    O13 9605   6.925   0.204  11.053 -0.4393  0.6307  0.0139
   97OSM    O14 9606   6.868   0.070  11.261 -0.1134 -0.4238  0.2088
   97OSM    O11 9607   6.753   0.022  11.048 -0.1117  0.4086  0.1543
   97OSM    O12 9608   6.713   0.239  11.166  0.6422 -0.5364  0.4016
   97OSM    C1S 9609   6.632   0.023  10.975 -0.2913  0.1387  0.1313
   97OSM    H1S 9610   6.555   0.094  11.014 -0.5250 -0.2997  0.4751
   97OSM    H1T 9611   6.578  -0.074  10.979 -3.4053  1.7736  1.4975
   97OSM     NF 9612   6.524   0.038  10.754 -0.0994  0.3017 -0.1420
   97OSM    HNF 9613   6.505  -0.040  10.694  1.0183  0.9206 -1.3640
   97OSM    C2S 9614   6.653   0.044  10.821  0.1851 -0.3868 -0.3948
   97OSM    H2S 9615   6.694   0.146  10.806  0.6712 -0.4699  0.3078
   97OSM    C3S 9616   6.757  -0.037  10.751  0.0382 -0.2672 -0.2263
   97OSM    H3S 9617   6.711  -0.138  10.739 -2.2980  0.7253 -0.2114
   97OSM     O3 9618   6.880  -0.061  10.831  0.8519  0.3919 -0.3640
   97OSM    HO3 9619   6.848  -0.024  10.914 -0.5192  1.2285 -1.2292
   97OSM    C4S 9620   6.798   0.021  10.614 -0.1904 -0.3145 -0.2667
   97OSM    H4S 9621   6.851   0.117  10.615  1.1735 -1.0397 -0.3709
   97OSM    C5S 9622   6.748  -0.026  10.495 -0.6685 -0.1587  0.5972
   97OSM    H5S 9623   6.677  -0.110  10.488 -1.6511  0.6895  0.1313
   97OSM    C6S 9624   6.809   0.038  10.377  0.0162 -0.4091 -0.1315
   97OSM    H6S 9625   6.877  -0.037  10.332  1.9907  0.8396  0.6308
   97OSM    H6T 9626   6.871   0.125  10.407  1.0391 -0.9815 -0.5452
   97OSM    C7S 9627   6.712   0.096  10.271 -0.2159 -1.2364 -0.5647
   97OSM    H7S 9628   6.766   0.142  10.185 -1.1119 -0.7645 -0.8906
   97OSM    H7T 9629   6.653   0.184  10.306  1.4179 -0.7219  1.0565
   97OSM    C8S 9630   6.634  -0.015  10.204 -0.2226 -0.3155 -0.4563
   97OSM    H8S 9631   6.565  -0.060  10.278  1.9407 -0.7381  1.4180
   97OSM    H8T 9632   6.700  -0.091  10.158  0.9130  0.0113  0.5951
   97OSM    C9S 9633   6.541   0.050  10.099 -0.6468 -0.0461 -0.1116
   97OSM    H9S 9634   6.611   0.094  10.024 -0.0145 -0.0566  0.4603
   97OSM    H9T 9635   6.495   0.133  10.157 -0.5792 -0.9827  1.3270
   97OSM   C10S 9636   6.435  -0.046  10.031 -0.0899  0.4748 -0.3284
   97OSM   H10S 9637   6.377  -0.099  10.109 -0.2805 -1.2476 -1.5654
   97OSM   H10T 9638   6.510  -0.119   9.992 -0.3562 -0.2670  0.5239
   97OSM   C11S 9639   6.353   0.025   9.925 -0.0815 -0.3691 -0.0759
   97OSM   H11S 9640   6.301   0.110   9.976  0.1126  0.6818 -1.5601
   97OSM   H11T 9641   6.290  -0.056   9.883  1.4340 -1.9455  0.5631
   97OSM   C12S 9642   6.426   0.076   9.800  0.1264  0.6394  0.2540
   97OSM   H12S 9643   6.513   0.007   9.804 -1.3733 -1.4025 -0.3946
   97OSM   H12T 9644   6.462   0.176   9.831  1.7736 -0.2959  1.5265
   97OSM   C13S 9645   6.358   0.083   9.665 -0.1778 -0.1767  0.4425
   97OSM   H13S 9646   6.282   0.162   9.678  0.9075  0.5754  2.9386
   97OSM   H13T 9647   6.318  -0.017   9.638 -0.4960 -0.2005  0.9928
   97OSM   C14S 9648   6.452   0.130   9.553 -1.2678  0.3871 -0.0982
   97OSM   H14S 9649   6.543   0.066   9.549 -1.1378  0.6344 -1.9588
   97OSM   H14T 9650   6.492   0.231   9.574  1.5373 -0.5343 -0.6042
   97OSM   C15S 9651   6.385   0.121   9.418  0.7005 -0.3296 -0.0117
   97OSM   H15S 9652   6.288   0.174   9.429  0.9230  0.0629  0.0668
   97OSM   H15T 9653   6.356   0.015   9.402 -1.2568  0.4996 -2.7620
   97OSM   C16S 9654   6.474   0.189   9.316 -0.3763 -0.2645 -0.4551
   97OSM   H16S 9655   6.581   0.162   9.333 -0.0995  0.7819 -0.4566
   97OSM   H16T 9656   6.475   0.298   9.340  0.0043 -0.3903  0.1264
   97OSM   C17S 9657   6.441   0.158   9.165  0.7228  0.9101 -0.6022
   97OSM   H17S 9658   6.338   0.188   9.133  0.7177  2.1657  0.5009
   97OSM   H17T 9659   6.447   0.047   9.162 -0.5867  0.6879  1.9748
   97OSM   C18S 9660   6.533   0.233   9.066 -0.1924  0.8508 -0.3489
   97OSM   H18S 9661   6.502   0.340   9.062 -1.9083  0.4552  1.0929
   97OSM   H18T 9662   6.531   0.197   8.961 -0.3476 -1.1689  0.2952
   97OSM   H18U 9663   6.641   0.229   9.092 -0.1941 -0.4232 -0.4992
   97OSM    C1F 9664   6.426   0.115  10.788  0.0972 -0.9543  0.0966
   97OSM     OF 9665   6.445   0.222  10.847  0.1815 -0.4822 -0.1899
   97OSM    C2F 9666   6.295   0.070  10.751 -0.0758 -0.5439  0.3304
   97OSM    H2F 9667   6.214   0.078  10.827  0.2473  2.1855  0.4789
   97OSM    H2G 9668   6.302  -0.038  10.724  1.8561 -0.0315 -1.4980
   97OSM    C3F 9669   6.241   0.146  10.631  0.1907  0.6684 -0.0878
   97OSM    H3F 9670   6.257   0.256  10.639 -0.7175  1.1117 -3.1107
   97OSM    H3G 9671   6.131   0.129  10.631  0.1879  0.6702  0.3887
   97OSM    C4F 9672   6.304   0.089  10.501 -0.7043  0.2817  0.3286
   97OSM    H4F 9673   6.292  -0.022  10.492 -2.5976  0.5716 -1.5148
   97OSM    H4G 9674   6.411   0.110  10.522 -1.0787  0.6090  2.0539
   97OSM    C5F 9675   6.250   0.154  10.376 -0.0896  0.6392  0.2085
   97OSM    H5F 9676   6.311   0.119  10.290 -1.3941 -1.1080 -0.0635
   97OSM    H5G 9677   6.270   0.262  10.395  0.9756  0.1350  2.2594
   97OSM    C6F 9678   6.103   0.125  10.348  0.0945 -0.3139  0.0557
   97OSM    H6F 9679   6.042   0.182  10.421  0.3226 -0.6930  0.5456
   97OSM    H6G 9680   6.076   0.019  10.366 -1.9010 -0.0242 -0.9413
   97OSM    C7F 9681   6.052   0.182  10.212 -0.8308  0.2811  0.4841
   97OSM    H7F 9682   6.131   0.126  10.157  1.0639 -0.0813  3.3396
   97OSM    H7G 9683   6.053   0.292  10.220  0.0077  0.1592  2.9895
   97OSM    C8F 9684   5.919   0.130  10.167 -0.1262 -0.4907  0.5781
   97OSM    H8F 9685   5.835   0.181  10.220 -0.4479  0.5762 -0.8790
   97OSM    H8G 9686   5.901   0.020  10.168  2.0258 -0.9648 -1.8688
   97OSM    C9F 9687   5.912   0.184  10.023  0.1169 -0.7727  0.3394
   97OSM    H9F 9688   5.910   0.294  10.013  0.2390 -0.7271  0.7659
   97OSM   C10F 9689   5.927   0.102   9.919  0.6725 -0.2286  0.0918
   97OSM   H10F 9690   5.928   0.154   9.822  1.5217  3.2773  1.8205
   97OSM   C11F 9691   5.958  -0.050   9.922  0.3610 -0.3432  0.0283
   97OSM   H11F 9692   5.911  -0.104  10.006 -0.0856 -1.1841 -0.7408
   97OSM   H11G 9693   6.067  -0.069   9.936  0.4033  0.7923  1.5231
   97OSM   C12F 9694   5.897  -0.114   9.790 -0.3651  0.3393 -0.7709
   97OSM   H12F 9695   5.795  -0.083   9.762 -0.1012  0.2186 -1.9072
   97OSM   H12G 9696   5.884  -0.221   9.818  0.8623  0.5971  0.9089
   97OSM   C13F 9697   5.989  -0.105   9.670 -0.1203 -0.8243 -0.0515
   97OSM   H13F 9698   6.081  -0.165   9.689  0.8205  0.0997 -1.4731
   97OSM   H13G 9699   6.027  -0.005   9.641 -2.9257  0.9695  1.9932
   97OSM   C14F 9700   5.918  -0.163   9.542 -0.3464 -0.0691 -0.8136
   97OSM   H14F 9701   5.995  -0.156   9.462  0.9086  2.8947  0.4887
   97OSM   H14G 9702   5.828  -0.112   9.502  0.5705  2.2318 -0.1428
   97OSM   C15F 9703   5.875  -0.306   9.574 -0.0389  0.2565 -0.3382
   97OSM   H15F 9704   5.811  -0.298   9.665  0.8201  1.8149  0.1691
   97OSM   H15G 9705   5.958  -0.372   9.605 -0.0654  0.1955 -0.3986
   97OSM   C16F 9706   5.790  -0.371   9.460  0.4744  0.4590  0.0446
   97OSM   H16F 9707   5.701  -0.308   9.434  0.2398  0.2643  0.3774
   97OSM   H16G 9708   5.752  -0.464   9.507  3.6224 -0.6156  0.6350
   97OSM   C17F 9709   5.890  -0.403   9.344 -0.4156 -0.2933  0.0640
   97OSM   H17F 9710   5.974  -0.466   9.381 -2.7867 -2.7732  1.6558
   97OSM   H17G 9711   5.925  -0.309   9.297  0.9405 -0.7100  0.2110
   97OSM   C18F 9712   5.816  -0.488   9.239  1.0303 -0.2937  0.4973
   97OSM   H18F 9713   5.716  -0.440   9.227  1.6531  1.4997  2.0725
   97OSM   H18G 9714   5.781  -0.584   9.284  1.3560  0.1911  1.8096
   97OSM   H18H 9715   5.863  -0.512   9.141  1.1692  2.6079 -0.2402
   98OSM      N 9716   6.410   6.560  11.207  0.3234 -0.1957 -0.2445
   98OSM    C15 9717   6.457   6.696  11.238  0.1006 -0.5987 -0.0409
   98OSM   H15A 9718   6.562   6.691  11.264 -0.0580 -0.7471  0.5831
   98OSM   H15B 9719   6.400   6.735  11.321 -0.0295  1.3456 -0.9959
   98OSM   H15C 9720   6.432   6.769  11.163  0.1483 -0.8908 -0.3424
   98OSM    C14 9721   6.460   6.474  11.323  0.3512 -0.5391  0.8055
   98OSM   H14A 9722   6.430   6.370  11.322  0.9838 -0.7229  0.0776
   98OSM   H14B 9723   6.423   6.508  11.418 -1.0895  2.2672 -0.6308
   98OSM   H14C 9724   6.567   6.480  11.325  0.3043  0.1671  1.7563
   98OSM    C13 9725   6.259   6.562  11.214 -0.7057 -0.0927  0.5650
   98OSM   H13A 9726   6.214   6.465  11.226 -1.0583  0.0257  0.2445
   98OSM   H13B 9727   6.225   6.587  11.114 -0.4546 -1.5954  0.0814
   98OSM   H13C 9728   6.218   6.626  11.291  0.2491 -0.4804  1.4106
   98OSM    C12 9729   6.452   6.501  11.075  0.1451 -0.9160 -0.2295
   98OSM   H12A 9730   6.439   6.394  11.080  0.0325 -0.8837  0.1369
   98OSM   H12B 9731   6.551   6.533  11.046 -0.3193  1.9663  1.0042
   98OSM    C11 9732   6.371   6.538  10.948 -0.5886  0.8735  0.5471
   98OSM   H11A 9733   6.435   6.538  10.857  0.1799  1.9279  1.0644
   98OSM   H11B 9734   6.317   6.635  10.943 -2.8591 -0.3832 -1.8507
   98OSM      P 9735   6.275   6.287  10.931 -0.2791 -0.0002 -0.2890
   98OSM    O13 9736   6.411   6.242  10.918  0.1480  0.0861  0.1663
   98OSM    O14 9737   6.203   6.244  11.053 -0.3014 -0.8384  0.0768
   98OSM    O11 9738   6.196   6.247  10.803  0.0324 -0.5520 -0.4857
   98OSM    O12 9739   6.264   6.442  10.936 -0.1720 -0.5669  0.2393
   98OSM    C1S 9740   6.128   6.341  10.722 -0.7119 -0.0868  0.4612
   98OSM    H1S 9741   6.197   6.426  10.700  0.0629 -0.7823  0.1759
   98OSM    H1T 9742   6.039   6.375  10.780  0.4510  2.5576  0.8789
   98OSM     NF 9743   6.058   6.401  10.497  0.2041  0.4209  0.1639
   98OSM    HNF 9744   5.964   6.410  10.462  0.6506  1.3875 -0.8497
   98OSM    C2S 9745   6.085   6.288  10.581  0.4261 -0.1963 -0.5074
   98OSM    H2S 9746   6.171   6.240  10.529 -0.1253 -0.5903 -1.0611
   98OSM    C3S 9747   5.982   6.178  10.584  0.3950  0.2720 -1.0908
   98OSM    H3S 9748   5.882   6.224  10.601  1.6602  2.7907 -0.0652
   98OSM     O3 9749   6.009   6.073  10.676  0.7302 -0.4019 -0.1552
   98OSM    HO3 9750   6.091   6.102  10.716  0.4650  0.6196 -0.3261
   98OSM    C4S 9751   5.965   6.105  10.452  0.2433 -0.4814  0.5719
   98OSM    H4S 9752   5.881   6.150  10.398 -2.0860 -4.1377  0.8210
   98OSM    C5S 9753   6.051   6.017  10.398 -0.2401 -0.2242 -0.1472
   98OSM    H5S 9754   6.128   5.982  10.469 -1.1093  0.4697  1.1696
   98OSM    C6S 9755   6.042   5.939  10.269  0.0785  1.0676 -0.4162
   98OSM    H6S 9756   5.954   5.974  10.211 -1.1393  0.5575  1.0624
   98OSM    H6T 9757   6.023   5.831  10.283  0.1756  1.1356  0.2413
   98OSM    C7S 9758   6.171   5.952  10.193 -0.0434  0.3517 -0.0107
   98OSM    H7S 9759   6.255   5.900  10.245 -0.6161 -0.2692  0.3128
   98OSM    H7T 9760   6.197   6.058  10.174 -2.3236  0.3551 -4.3294
   98OSM    C8S 9761   6.154   5.899  10.053 -0.5685  0.9596  0.9994
   98OSM    H8S 9762   6.109   5.797  10.047  0.7675  0.1904  2.9836
   98OSM    H8T 9763   6.257   5.891  10.012 -0.7304  2.6793  0.1765
   98OSM    C9S 9764   6.066   5.977   9.954  0.2923 -0.0934 -0.1455
   98OSM    H9S 9765   6.061   6.085   9.979  0.2482  0.1088 -0.9853
   98OSM    H9T 9766   5.964   5.940   9.979 -0.3137  2.4742  1.5013
   98OSM   C10S 9767   6.105   5.968   9.808  0.0596 -0.8803  1.3356
   98OSM   H10S 9768   6.054   5.881   9.764 -1.0949  0.6269 -0.4623
   98OSM   H10T 9769   6.212   5.940   9.800  0.0231 -0.8446  0.6069
   98OSM   C11S 9770   6.075   6.100   9.734 -0.8203 -0.5170 -0.1095
   98OSM   H11S 9771   6.148   6.175   9.769 -0.3244  0.1689 -2.4140
   98OSM   H11T 9772   5.980   6.145   9.769  0.7095  1.8483  1.1666
   98OSM   C12S 9773   6.092   6.100   9.577 -0.1044 -0.0207  0.4952
   98OSM   H12S 9774   6.190   6.054   9.554  0.9738  2.5724 -0.5700
   98OSM   H12T 9775   6.103   6.206   9.543  2.3143 -0.2315  0.4977
   98OSM   C13S 9776   5.970   6.042   9.504 -0.1727  0.4829 -0.2286
   98OSM   H13S 9777   5.885   6.111   9.523 -2.1114 -2.2106  1.6752
   98OSM   H13T 9778   5.954   5.946   9.558 -0.6863  0.4880 -0.3644
   98OSM   C14S 9779   5.978   6.029   9.358 -0.2605 -0.1949 -0.0767
   98OSM   H14S 9780   6.057   5.956   9.330 -0.2130 -0.4966  0.8135
   98OSM   H14T 9781   6.006   6.124   9.307 -1.2333 -0.1386 -0.5312
   98OSM   C15S 9782   5.849   5.969   9.299  0.4462 -0.2616  0.1484
   98OSM   H15S 9783   5.758   6.032   9.309  0.4245 -0.5846  2.8808
   98OSM   H15T 9784   5.843   5.869   9.346  1.4164 -0.5951 -0.4218
   98OSM   C16S 9785   5.873   5.932   9.152  0.6978 -0.6406  0.0915
   98OSM   H16S 9786   5.922   6.018   9.101  2.5501 -0.0992  2.5906
   98OSM   H16T 9787   5.779   5.912   9.096  1.2074 -1.8745 -0.3725
   98OSM   C17S 9788   5.955   5.805   9.141 -0.4978  0.3192  0.3021
   98OSM   H17S 9789   5.894   5.728   9.193 -0.3635  1.8691  2.9488
   98OSM   H17T 9790   6.049   5.815   9.200 -0.4613 -0.2113  0.3415
   98OSM   C18S 9791   5.981   5.751   9.000 -0.1976  0.0146  0.6666
   98OSM   H18S 9792   6.047   5.662   8.989  0.5450  0.6709 -0.3127
   98OSM   H18T 9793   6.036   5.823   8.935 -1.7960  0.5980 -0.0726
   98OSM   H18U 9794   5.886   5.714   8.957 -1.1664  0.4383  2.3711
   98OSM    C1F 9795   6.153   6.470  10.444  0.2897  0.4164 -0.1658
   98OSM     OF 9796   6.273   6.440  10.463 -0.3989 -0.5390 -0.4663
   98OSM    C2F 9797   6.124   6.589  10.362  0.0228 -0.4977 -0.0410
   98OSM    H2F 9798   6.187   6.671  10.404 -1.7334  1.0849 -0.3325
   98OSM    H2G 9799   6.017   6.618  10.375  0.6018  2.1392 -0.6097
   98OSM    C3F 9800   6.163   6.562  10.220 -0.0010 -0.2253 -1.0331
   98OSM    H3F 9801   6.271   6.537  10.207  0.7570  1.4085  1.4284
   98OSM    H3G 9802   6.133   6.658  10.172 -2.2265 -0.9897 -1.2508
   98OSM    C4F 9803   6.078   6.446  10.166 -0.5531 -0.0020  0.4802
   98OSM    H4F 9804   5.973   6.477  10.182 -0.5268  0.3939 -0.1073
   98OSM    H4G 9805   6.097   6.349  10.218  0.6856 -0.1340 -0.1734
   98OSM    C5F 9806   6.091   6.433  10.023 -0.0862 -0.6066  0.1802
   98OSM    H5F 9807   6.063   6.529   9.975 -1.4114  0.6641  3.2312
   98OSM    H5G 9808   6.021   6.356   9.984 -0.9529 -0.0466  0.6037
   98OSM    C6F 9809   6.227   6.395   9.961 -0.6788 -0.5247 -0.4808
   98OSM    H6F 9810   6.231   6.285   9.948 -1.2431 -0.5304 -0.6155
   98OSM    H6G 9811   6.301   6.431  10.037 -1.2646  0.7027 -0.4662
   98OSM    C7F 9812   6.250   6.469   9.828  0.6194  0.5851 -0.0605
   98OSM    H7F 9813   6.238   6.573   9.865 -3.2125 -0.5825  2.7006
   98OSM    H7G 9814   6.173   6.453   9.749  1.8811 -1.8955 -0.8857
   98OSM    C8F 9815   6.401   6.461   9.781  0.2093 -0.1158 -0.4209
   98OSM    H8F 9816   6.408   6.358   9.741  0.4127 -0.0939 -0.4450
   98OSM    H8G 9817   6.478   6.466   9.861  3.3095 -1.6687 -3.0602
   98OSM    C9F 9818   6.420   6.557   9.667 -0.2644  1.0330 -0.2310
   98OSM    H9F 9819   6.502   6.626   9.692  0.2584 -0.1746  1.5787
   98OSM   C10F 9820   6.357   6.561   9.544 -0.6435  0.2835 -0.2485
   98OSM   H10F 9821   6.386   6.646   9.480  1.1717  1.3904  1.8792
   98OSM   C11F 9822   6.252   6.470   9.495  0.3078  0.3761  0.4401
   98OSM   H11F 9823   6.147   6.506   9.500  0.1465  0.3388 -1.7834
   98OSM   H11G 9824   6.260   6.377   9.555  0.2506 -0.6085 -1.0364
   98OSM   C12F 9825   6.261   6.427   9.338 -0.7327  0.0956 -0.4238
   98OSM   H12F 9826   6.175   6.359   9.324 -1.5353  0.5015  2.0536
   98OSM   H12G 9827   6.354   6.376   9.308 -0.8049  0.0820 -0.6260
   98OSM   C13F 9828   6.237   6.546   9.236  0.5365 -0.6978 -0.2290
   98OSM   H13F 9829   6.331   6.605   9.243  0.3061 -0.3537 -0.0136
   98OSM   H13G 9830   6.151   6.606   9.274 -0.2275 -0.3076 -2.4397
   98OSM   C14F 9831   6.224   6.490   9.090  0.5826 -0.5662  0.3259
   98OSM   H14F 9832   6.123   6.447   9.073  0.4253  0.0810 -0.3994
   98OSM   H14G 9833   6.297   6.406   9.087  2.8994  1.3343 -0.7917
   98OSM   C15F 9834   6.254   6.584   8.983  0.1520  0.3579  0.6534
   98OSM   H15F 9835   6.195   6.675   9.004  1.1537  0.7431  1.9234
   98OSM   H15G 9836   6.217   6.542   8.887 -0.2286 -1.0421  1.3751
   98OSM   C16F 9837   6.408   6.616   8.972  0.1571 -0.0816  0.6527
   98OSM   H16F 9838   6.467   6.525   8.949 -0.3929 -0.6080  1.2806
   98OSM   H16G 9839   6.440   6.647   9.074  0.4339 -0.4026  0.6643
   98OSM   C17F 9840   6.435   6.718   8.851  0.0351 -0.5290 -0.5385
   98OSM   H17F 9841   6.437   6.667   8.752  0.0586  1.5593 -1.6582
   98OSM   H17G 9842   6.531   6.772   8.865 -0.6632  1.4096 -2.6415
   98OSM   C18F 9843   6.321   6.821   8.819 -0.4005  0.6110 -0.2818
   98OSM   H18F 9844   6.360   6.889   8.740  0.6347 -1.0716 -1.2859
   98OSM   H18G 9845   6.295   6.870   8.915  1.1971 -1.3223  1.2230
   98OSM   H18H 9846   6.228   6.774   8.782  0.5895 -0.6590 -1.2832
   99OSM      N 9847   0.418   1.631  10.886 -0.4307 -0.2255 -0.1215
   99OSM    C15 9848   0.281   1.685  10.853  0.1867  0.0754  0.0490
   99OSM   H15A 9849   0.281   1.780  10.801 -0.1853 -0.1634 -0.3902
   99OSM   H15B 9850   0.230   1.708  10.945 -1.0067  1.4637 -0.9179
   99OSM   H15C 9851   0.228   1.611  10.796  1.2903  0.0613 -0.9919
   99OSM    C14 9852   0.495   1.751  10.940 -0.0239 -0.7202 -0.6135
   99OSM   H14A 9853   0.449   1.791  11.030  1.8481 -1.3420  0.6878
   99OSM   H14B 9854   0.500   1.832  10.868  0.0801 -0.2031 -0.0429
   99OSM   H14C 9855   0.595   1.721  10.968 -0.5801 -2.5514 -0.4601
   99OSM    C13 9856   0.401   1.533  10.996 -0.0974  0.4122 -0.1445
   99OSM   H13A 9857   0.348   1.443  10.966 -1.1011  0.2695  1.8543
   99OSM   H13B 9858   0.349   1.573  11.082  0.9246  0.2397  0.5737
   99OSM   H13C 9859   0.495   1.494  11.032 -0.6603  0.2612  1.2700
   99OSM    C12 9860   0.474   1.577  10.755 -0.1322  0.9551  0.3157
   99OSM   H12A 9861   0.581   1.570  10.767 -0.2675  2.2535  2.8594
   99OSM   H12B 9862   0.465   1.662  10.689 -0.4228  0.4930 -0.2464
   99OSM    C11 9863   0.416   1.453  10.691 -0.0674 -1.0470  0.3164
   99OSM   H11A 9864   0.444   1.454  10.583 -0.9724 -0.7831  0.0726
   99OSM   H11B 9865   0.306   1.458  10.700 -0.2417  0.9642 -1.9123
   99OSM      P 9866   0.398   1.198  10.727 -0.1999  0.3852 -0.0683
   99OSM    O13 9867   0.457   1.088  10.810  0.1147  0.4344  0.2655
   99OSM    O14 9868   0.251   1.203  10.716 -0.0268  0.1436 -0.7052
   99OSM    O11 9869   0.457   1.185  10.585 -0.0763 -0.2790  0.6056
   99OSM    O12 9870   0.465   1.346  10.762  0.1322  0.2504 -0.2271
   99OSM    C1S 9871   0.593   1.195  10.562 -0.1881  0.4599 -0.3743
   99OSM    H1S 9872   0.646   1.112  10.613 -1.7400 -0.9047 -0.8981
   99OSM    H1T 9873   0.638   1.289  10.601 -1.6030  0.4925  1.3235
   99OSM     NF 9874   0.770   1.152  10.387 -0.2007 -0.4016  0.6136
   99OSM    HNF 9875   0.825   1.233  10.371 -2.0501  0.4945 -1.6551
   99OSM    C2S 9876   0.628   1.181  10.410  0.0837  0.1533  0.1226
   99OSM    H2S 9877   0.562   1.100  10.373 -1.2239  0.7071  1.1818
   99OSM    C3S 9878   0.582   1.305  10.332 -0.0259  0.6617  0.1183
   99OSM    H3S 9879   0.628   1.393  10.381 -4.4664  2.9776  0.6291
   99OSM     O3 9880   0.446   1.325  10.327  0.1427 -0.0751  0.3378
   99OSM    HO3 9881   0.414   1.280  10.406  0.3712  0.1287  0.5458
   99OSM    C4S 9882   0.626   1.298  10.186 -0.1154 -0.2005 -0.0687
   99OSM    H4S 9883   0.558   1.234  10.129 -1.7457 -0.3319  1.9340
   99OSM    C5S 9884   0.720   1.380  10.130 -0.2127  0.0672  0.0015
   99OSM    H5S 9885   0.766   1.458  10.193 -0.9311 -1.0660  2.0350
   99OSM    C6S 9886   0.755   1.390   9.984 -0.2325 -0.3232 -0.6525
   99OSM    H6S 9887   0.827   1.312   9.950 -1.7623 -1.2526 -1.9156
   99OSM    H6T 9888   0.791   1.494   9.966  0.0193 -0.2663  0.1457
   99OSM    C7S 9889   0.619   1.373   9.912 -0.1154  0.5411 -0.0544
   99OSM    H7S 9890   0.535   1.428   9.960  0.8693  1.4930  0.6602
   99OSM    H7T 9891   0.587   1.267   9.914  2.3127 -0.2389  0.8946
   99OSM    C8S 9892   0.636   1.421   9.765 -0.4768 -0.0928  0.3912
   99OSM    H8S 9893   0.664   1.528   9.760 -1.0602  0.0467  0.0881
   99OSM    H8T 9894   0.529   1.413   9.737 -0.4193 -2.8465  0.6794
   99OSM    C9S 9895   0.718   1.335   9.667 -0.1082 -0.3181 -0.3031
   99OSM    H9S 9896   0.675   1.234   9.683 -1.1215  0.2778  1.0029
   99OSM    H9T 9897   0.821   1.344   9.707 -1.0755 -0.5631  2.4625
   99OSM   C10S 9898   0.708   1.367   9.519 -0.3227 -0.2048  0.5258
   99OSM   H10S 9899   0.599   1.365   9.496 -0.2882  0.9214  0.2512
   99OSM   H10T 9900   0.755   1.298   9.446  1.5103  2.5020 -0.9968
   99OSM   C11S 9901   0.756   1.505   9.483 -0.1812 -0.0588 -0.2030
   99OSM   H11S 9902   0.841   1.541   9.544  0.9668  0.4242 -2.0023
   99OSM   H11T 9903   0.673   1.575   9.506  1.1122  0.9536  1.6381
   99OSM   C12S 9904   0.823   1.523   9.343 -0.1562 -0.1139 -0.6898
   99OSM   H12S 9905   0.907   1.450   9.339  0.1919  0.2469 -0.1682
   99OSM   H12T 9906   0.741   1.512   9.269 -1.6990  3.8581  0.1888
   99OSM   C13S 9907   0.878   1.663   9.322  0.3782 -0.0562  0.1386
   99OSM   H13S 9908   0.936   1.701   9.409 -1.5806  1.2964  0.9153
   99OSM   H13T 9909   0.805   1.744   9.306 -0.3574 -0.9428 -1.1529
   99OSM   C14S 9910   0.971   1.676   9.200 -0.5190  0.2613 -0.5085
   99OSM   H14S 9911   0.944   1.599   9.125 -0.7820 -2.9188  2.5595
   99OSM   H14T 9912   1.076   1.657   9.229 -0.1259 -1.7986 -2.9789
   99OSM   C15S 9913   0.979   1.813   9.148  0.8436 -0.2526 -0.6608
   99OSM   H15S 9914   1.052   1.873   9.206 -1.3061  0.0095  1.9675
   99OSM   H15T 9915   0.882   1.868   9.150 -0.0383 -1.7446  1.6626
   99OSM   C16S 9916   1.032   1.812   9.004  0.5800  0.6772 -0.1251
   99OSM   H16S 9917   0.967   1.756   8.933 -1.0850  1.5574  0.6375
   99OSM   H16T 9918   1.128   1.758   9.018  0.6974  0.6527 -0.9720
   99OSM   C17S 9919   1.056   1.950   8.945  0.3934  0.2730 -0.7228
   99OSM   H17S 9920   1.127   1.995   9.018  1.0033 -2.3762  0.4812
   99OSM   H17T 9921   0.961   2.006   8.955  2.2731  3.5239  0.5719
   99OSM   C18S 9922   1.121   1.946   8.806  0.3501  0.4960  0.4798
   99OSM   H18S 9923   1.218   1.892   8.811 -0.7025 -1.6290 -0.6067
   99OSM   H18T 9924   1.135   2.050   8.769  1.6057  0.9376  2.1119
   99OSM   H18U 9925   1.044   1.905   8.737  1.0526  0.5215 -0.3217
   99OSM    C1F 9926   0.822   1.031  10.411  0.3267  0.0425 -0.2910
   99OSM     OF 9927   0.750   0.938  10.454 -0.1807  0.3380 -0.4554
   99OSM    C2F 9928   0.966   1.008  10.392 -0.6199  0.3175  0.2406
   99OSM    H2F 9929   1.001   0.967  10.489 -4.7952  0.0491  1.8382
   99OSM    H2G 9930   1.025   1.098  10.363  2.0837 -1.2025  0.6606
   99OSM    C3F 9931   0.990   0.897  10.286  0.3984  0.0929  0.0491
   99OSM    H3F 9932   1.097   0.869  10.299  0.7788  0.2240 -2.3548
   99OSM    H3G 9933   0.928   0.809  10.315  0.3934 -0.0101 -0.2647
   99OSM    C4F 9934   0.959   0.937  10.140  0.3138 -0.0265  0.0726
   99OSM    H4F 9935   0.858   0.982  10.140  0.2915 -0.0133  1.5279
   99OSM    H4G 9936   0.947   0.844  10.080 -0.0072 -1.3545  2.0958
   99OSM    C5F 9937   1.072   1.016  10.077  0.1002 -0.0623  0.2361
   99OSM    H5F 9938   1.162   0.954  10.098 -0.5382 -0.9258  0.4838
   99OSM    H5G 9939   1.086   1.112  10.130  1.1988  0.3938 -0.8176
   99OSM    C6F 9940   1.054   1.042   9.927 -0.4704 -0.9447  0.2285
   99OSM    H6F 9941   1.123   1.119   9.887 -0.2795 -1.2365 -0.0094
   99OSM    H6G 9942   0.950   1.077   9.910  0.2752  0.4785 -1.8146
   99OSM    C7F 9943   1.074   0.920   9.832 -0.5313 -0.1680  0.2635
   99OSM    H7F 9944   1.005   0.835   9.856 -0.9059  0.2214  0.5823
   99OSM    H7G 9945   1.174   0.877   9.855  1.2817  2.6397 -1.8163
   99OSM    C8F 9946   1.052   0.968   9.685  0.0990 -0.2513 -0.3537
   99OSM    H8F 9947   0.962   1.034   9.688 -0.6546 -0.9109 -3.9417
   99OSM    H8G 9948   1.010   0.883   9.628 -0.6142  0.2837 -0.6456
   99OSM    C9F 9949   1.156   1.048   9.617 -0.6786  0.6468  0.4655
   99OSM    H9F 9950   1.208   1.122   9.681 -0.2282 -1.5603  2.8432
   99OSM   C10F 9951   1.193   1.040   9.489 -0.4424  0.6363  0.2551
   99OSM   H10F 9952   1.271   1.109   9.454 -0.1157 -0.0552 -0.4072
   99OSM   C11F 9953   1.138   0.952   9.371 -0.5206  0.2800 -0.3010
   99OSM   H11F 9954   1.061   0.886   9.417  1.4175 -0.1003  2.6506
   99OSM   H11G 9955   1.223   0.888   9.341 -1.3624 -0.7460 -0.5710
   99OSM   C12F 9956   1.082   1.036   9.253 -0.0743 -0.3581 -0.5017
   99OSM   H12F 9957   1.046   0.958   9.182  0.2014 -1.6211  0.6930
   99OSM   H12G 9958   1.167   1.083   9.199  1.2031 -1.4639  0.4789
   99OSM   C13F 9959   0.966   1.127   9.284 -0.7378  0.2856 -0.0902
   99OSM   H13F 9960   1.004   1.222   9.328 -1.0641 -0.5877  2.2213
   99OSM   H13G 9961   0.902   1.078   9.361  0.6677 -0.7615  0.4428
   99OSM   C14F 9962   0.892   1.158   9.158  0.1438 -0.4272 -0.2874
   99OSM   H14F 9963   0.810   1.223   9.195  0.9488 -0.9764  2.8013
   99OSM   H14G 9964   0.853   1.071   9.102 -2.6708  0.5768 -0.0520
   99OSM   C15F 9965   0.970   1.256   9.062  0.3750  0.9925  0.6474
   99OSM   H15F 9966   1.041   1.200   8.997 -0.4348 -0.9684  1.3696
   99OSM   H15G 9967   1.027   1.324   9.129 -0.0598  1.6499  0.3494
   99OSM   C16F 9968   0.878   1.332   8.972 -0.2030 -0.6867 -0.3345
   99OSM   H16F 9969   0.822   1.398   9.041 -0.2265 -0.1194 -0.8866
   99OSM   H16G 9970   0.816   1.265   8.909  0.1492 -2.5872  1.2408
   99OSM   C17F 9971   0.963   1.419   8.875 -0.0489 -0.1342  0.6937
   99OSM   H17F 9972   1.035   1.367   8.808 -0.5535  0.0245  0.0149
   99OSM   H17G 9973   1.019   1.481   8.948  1.7744 -1.7431  0.7435
   99OSM   C18F 9974   0.872   1.501   8.793  0.8576  0.7062 -0.1530
   99OSM   H18F 9975   0.792   1.435   8.752 -0.7965  1.2036  2.0941
   99OSM   H18G 9976   0.925   1.556   8.712  0.3691  0.9723 -0.3004
   99OSM   H18H 9977   0.814   1.573   8.855  2.5438  2.7938 -0.8981
  100OSM      N 9978   3.256   2.609  10.556  0.2240  0.4691 -0.1859
  100OSM    C15 9979   3.158   2.714  10.602 -0.4958  0.1265  0.6780
  100OSM   H15A 9980   3.060   2.675  10.628 -0.0889 -0.2819  1.6296
  100OSM   H15B 9981   3.134   2.786  10.525 -1.9970 -1.9531 -0.9117
  100OSM   H15C 9982   3.185   2.763  10.695  0.1197 -0.3034  0.7323
  100OSM    C14 9983   3.242   2.574  10.413  0.0241  0.0339 -0.5389
  100OSM   H14A 9984   3.315   2.496  10.392 -0.2093  0.0754 -1.5998
  100OSM   H14B 9985   3.258   2.664  10.354 -1.5724  1.0291  0.4969
  100OSM   H14C 9986   3.140   2.549  10.386  0.1520 -0.7215 -0.3546
  100OSM    C13 9987   3.393   2.662  10.572  0.3542  0.1561  0.6798
  100OSM   H13A 9988   3.410   2.747  10.507  0.9643 -0.8970 -0.5735
  100OSM   H13B 9989   3.478   2.597  10.555 -0.9227 -1.2868 -0.5011
  100OSM   H13C 9990   3.391   2.707  10.670  0.6063  0.3861  0.5816
  100OSM    C12 9991   3.229   2.493  10.655 -0.0618 -0.3646 -0.1738
  100OSM   H12A 9992   3.134   2.452  10.624 -0.1609 -0.2554 -0.0112
  100OSM   H12B 9993   3.228   2.544  10.750 -0.9693  1.9133 -1.3358
  100OSM    C11 9994   3.320   2.375  10.647  0.3429  0.2413 -0.3982
  100OSM   H11A 9995   3.421   2.395  10.687  0.0460 -1.7932  1.5925
  100OSM   H11B 9996   3.331   2.330  10.546  0.6437 -1.2318  0.2707
  100OSM      P 9997   3.135   2.198  10.690 -0.3377 -0.1350  0.3650
  100OSM    O13 9998   3.117   2.081  10.774 -0.1482 -0.2508 -0.0921
  100OSM    O14 9999   3.024   2.297  10.686  0.3654  0.0251  0.7076
  100OSM    O1110000   3.171   2.152  10.542 -0.5731  0.5162 -0.2196
  100OSM    O1210001   3.265   2.274  10.733  0.0342 -0.3658 -0.6302
  100OSM    C1S10002   3.287   2.064  10.528 -0.0313 -0.2356 -0.1424
  100OSM    H1S10003   3.278   1.961  10.569 -0.1723 -0.2045 -0.0953
  100OSM    H1T10004   3.378   2.117  10.561 -0.8338 -0.1420  2.0732
  100OSM     NF10005   3.424   1.926  10.376  0.4683  0.0683  0.6983
  100OSM    HNF10006   3.517   1.957  10.359  1.2214 -1.5513  1.6014
  100OSM    C2S10007   3.313   2.026  10.380  0.1172 -0.9765  0.2663
  100OSM    H2S10008   3.219   1.977  10.346 -0.2384 -0.5833  0.6544
  100OSM    C3S10009   3.330   2.159  10.293 -0.1737 -0.2751  0.4076
  100OSM    H3S10010   3.417   2.213  10.336  0.3869  0.6199 -1.7234
  100OSM     O310011   3.222   2.255  10.308  0.1855  0.2054  0.0748
  100OSM    HO310012   3.184   2.227  10.391  1.0467 -0.6503  0.2003
  100OSM    C4S10013   3.359   2.125  10.150  0.8291 -0.9384  0.2296
  100OSM    H4S10014   3.273   2.079  10.100  1.0506  1.0140 -2.1493
  100OSM    C5S10015   3.463   2.158  10.068  0.2507 -0.5552 -0.5345
  100OSM    H5S10016   3.550   2.207  10.114 -0.3030 -0.8001  0.8034
  100OSM    C6S10017   3.480   2.136   9.921  0.0592 -0.1357  0.5950
  100OSM    H6S10018   3.391   2.083   9.879  1.0844 -0.5360 -1.1992
  100OSM    H6T10019   3.558   2.058   9.908 -0.6259 -0.6972 -0.3292
  100OSM    C7S10020   3.513   2.258   9.837 -0.4893  0.1323  0.1403
  100OSM    H7S10021   3.610   2.299   9.872 -0.8115  1.0263  0.0102
  100OSM    H7T10022   3.440   2.342   9.844 -0.0272  0.5178  0.3805
  100OSM    C8S10023   3.523   2.225   9.687  0.3112 -0.2480 -0.4667
  100OSM    H8S10024   3.428   2.182   9.648 -0.5187  1.2464 -0.1563
  100OSM    H8T10025   3.589   2.135   9.682 -0.4992 -0.9978  1.5504
  100OSM    C9S10026   3.560   2.337   9.595  0.2098 -0.0528  0.5395
  100OSM    H9S10027   3.666   2.364   9.617  0.6784  0.0593 -1.6275
  100OSM    H9T10028   3.497   2.427   9.611  0.6928  0.3252  0.3256
  100OSM   C10S10029   3.542   2.299   9.451  0.1175  0.4002  0.8058
  100OSM   H10S10030   3.436   2.277   9.426 -0.1353 -0.6223  2.5845
  100OSM   H10T10031   3.601   2.208   9.428 -0.7696 -0.3545  1.4560
  100OSM   C11S10032   3.565   2.413   9.352 -0.9048  0.0987 -0.0451
  100OSM   H11S10033   3.665   2.452   9.380  0.0094 -1.8316 -0.4778
  100OSM   H11T10034   3.491   2.495   9.368  0.6747  1.4170  0.7992
  100OSM   C12S10035   3.571   2.377   9.201 -0.1484  0.3274 -0.5919
  100OSM   H12S10036   3.474   2.329   9.178 -1.4756  2.4045  0.3204
  100OSM   H12T10037   3.660   2.311   9.193 -1.9946 -3.0029  3.0552
  100OSM   C13S10038   3.576   2.503   9.111 -0.4651 -0.0004  0.0126
  100OSM   H13S10039   3.676   2.547   9.129  0.1995 -0.7230 -1.6731
  100OSM   H13T10040   3.504   2.581   9.141 -0.4438  0.8946 -2.0833
  100OSM   C14S10041   3.574   2.470   8.964 -0.0526  0.1943 -1.1305
  100OSM   H14S10042   3.472   2.445   8.928  0.2690 -1.2090 -1.1103
  100OSM   H14T10043   3.639   2.382   8.944 -0.6613 -1.1301  2.1356
  100OSM   C15S10044   3.613   2.595   8.880 -0.2135  0.7286 -0.8114
  100OSM   H15S10045   3.704   2.635   8.929 -0.9600  0.3018  0.9929
  100OSM   H15T10046   3.539   2.677   8.888  0.2843  1.0509  1.0211
  100OSM   C16S10047   3.639   2.557   8.739 -0.3071  0.1733  0.0669
  100OSM   H16S10048   3.549   2.530   8.679 -0.8413  2.8589 -0.4926
  100OSM   H16T10049   3.705   2.468   8.734  0.1922  0.5776 -0.9344
  100OSM   C17S10050   3.715   2.666   8.657 -0.2234  0.2334 -0.3263
  100OSM   H17S10051   3.805   2.679   8.720 -0.1738 -0.7176 -0.1874
  100OSM   H17T10052   3.667   2.766   8.645 -2.1257 -0.6840 -0.7667
  100OSM   C18S10053   3.753   2.610   8.519 -0.1627 -0.0347  0.1114
  100OSM   H18S10054   3.682   2.649   8.443  0.6457  0.7480 -0.2551
  100OSM   H18T10055   3.764   2.500   8.524 -1.1944 -0.2330 -1.3313
  100OSM   H18U10056   3.852   2.652   8.493 -1.5987  3.2960 -0.5707
  100OSM    C1F10057   3.421   1.799  10.403  0.3429  0.2337 -0.4473
  100OSM     OF10058   3.324   1.741  10.443  0.3234  0.3821  0.9492
  100OSM    C2F10059   3.551   1.727  10.383 -0.6226 -0.4096  0.4393
  100OSM    H2F10060   3.567   1.657  10.468  1.5676  1.3460  1.5687
  100OSM    H2G10061   3.633   1.802  10.387 -0.9042 -0.1218  0.8546
  100OSM    C3F10062   3.560   1.642  10.254 -0.0445  0.7159  0.0137
  100OSM    H3F10063   3.480   1.565  10.253 -0.0347  0.6862 -1.3108
  100OSM    H3G10064   3.658   1.590  10.259 -0.1941  0.4810  0.5308
  100OSM    C4F10065   3.573   1.723  10.125  0.1162  0.2835  0.0479
  100OSM    H4F10066   3.648   1.801  10.147 -1.8222  2.2085  0.1037
  100OSM    H4G10067   3.483   1.783  10.101  0.6027  0.5399 -1.1869
  100OSM    C5F10068   3.603   1.626  10.006  0.1720 -0.1452 -0.5395
  100OSM    H5F10069   3.538   1.536  10.014  1.1427 -0.8411 -0.3154
  100OSM    H5G10070   3.710   1.596  10.009  1.0135  2.6335  1.6506
  100OSM    C6F10071   3.568   1.697   9.873  0.4678  0.7165  0.0916
  100OSM    H6F10072   3.479   1.763   9.871  1.2357  1.8295  1.2468
  100OSM    H6G10073   3.535   1.617   9.803 -0.2751  2.3452 -1.5126
  100OSM    C7F10074   3.689   1.770   9.805 -0.4769 -0.2455  0.3086
  100OSM    H7F10075   3.777   1.710   9.774 -0.2281  1.7946 -3.4615
  100OSM    H7G10076   3.731   1.833   9.887  0.6903 -2.5209  1.5811
  100OSM    C8F10077   3.641   1.847   9.684  0.1301 -0.2454 -0.5583
  100OSM    H8F10078   3.721   1.914   9.647  2.6778 -2.9205 -0.2171
  100OSM    H8G10079   3.558   1.915   9.713  1.9155  1.6877  0.2669
  100OSM    C9F10080   3.589   1.765   9.572  0.3557 -0.5814  0.2241
  100OSM    H9F10081   3.505   1.699   9.600  1.2803 -1.1769  1.6987
  100OSM   C10F10082   3.631   1.775   9.447 -0.6542 -1.2262 -0.5392
  100OSM   H10F10083   3.583   1.721   9.364  2.2794 -2.5026 -1.5572
  100OSM   C11F10084   3.734   1.875   9.394  0.0213 -0.1473  0.3252
  100OSM   H11F10085   3.837   1.841   9.418 -0.3815 -0.4371  1.7860
  100OSM   H11G10086   3.725   1.973   9.448  0.0443 -0.4731  0.9335
  100OSM   C12F10087   3.714   1.895   9.244  0.2918 -0.4018 -0.2383
  100OSM   H12F10088   3.619   1.952   9.239 -1.1006 -2.4581  1.4432
  100OSM   H12G10089   3.703   1.808   9.175  0.2687 -1.5476  1.1545
  100OSM   C13F10090   3.823   1.987   9.189  0.5283  0.2670  0.2518
  100OSM   H13F10091   3.918   1.935   9.216  0.0186 -0.3254  0.9450
  100OSM   H13G10092   3.818   2.089   9.231  0.4589  0.8682 -1.1669
  100OSM   C14F10093   3.814   1.997   9.034 -1.4605  0.1641 -0.1598
  100OSM   H14F10094   3.781   1.898   8.996 -0.8918 -0.7120  1.5022
  100OSM   H14G10095   3.917   2.028   9.005 -0.4510 -0.0772  2.7634
  100OSM   C15F10096   3.709   2.099   8.983  0.0313  0.4643  0.1791
  100OSM   H15F10097   3.749   2.200   9.009  1.6916 -0.3310  0.9080
  100OSM   H15G10098   3.615   2.078   9.038 -0.6669  0.3590 -1.0264
  100OSM   C16F10099   3.680   2.094   8.834 -0.2255 -0.0844 -0.4181
  100OSM   H16F10100   3.612   2.180   8.818  0.7879  1.0567  1.1626
  100OSM   H16G10101   3.619   2.002   8.815 -1.8674  0.5967  1.2064
  100OSM   C17F10102   3.797   2.115   8.734 -0.2684 -0.1444  0.0128
  100OSM   H17F10103   3.861   2.025   8.749 -1.2312 -0.7547  0.5070
  100OSM   H17G10104   3.863   2.199   8.763 -0.0609 -0.1980 -0.2905
  100OSM   C18F10105   3.757   2.135   8.582 -0.6557 -0.4464 -1.1123
  100OSM   H18F10106   3.685   2.059   8.545 -1.2256 -0.1808 -0.5519
  100OSM   H18G10107   3.847   2.132   8.517 -0.1615 -1.1441 -0.4163
  100OSM   H18H10108   3.702   2.231   8.582 -1.6376 -0.9853 -0.3105
  101OSM      N10109   6.233   1.248  10.865 -0.1911  0.2844  0.0220
  101OSM    C1510110   6.337   1.291  10.775 -0.2046 -0.0019  0.5202
  101OSM   H15A10111   6.386   1.381  10.812 -1.7508  1.4542 -0.8056
  101OSM   H15B10112   6.308   1.305  10.672 -1.6300 -0.9676  0.7676
  101OSM   H15C10113   6.420   1.222  10.770 -0.8788 -0.7572 -0.6034
  101OSM    C1410114   6.159   1.145  10.795  0.9466 -0.5426 -0.0076
  101OSM   H14A10115   6.105   1.088  10.868  0.7624 -0.2062  0.1211
  101OSM   H14B10116   6.226   1.072  10.751  0.1895 -1.9141  1.0721
  101OSM   H14C10117   6.082   1.182  10.728 -0.9009 -1.1725  1.6913
  101OSM    C1310118   6.289   1.187  10.986 -0.1743 -0.0324  0.2962
  101OSM   H13A10119   6.353   1.250  11.046 -0.2001 -0.0399  0.3317
  101OSM   H13B10120   6.359   1.110  10.958  1.2489  0.6206  1.8722
  101OSM   H13C10121   6.221   1.131  11.048  1.2497 -0.6404  1.3663
  101OSM    C1210122   6.154   1.370  10.913 -0.0222 -0.5769 -0.3953
  101OSM   H12A10123   6.109   1.431  10.835 -0.2062  0.0751  0.2125
  101OSM   H12B10124   6.222   1.435  10.967 -1.7321  0.5835  0.4426
  101OSM    C1110125   6.034   1.341  11.003 -0.1125  1.0529 -0.1502
  101OSM   H11A10126   6.016   1.436  11.057 -0.4393  0.0358  1.6191
  101OSM   H11B10127   6.051   1.264  11.081 -2.0104 -0.0365 -0.7343
  101OSM      P10128   5.825   1.395  10.861  0.3541 -0.0250  0.1147
  101OSM    O1310129   5.726   1.327  10.774  0.0996  0.6176 -0.0749
  101OSM    O1410130   5.771   1.479  10.971 -0.2882  0.0333 -0.2232
  101OSM    O1110131   5.915   1.490  10.770  0.2640  0.5724  0.0273
  101OSM    O1210132   5.927   1.295  10.930 -0.0363 -0.2433 -0.3162
  101OSM    C1S10133   5.973   1.439  10.650 -0.5093  0.4111  0.0842
  101OSM    H1S10134   5.957   1.331  10.630  0.8094  0.4569 -1.3987
  101OSM    H1T10135   6.083   1.443  10.641 -0.6190  0.1990 -1.6727
  101OSM     NF10136   6.006   1.449  10.409  0.0589  0.1003  0.3380
  101OSM    HNF10137   6.093   1.488  10.380  1.2518 -1.4626  1.5923
  101OSM    C2S10138   5.935   1.514  10.524 -0.1136  0.0962  0.1049
  101OSM    H2S10139   5.825   1.514  10.506 -0.1121  0.7832  0.0845
  101OSM    C3S10140   5.958   1.670  10.549 -0.5493  0.1216 -0.2000
  101OSM    H3S10141   6.066   1.681  10.571  0.0594 -1.2857 -2.1686
  101OSM     O310142   5.880   1.737  10.650 -0.1960  0.0301  0.3348
  101OSM    HO310143   5.839   1.666  10.701 -0.6135  1.2089  1.6986
  101OSM    C4S10144   5.932   1.742  10.420  0.0951 -0.2484 -0.5437
  101OSM    H4S10145   6.024   1.778  10.373  1.3977 -0.6303  1.6030
  101OSM    C5S10146   5.810   1.776  10.375  0.1894  0.6944 -0.6664
  101OSM    H5S10147   5.725   1.757  10.441 -0.1624  0.4732 -1.1824
  101OSM    C6S10148   5.777   1.845  10.246  0.0288  0.2393  0.0498
  101OSM    H6S10149   5.735   1.947  10.265  0.0766  0.1609  0.6060
  101OSM    H6T10150   5.699   1.780  10.201 -0.0233 -1.1458  1.9780
  101OSM    C7S10151   5.899   1.878  10.156 -0.1495  0.4651  0.2068
  101OSM    H7S10152   5.960   1.786  10.147  0.3684  0.9356 -1.4080
  101OSM    H7T10153   5.971   1.954  10.194  1.3498 -0.7943 -0.0021
  101OSM    C8S10154   5.852   1.924  10.014  0.2075 -0.3950  0.7287
  101OSM    H8S10155   5.800   2.020  10.033 -1.3907 -1.0752  0.0200
  101OSM    H8T10156   5.775   1.847   9.988 -0.2177  0.8307 -1.9304
  101OSM    C9S10157   5.958   1.934   9.910 -0.5225  0.5574  0.1293
  101OSM    H9S10158   6.007   1.835   9.902 -0.9972 -0.0065  3.0484
  101OSM    H9T10159   6.040   2.005   9.936 -0.3910  0.9706 -1.3134
  101OSM   C10S10160   5.900   1.988   9.781  0.8241  0.1317 -0.0728
  101OSM   H10S10161   5.886   2.098   9.782  1.3148  0.2668 -2.4036
  101OSM   H10T10162   5.797   1.950   9.767  0.8484 -0.1003  0.3565
  101OSM   C11S10163   5.978   1.941   9.655 -0.6201 -0.1478  0.1508
  101OSM   H11S10164   5.982   1.830   9.654  0.3420 -0.1897  2.5932
  101OSM   H11T10165   6.081   1.983   9.646 -0.9988  0.5292 -1.3091
  101OSM   C12S10166   5.906   1.994   9.531 -0.0342  0.0295 -0.4318
  101OSM   H12S10167   5.881   2.101   9.548  0.3943  0.4499 -2.2686
  101OSM   H12T10168   5.809   1.940   9.527 -0.6414  1.1574 -2.9274
  101OSM   C13S10169   5.988   2.005   9.400 -0.4597  0.0910 -0.0552
  101OSM   H13S10170   6.039   1.908   9.381  0.3560 -0.1365  2.8924
  101OSM   H13T10171   6.077   2.070   9.398  0.3264 -0.9512  0.1826
  101OSM   C14S10172   5.902   2.056   9.287  0.2783 -0.7889 -0.1381
  101OSM   H14S10173   5.860   2.159   9.296  0.1711 -0.7759 -0.7285
  101OSM   H14T10174   5.816   1.987   9.272 -1.3181  1.4729 -2.2654
  101OSM   C15S10175   5.968   2.047   9.148 -0.0087 -0.1152  0.6326
  101OSM   H15S10176   5.984   1.945   9.108 -2.8112  0.2229 -1.6354
  101OSM   H15T10177   6.063   2.103   9.164  1.0445 -1.3072 -1.1899
  101OSM   C16S10178   5.889   2.126   9.033  0.2752  0.0285  0.0987
  101OSM   H16S10179   5.907   2.234   9.050  0.1795  0.1748 -0.6889
  101OSM   H16T10180   5.783   2.102   9.056  0.5248 -2.2895 -0.9313
  101OSM   C17S10181   5.910   2.083   8.888  0.5716 -0.4259 -0.2744
  101OSM   H17S10182   5.843   2.141   8.821 -0.9103 -0.2995  1.2469
  101OSM   H17T10183   5.889   1.975   8.868  0.1019 -0.1784 -1.1584
  101OSM   C18S10184   6.050   2.121   8.845  0.5001  0.8203 -0.1558
  101OSM   H18S10185   6.129   2.078   8.911 -0.4034 -0.3153  0.2234
  101OSM   H18T10186   6.057   2.232   8.853 -0.5478  0.7545  5.1021
  101OSM   H18U10187   6.064   2.070   8.747 -0.9284  0.9237 -0.4334
  101OSM    C1F10188   5.971   1.333  10.362  0.6094  0.6555  0.5700
  101OSM     OF10189   5.880   1.264  10.413  0.2631 -0.7319 -0.3176
  101OSM    C2F10190   6.040   1.271  10.242 -0.0039 -0.3308  0.3880
  101OSM    H2F10191   6.151   1.281  10.249 -0.0877 -0.0487  1.3606
  101OSM    H2G10192   6.018   1.340  10.157 -1.8143 -0.3146  0.8404
  101OSM    C3F10193   6.005   1.125  10.194 -0.0355  0.8473 -0.1721
  101OSM    H3F10194   5.897   1.102  10.196 -0.0207  0.7700 -0.2475
  101OSM    H3G10195   6.031   1.064  10.284  0.8579  1.5274  0.0444
  101OSM    C4F10196   6.077   1.068  10.070 -0.3217 -0.5155 -0.2966
  101OSM    H4F10197   6.138   0.983  10.106  0.8271  0.3318 -0.1663
  101OSM    H4G10198   6.149   1.142  10.027  1.4987 -1.9299  0.2192
  101OSM    C5F10199   5.983   1.036   9.947  0.0644 -0.4155 -0.2699
  101OSM    H5F10200   5.894   0.981   9.984  0.8355 -0.5302  1.5259
  101OSM    H5G10201   6.035   0.972   9.873  0.0629 -2.1719  1.1739
  101OSM    C6F10202   5.925   1.162   9.882  0.2024 -0.1193 -0.0868
  101OSM    H6F10203   5.866   1.221   9.956 -1.4459 -1.4365 -0.3089
  101OSM    H6G10204   6.012   1.229   9.863  0.4389 -0.2425  0.5329
  101OSM    C7F10205   5.857   1.144   9.753 -1.1337  0.2267 -0.9067
  101OSM    H7F10206   5.802   1.236   9.725 -1.5664  0.4230  0.5092
  101OSM    H7G10207   5.766   1.080   9.757 -0.9746  0.0378 -0.1449
  101OSM    C8F10208   5.950   1.093   9.644 -1.0916 -0.0733 -0.0880
  101OSM    H8F10209   5.995   0.994   9.667  0.3169  0.5169 -0.1875
  101OSM    H8G10210   6.044   1.152   9.635 -0.3476 -1.1863  0.1406
  101OSM    C9F10211   5.868   1.080   9.511  0.7955 -0.1652 -0.4571
  101OSM    H9F10212   5.769   1.036   9.531 -0.4337  3.1859  1.6367
  101OSM   C10F10213   5.896   1.133   9.391 -0.0729 -0.2755 -0.3736
  101OSM   H10F10214   5.830   1.106   9.308  1.8717 -1.4630 -1.6219
  101OSM   C11F10215   6.011   1.214   9.347 -0.4877  0.2670 -0.5996
  101OSM   H11F10216   6.089   1.213   9.426 -1.2116  0.3721  0.1390
  101OSM   H11G10217   5.957   1.311   9.338  0.1360  0.6410 -0.3798
  101OSM   C12F10218   6.084   1.194   9.206  0.0536  0.3845  0.3087
  101OSM   H12F10219   6.001   1.189   9.132 -0.8428  1.8531  1.1546
  101OSM   H12G10220   6.148   1.103   9.205 -0.1569  0.1713  2.1072
  101OSM   C13F10221   6.179   1.308   9.164  0.3492 -0.0022 -0.5554
  101OSM   H13F10222   6.231   1.333   9.259  2.1015 -3.3335 -0.5050
  101OSM   H13G10223   6.124   1.396   9.125  1.0531  1.0917  0.8456
  101OSM   C14F10224   6.294   1.276   9.063 -0.8039 -0.1835  0.5620
  101OSM   H14F10225   6.352   1.192   9.108  0.6223  0.9265  0.8561
  101OSM   H14G10226   6.361   1.364   9.062 -2.0973  0.8275  0.8098
  101OSM   C15F10227   6.239   1.252   8.918 -0.1545 -0.2603 -0.7221
  101OSM   H15F10228   6.194   1.347   8.882  0.2116 -0.4163 -1.6135
  101OSM   H15G10229   6.159   1.177   8.935 -0.3976  0.4152  1.4022
  101OSM   C16F10230   6.347   1.204   8.824  0.5192 -0.0742 -1.0570
  101OSM   H16F10231   6.302   1.166   8.730 -0.3790 -1.3204 -0.1628
  101OSM   H16G10232   6.388   1.112   8.870 -0.4874  0.6591  1.5158
  101OSM   C17F10233   6.451   1.308   8.784 -0.0935 -0.5268 -0.1277
  101OSM   H17F10234   6.535   1.252   8.738  0.4894  0.0529  0.2099
  101OSM   H17G10235   6.502   1.354   8.872  1.3549 -0.7629 -0.8036
  101OSM   C18F10236   6.405   1.416   8.684  0.3046  0.0056 -0.0066
  101OSM   H18F10237   6.488   1.488   8.661  0.7849 -0.5851 -0.1461
  101OSM   H18G10238   6.319   1.475   8.723  0.7422  0.4984  0.2308
  101OSM   H18H10239   6.370   1.373   8.587 -0.7719  1.8766 -0.5057
  102OSM      N10240   2.674   5.067  10.953  0.2786  0.3115  0.1434
  102OSM    C1510241   2.720   4.977  11.062  0.3801 -0.0069  0.0404
  102OSM   H15A10242   2.648   4.899  11.083  0.8669 -0.5726 -0.3413
  102OSM   H15B10243   2.733   5.030  11.155  0.5122 -1.4310  0.8589
  102OSM   H15C10244   2.816   4.938  11.029  1.0797  2.5014 -1.0867
  102OSM    C1410245   2.553   5.135  11.008 -0.1993 -0.1923  0.6092
  102OSM   H14A10246   2.494   5.057  11.052  1.4345 -2.3529 -0.8385
  102OSM   H14B10247   2.494   5.177  10.927  0.3605  0.4485  0.5228
  102OSM   H14C10248   2.588   5.203  11.085  0.0334 -2.0286  2.1773
  102OSM    C1310249   2.771   5.181  10.922 -0.5215 -0.9964  1.2631
  102OSM   H13A10250   2.727   5.252  10.854 -0.8699 -0.5374  1.9597
  102OSM   H13B10251   2.844   5.137  10.855 -1.7482 -0.0831 -0.7890
  102OSM   H13C10252   2.810   5.235  11.007 -0.1789  1.8061 -0.5566
  102OSM    C1210253   2.629   4.991  10.827 -0.5448 -0.0725  0.0518
  102OSM   H12A10254   2.558   4.917  10.861  0.6980 -0.4505  1.9834
  102OSM   H12B10255   2.716   4.932  10.803  0.9548  1.3047  1.7641
  102OSM    C1110256   2.582   5.069  10.700 -0.1887 -0.3660 -0.8570
  102OSM   H11A10257   2.575   4.992  10.621  2.0820  0.4903 -1.9521
  102OSM   H11B10258   2.666   5.137  10.675 -0.6636  1.9055  2.9210
  102OSM      P10259   2.324   5.059  10.753  0.0599 -0.1109 -0.5816
  102OSM    O1310260   2.352   4.941  10.836 -0.0112 -0.1733  0.0366
  102OSM    O1410261   2.218   5.157  10.794  0.3627  0.6624 -0.3071
  102OSM    O1110262   2.293   5.024  10.607  0.1424 -0.2181  0.0652
  102OSM    O1210263   2.459   5.139  10.729  0.9071 -0.0103  0.4260
  102OSM    C1S10264   2.322   5.104  10.494 -0.2560  0.7458  0.6912
  102OSM    H1S10265   2.432   5.108  10.474  0.0602 -1.3845  1.6423
  102OSM    H1T10266   2.290   5.210  10.500 -0.7515  0.7979 -1.8761
  102OSM     NF10267   2.277   5.144  10.257 -0.3851  0.2946 -0.0773
  102OSM    HNF10268   2.199   5.203  10.238 -1.7648 -1.8372 -1.5179
  102OSM    C2S10269   2.263   5.044  10.362 -0.5721 -0.0347  0.3818
  102OSM    H2S10270   2.330   4.960  10.334 -0.8434  0.0775 -0.6501
  102OSM    C3S10271   2.117   4.993  10.373 -0.5930  0.2711  0.3709
  102OSM    H3S10272   2.061   5.089  10.374 -0.4978  0.4326 -2.2479
  102OSM     O310273   2.095   4.916  10.488  0.2065  0.5481 -0.0628
  102OSM    HO310274   2.177   4.929  10.536  1.0894  0.0582 -1.3743
  102OSM    C4S10275   2.093   4.921  10.245  0.3413  0.2590  0.4771
  102OSM    H4S10276   2.088   4.987  10.157  0.9429  0.4639  0.5974
  102OSM    C5S10277   2.063   4.795  10.220  0.0657 -0.1352  0.5201
  102OSM    H5S10278   2.066   4.733  10.311 -0.0231  1.2159  1.4704
  102OSM    C6S10279   2.020   4.745  10.085  0.0397  1.1815 -0.4605
  102OSM    H6S10280   1.940   4.673  10.111  0.3730  0.4311 -1.4483
  102OSM    H6T10281   2.095   4.676  10.039  0.9573  0.5095  1.8923
  102OSM    C7S10282   1.990   4.845   9.974  0.1119  0.2425 -0.5165
  102OSM    H7S10283   2.075   4.913   9.953  2.7269 -1.0951  4.2887
  102OSM    H7T10284   1.907   4.910  10.010  0.0290 -0.1331 -0.0068
  102OSM    C8S10285   1.948   4.777   9.833 -0.3192 -0.0914  0.2458
  102OSM    H8S10286   1.876   4.693   9.845  0.4041 -0.7982 -0.2860
  102OSM    H8T10287   2.040   4.719   9.810 -0.5973 -0.1354 -0.8574
  102OSM    C9S10288   1.918   4.870   9.722  0.3570 -0.1447 -0.6101
  102OSM    H9S10289   2.003   4.941   9.715 -0.1101  0.7860  1.9040
  102OSM    H9T10290   1.827   4.934   9.732 -0.4285 -1.1525 -1.1654
  102OSM   C10S10291   1.916   4.807   9.577 -0.4469 -0.1053 -0.3139
  102OSM   H10S10292   1.816   4.759   9.584 -0.1238 -0.8130 -0.4538
  102OSM   H10T10293   1.992   4.728   9.554  0.9024  1.6582 -2.2654
  102OSM   C11S10294   1.890   4.914   9.467  0.1848  0.1427  0.2374
  102OSM   H11S10295   1.981   4.976   9.455  0.7952 -0.3952  1.8602
  102OSM   H11T10296   1.817   4.988   9.505  0.5990  0.9254 -0.4758
  102OSM   C12S10297   1.845   4.848   9.326 -0.2290 -0.4653 -0.5357
  102OSM   H12S10298   1.756   4.784   9.347 -2.3937  1.9191 -1.8546
  102OSM   H12T10299   1.922   4.779   9.285  0.0616  0.0374 -0.8463
  102OSM   C13S10300   1.810   4.950   9.217  0.1798 -0.6380  0.0604
  102OSM   H13S10301   1.902   5.008   9.196  0.1524 -0.5546  0.1716
  102OSM   H13T10302   1.726   5.009   9.260 -0.0416 -0.9601  0.0801
  102OSM   C14S10303   1.766   4.883   9.083  0.4320  0.0770  0.4433
  102OSM   H14S10304   1.674   4.824   9.097 -0.6977  1.8199  0.6873
  102OSM   H14T10305   1.851   4.822   9.047 -0.3241 -0.7569  0.0573
  102OSM   C15S10306   1.716   4.979   8.977 -0.4106 -0.3626  0.4567
  102OSM   H15S10307   1.779   5.070   8.978  1.6607 -1.7382  1.0701
  102OSM   H15T10308   1.611   5.008   8.999 -0.1214 -0.3673  1.9318
  102OSM   C16S10309   1.730   4.900   8.841  0.0306 -0.0310  0.3672
  102OSM   H16S10310   1.662   4.812   8.851 -0.7962  0.3615 -1.4661
  102OSM   H16T10311   1.837   4.870   8.844  0.2180  0.4022 -1.0814
  102OSM   C17S10312   1.704   4.987   8.715 -0.1989 -0.1428  0.1135
  102OSM   H17S10313   1.745   5.088   8.731  0.3568 -0.3276 -0.1223
  102OSM   H17T10314   1.596   5.002   8.693  0.2202  1.1386 -1.2344
  102OSM   C18S10315   1.768   4.917   8.608 -0.1837 -0.1008  0.4478
  102OSM   H18S10316   1.738   4.966   8.513 -0.7912 -0.7057  0.3159
  102OSM   H18T10317   1.736   4.811   8.613 -1.6952  0.3805  1.7933
  102OSM   H18U10318   1.878   4.918   8.618 -0.1728 -0.3936  0.3827
  102OSM    C1F10319   2.397   5.174  10.208 -0.0176 -0.4393 -0.4101
  102OSM     OF10320   2.490   5.098  10.232 -0.1502  0.0084 -0.1848
  102OSM    C2F10321   2.401   5.288  10.114  0.5438  0.0613 -0.0014
  102OSM    H2F10322   2.428   5.382  10.167  1.4888 -0.6158  0.7524
  102OSM    H2G10323   2.303   5.317  10.071 -1.0418 -3.2455  1.0970
  102OSM    C3F10324   2.488   5.264   9.987  0.6344 -0.4926 -0.3027
  102OSM    H3F10325   2.474   5.163   9.944  0.0492 -0.4958 -0.1227
  102OSM    H3G10326   2.592   5.272  10.024  0.9516 -0.5362 -1.1738
  102OSM    C4F10327   2.473   5.365   9.873 -0.9068  0.0873  0.1415
  102OSM    H4F10328   2.482   5.469   9.912 -0.0141  0.8005 -1.8470
  102OSM    H4G10329   2.369   5.358   9.834 -1.0060 -0.3059  0.4745
  102OSM    C5F10330   2.574   5.336   9.770  0.5837 -0.2598 -0.7696
  102OSM    H5F10331   2.581   5.231   9.734  2.2871  0.1036 -1.6175
  102OSM    H5G10332   2.674   5.370   9.805 -0.8324  1.9102  1.4938
  102OSM    C6F10333   2.552   5.425   9.646  0.1845 -0.4133  0.0335
  102OSM    H6F10334   2.638   5.405   9.578  0.3177 -0.5159  0.2290
  102OSM    H6G10335   2.557   5.533   9.670  2.4171 -0.2273 -0.9710
  102OSM    C7F10336   2.418   5.387   9.572 -0.4491 -0.8203  0.3717
  102OSM    H7F10337   2.335   5.444   9.619  0.7956  1.2564  0.1791
  102OSM    H7G10338   2.397   5.279   9.586 -1.0473 -0.8816 -0.8762
  102OSM    C8F10339   2.421   5.424   9.431  0.0398  0.1687  0.0658
  102OSM    H8F10340   2.452   5.529   9.411  0.8652 -0.5494 -3.0273
  102OSM    H8G10341   2.316   5.419   9.395  0.5322 -0.0818 -1.4090
  102OSM    C9F10342   2.498   5.332   9.340  0.2277  0.4089  0.6175
  102OSM    H9F10343   2.483   5.223   9.353 -0.2691  0.1717 -1.4770
  102OSM   C10F10344   2.569   5.364   9.233 -0.3351  0.6394  0.1823
  102OSM   H10F10345   2.630   5.286   9.186  1.3942  0.1355  3.0123
  102OSM   C11F10346   2.595   5.498   9.172  0.2656 -0.2792  0.1281
  102OSM   H11F10347   2.557   5.580   9.237 -2.1016  0.5765 -2.1813
  102OSM   H11G10348   2.549   5.514   9.072  1.2914  0.0855 -0.3024
  102OSM   C12F10349   2.749   5.521   9.160  0.2559  0.4671  0.4455
  102OSM   H12F10350   2.807   5.454   9.093  0.8988  2.2243 -0.8407
  102OSM   H12G10351   2.789   5.518   9.263 -1.0277  0.8051  0.9771
  102OSM   C13F10352   2.780   5.663   9.114  0.7299  0.7504  0.7754
  102OSM   H13F10353   2.887   5.682   9.138  1.2884 -0.5051 -0.5358
  102OSM   H13G10354   2.714   5.735   9.166 -1.9675 -0.1114 -1.2567
  102OSM   C14F10355   2.771   5.680   8.960  0.0842  0.0519  0.2045
  102OSM   H14F10356   2.691   5.609   8.929  2.3999 -3.1017  0.9936
  102OSM   H14G10357   2.863   5.655   8.903 -0.0552 -0.0252  0.0116
  102OSM   C15F10358   2.741   5.828   8.931  0.0848 -0.5379 -0.9954
  102OSM   H15F10359   2.829   5.894   8.947  1.0195 -2.2281  1.2032
  102OSM   H15G10360   2.673   5.868   9.009  1.2262 -1.7865  0.6950
  102OSM   C16F10361   2.674   5.851   8.792  0.1534 -0.5806 -0.4471
  102OSM   H16F10362   2.564   5.842   8.797 -0.0029  1.0652 -0.4990
  102OSM   H16G10363   2.709   5.772   8.721  1.1333  0.6633 -1.4010
  102OSM   C17F10364   2.691   5.994   8.743 -0.1151 -0.4718 -0.4529
  102OSM   H17F10365   2.667   5.994   8.635  1.0047  2.7748 -0.8118
  102OSM   H17G10366   2.795   6.032   8.752  0.1178 -1.3865  1.0850
  102OSM   C18F10367   2.604   6.104   8.809 -0.2706  0.1382  0.0548
  102OSM   H18F10368   2.497   6.074   8.806 -0.1169 -0.6105  1.4993
  102OSM   H18G10369   2.602   6.207   8.767 -1.3391  0.5444  1.0670
  102OSM   H18H10370   2.623   6.116   8.917 -0.1949  1.6685 -0.1055
  103OSM      N10371   0.438   6.816  10.863 -0.0170 -0.0641  0.2765
  103OSM    C1510372   0.581   6.860  10.884 -0.4830 -0.0192 -0.4660
  103OSM   H15A10373   0.640   6.776  10.918  0.7369  1.0952  0.2686
  103OSM   H15B10374   0.597   6.937  10.957 -2.4863 -0.3015  0.3190
  103OSM   H15C10375   0.627   6.891  10.791 -0.2505  0.5858 -0.1515
  103OSM    C1410376   0.435   6.709  10.761  0.0185  0.4209  0.3856
  103OSM   H14A10377   0.487   6.618  10.788 -0.1151 -0.3679 -1.8412
  103OSM   H14B10378   0.486   6.736  10.670  0.3051 -1.7619 -0.1532
  103OSM   H14C10379   0.335   6.677  10.737 -0.2611 -0.7296  2.7921
  103OSM    C1310380   0.382   6.764  10.988  0.0653 -0.7411  0.5304
  103OSM   H13A10381   0.379   6.840  11.065 -3.0012 -3.4138  3.3450
  103OSM   H13B10382   0.445   6.683  11.020  2.8868  1.1358  0.1489
  103OSM   H13C10383   0.277   6.742  10.980  0.0136 -0.0212 -1.2508
  103OSM    C1210384   0.348   6.930  10.813  0.0977 -0.2742 -0.9693
  103OSM   H12A10385   0.330   7.005  10.888  0.8543 -0.0866 -0.9735
  103OSM   H12B10386   0.249   6.890  10.797  0.0664 -0.6324  0.0616
  103OSM    C1110387   0.384   7.001  10.679  0.6587  0.0540  0.4769
  103OSM   H11A10388   0.308   7.080  10.660 -0.2335 -0.4258  1.8754
  103OSM   H11B10389   0.390   6.942  10.586  3.1884 -1.7221  1.6399
  103OSM      P10390   0.524   7.199  10.771  0.1827 -0.1953  0.0112
  103OSM    O1310391   0.423   7.212  10.883  0.0797  0.2210 -0.1195
  103OSM    O1410392   0.664   7.219  10.807  0.1661 -0.4237  0.5575
  103OSM    O1110393   0.486   7.311  10.670  0.3669 -0.1475 -0.6700
  103OSM    O1210394   0.510   7.065  10.692 -0.3368  0.8196 -0.4539
  103OSM    C1S10395   0.567   7.358  10.563 -0.3965 -0.3266 -0.1573
  103OSM    H1S10396   0.581   7.277  10.489  1.1063 -0.9884  0.7940
  103OSM    H1T10397   0.668   7.383  10.602 -0.5402 -0.4541  0.3003
  103OSM     NF10398   0.606   7.527  10.386  0.5023  0.2987  0.5600
  103OSM    HNF10399   0.658   7.610  10.408  3.0257 -1.3281  1.1907
  103OSM    C2S10400   0.508   7.476  10.482 -0.4656  0.5324  0.4774
  103OSM    H2S10401   0.417   7.428  10.440  0.3831  0.2116 -1.0306
  103OSM    C3S10402   0.447   7.582  10.577 -0.3065 -0.9423 -0.2647
  103OSM    H3S10403   0.529   7.619  10.643 -1.5049 -0.8082  1.1904
  103OSM     O310404   0.348   7.526  10.663 -0.3782 -0.4553 -0.6498
  103OSM    HO310405   0.368   7.432  10.654  0.7002 -0.1777 -1.3338
  103OSM    C4S10406   0.383   7.689  10.488  0.1489 -0.0380 -0.1280
  103OSM    H4S10407   0.435   7.786  10.497 -0.4962  0.1628  1.8535
  103OSM    C5S10408   0.267   7.671  10.413 -0.8537  0.5195 -0.3419
  103OSM    H5S10409   0.219   7.573  10.406 -1.1146  0.7184 -1.5346
  103OSM    C6S10410   0.200   7.778  10.328 -0.1733 -0.2326  0.6943
  103OSM    H6S10411   0.224   7.879  10.367  1.1961  0.5547 -1.9654
  103OSM    H6T10412   0.091   7.759  10.322 -0.0719 -0.3759 -1.6878
  103OSM    C7S10413   0.251   7.773  10.187 -0.0352  0.5248  0.3537
  103OSM    H7S10414   0.180   7.844  10.141 -0.1824  0.6229  0.7259
  103OSM    H7T10415   0.240   7.673  10.139  0.0215  2.1613 -3.3334
  103OSM    C8S10416   0.393   7.816  10.176 -0.3212 -0.2825 -0.2400
  103OSM    H8S10417   0.461   7.756  10.241  1.7799  2.6092  0.4234
  103OSM    H8T10418   0.387   7.925  10.196 -2.2711 -0.4584  0.3724
  103OSM    C9S10419   0.452   7.806  10.036  0.7129  0.8908  0.2006
  103OSM    H9S10420   0.469   7.702  10.002 -2.6438  1.1433 -3.0094
  103OSM    H9T10421   0.558   7.835  10.028  1.5515 -2.1942 -1.7382
  103OSM   C10S10422   0.366   7.880   9.930  0.5375  0.1622  0.4420
  103OSM   H10S10423   0.368   7.989   9.955  2.5385  0.2392  0.1087
  103OSM   H10T10424   0.262   7.842   9.924  1.2154 -1.8567  0.6942
  103OSM   C11S10425   0.424   7.865   9.784  0.2807  0.4764  0.3650
  103OSM   H11S10426   0.406   7.758   9.762  0.7877  1.0270 -3.3412
  103OSM   H11T10427   0.534   7.871   9.795  0.4010 -0.8199  0.0182
  103OSM   C12S10428   0.357   7.953   9.676 -0.8214  0.1312 -1.1431
  103OSM   H12S10429   0.353   8.056   9.718  1.4205 -0.4520  0.7067
  103OSM   H12T10430   0.254   7.909   9.676 -1.3449  1.1279  1.6485
  103OSM   C13S10431   0.429   7.963   9.545  0.7447 -0.7113  0.4319
  103OSM   H13S10432   0.537   7.988   9.551  0.6559  0.0912 -0.9475
  103OSM   H13T10433   0.379   8.038   9.480 -0.8779 -2.3973 -0.3908
  103OSM   C14S10434   0.409   7.835   9.460 -0.4328 -0.4009  0.2481
  103OSM   H14S10435   0.302   7.809   9.448 -0.7601  0.4852  1.0681
  103OSM   H14T10436   0.469   7.748   9.497 -0.3703 -0.3278  0.3210
  103OSM   C15S10437   0.462   7.861   9.326  0.3229 -0.7441  0.4564
  103OSM   H15S10438   0.571   7.882   9.334 -0.2595  3.0427  0.3346
  103OSM   H15T10439   0.421   7.953   9.278  1.7717 -1.6069 -2.7705
  103OSM   C16S10440   0.436   7.750   9.227  0.6534  0.9692  0.0809
  103OSM   H16S10441   0.326   7.733   9.226  0.5501  1.5346 -1.8897
  103OSM   H16T10442   0.474   7.659   9.279 -2.2808 -1.1564 -1.2282
  103OSM   C17S10443   0.494   7.760   9.092 -0.4810 -0.7536  0.4289
  103OSM   H17S10444   0.605   7.756   9.103 -0.4445  1.5423  1.5059
  103OSM   H17T10445   0.473   7.862   9.053  2.1052 -0.0860  0.6084
  103OSM   C18S10446   0.450   7.658   8.994  0.2262 -0.5384 -0.6269
  103OSM   H18S10447   0.339   7.666   8.989  0.0805 -2.4637 -1.3491
  103OSM   H18T10448   0.461   7.552   9.024  1.7586  0.1297  1.3985
  103OSM   H18U10449   0.485   7.679   8.890  0.4840  0.4415 -0.3551
  103OSM    C1F10450   0.629   7.450  10.274 -0.2316  0.0715 -0.2165
  103OSM     OF10451   0.578   7.340  10.262  0.6098  0.3860  0.0140
  103OSM    C2F10452   0.724   7.496  10.170 -0.2282  0.1022  0.7624
  103OSM    H2F10453   0.819   7.437  10.169 -0.3454 -0.0888  0.8555
  103OSM    H2G10454   0.739   7.605  10.179 -0.6341  0.0486  2.6210
  103OSM    C3F10455   0.668   7.472  10.029 -0.4987  0.1666  0.3867
  103OSM    H3F10456   0.562   7.505  10.027 -0.4956  0.1613 -0.0852
  103OSM    H3G10457   0.672   7.361  10.019  0.0463  0.0589  1.6741
  103OSM    C4F10458   0.752   7.536   9.923 -0.1561 -0.4427  0.0368
  103OSM    H4F10459   0.858   7.506   9.913  0.0517  0.4560 -0.5090
  103OSM    H4G10460   0.757   7.643   9.951  2.2936 -0.4836 -0.0419
  103OSM    C5F10461   0.683   7.514   9.784  0.1581 -0.0269 -0.7440
  103OSM    H5F10462   0.591   7.575   9.795 -0.3079  0.0180 -3.8989
  103OSM    H5G10463   0.666   7.411   9.747  0.4724  0.2001 -1.5525
  103OSM    C6F10464   0.757   7.595   9.676  0.4275 -0.0611  0.0924
  103OSM    H6F10465   0.857   7.547   9.676  0.4495 -0.0473 -1.1412
  103OSM    H6G10466   0.776   7.695   9.721  2.4917 -0.9233  1.2618
  103OSM    C7F10467   0.706   7.589   9.537  0.2173  0.2533 -0.5973
  103OSM    H7F10468   0.751   7.672   9.478  2.7246  1.4609  2.6742
  103OSM    H7G10469   0.597   7.611   9.544  0.2269  0.7443 -1.7761
  103OSM    C8F10470   0.719   7.451   9.469 -0.2556 -0.2827  0.6173
  103OSM    H8F10471   0.666   7.368   9.520 -0.2958 -1.1655 -0.8330
  103OSM    H8G10472   0.825   7.419   9.472 -0.7793 -2.0614  0.9199
  103OSM    C9F10473   0.660   7.454   9.328 -0.5964 -0.0400 -0.7558
  103OSM    H9F10474   0.555   7.487   9.327 -0.4384  0.4960 -2.2528
  103OSM   C10F10475   0.723   7.424   9.211  0.3785  0.2460  0.3358
  103OSM   H10F10476   0.663   7.430   9.119 -0.8510 -0.5558  1.0701
  103OSM   C11F10477   0.862   7.371   9.189 -0.4685  0.4688  0.5589
  103OSM   H11F10478   0.854   7.277   9.132 -0.3395  0.2502  0.8987
  103OSM   H11G10479   0.898   7.332   9.286 -0.1024 -0.2009  0.1590
  103OSM   C12F10480   0.961   7.465   9.108  0.0416  0.1875 -0.5088
  103OSM   H12F10481   1.053   7.405   9.092  1.1172  2.0259 -1.6575
  103OSM   H12G10482   0.990   7.556   9.164  1.3230 -0.7757  0.4480
  103OSM   C13F10483   0.913   7.506   8.972 -0.2655  0.1682  0.0498
  103OSM   H13F10484   0.806   7.537   8.978 -0.1464  0.6259 -0.1660
  103OSM   H13G10485   0.906   7.415   8.908 -1.8943 -1.7153  2.6563
  103OSM   C14F10486   0.980   7.615   8.884 -0.4501 -0.6249 -0.1505
  103OSM   H14F10487   1.089   7.600   8.870  0.1033  1.6315  1.2272
  103OSM   H14G10488   0.968   7.700   8.955  0.8533 -1.6608  1.3730
  103OSM   C15F10489   0.911   7.658   8.748  0.0398  0.3854  0.0304
  103OSM   H15F10490   0.956   7.757   8.724  0.3593  0.6013  1.4193
  103OSM   H15G10491   0.804   7.674   8.772  0.1254 -0.0499  0.7527
  103OSM   C16F10492   0.929   7.544   8.645  0.0278  0.9191  0.1441
  103OSM   H16F10493   0.867   7.455   8.669  1.0257  0.0603 -0.3985
  103OSM   H16G10494   1.033   7.508   8.655 -0.9383 -2.5165 -0.6319
  103OSM   C17F10495   0.910   7.586   8.499 -0.0880  0.3662  0.4232
  103OSM   H17F10496   0.817   7.645   8.489 -0.5000 -0.2748  0.4265
  103OSM   H17G10497   0.888   7.494   8.440 -3.1222 -2.1457  4.9187
  103OSM   C18F10498   1.022   7.658   8.432 -0.2616  0.1847 -0.0114
  103OSM   H18F10499   1.055   7.737   8.502  0.1426 -0.7863  0.9093
  103OSM   H18G10500   0.991   7.703   8.335  0.8501 -0.4565 -0.6842
  103OSM   H18H10501   1.102   7.582   8.419 -0.3658  0.1270 -0.3430
  104OSM      N10502   2.820   6.412  10.900 -0.1191  0.1722 -0.5589
  104OSM    C1510503   2.808   6.346  10.765  0.0464  0.2861 -0.3999
  104OSM   H15A10504   2.713   6.366  10.717  0.2909  0.1787 -0.9269
  104OSM   H15B10505   2.802   6.240  10.780 -1.8489  0.5060  0.7857
  104OSM   H15C10506   2.889   6.370  10.699  0.4608  3.9158  1.1492
  104OSM    C1410507   2.733   6.337  10.990 -0.2182  0.4723  0.2460
  104OSM   H14A10508   2.748   6.230  10.990 -0.1142  0.4482 -1.6363
  104OSM   H14B10509   2.630   6.343  10.956  0.0336 -1.1291 -0.9392
  104OSM   H14C10510   2.754   6.366  11.092  0.9621  1.0195 -0.1397
  104OSM    C1310511   2.959   6.387  10.950  0.0422  0.3381 -0.2278
  104OSM   H13A10512   3.039   6.389  10.877  1.4618  0.0684  1.2520
  104OSM   H13B10513   2.954   6.292  11.001  0.4731  1.1584  1.4034
  104OSM   H13C10514   2.990   6.449  11.033 -0.4056  0.1119  0.1112
  104OSM    C1210515   2.815   6.556  10.887 -0.1855 -0.7237 -0.2355
  104OSM   H12A10516   2.904   6.590  10.836  1.0072 -2.8771  0.2866
  104OSM   H12B10517   2.832   6.603  10.983 -1.8414  0.6823 -0.5752
  104OSM    C1110518   2.679   6.627  10.840  0.5776  0.5109  0.2268
  104OSM   H11A10519   2.651   6.574  10.747  1.6163 -0.2718  0.3411
  104OSM   H11B10520   2.705   6.733  10.823  3.7089 -0.3972 -1.2321
  104OSM      P10521   2.434   6.677  10.917  0.2547  0.2356 -0.3356
  104OSM    O1310522   2.324   6.601  10.982 -0.4192  0.5762 -0.1347
  104OSM    O1410523   2.440   6.824  10.942  0.0055  0.4935  0.2467
  104OSM    O1110524   2.419   6.656  10.760 -0.0481  0.2969 -0.2886
  104OSM    O1210525   2.579   6.614  10.948 -0.5095  0.5947  0.8201
  104OSM    C1S10526   2.305   6.722  10.705 -0.2028  0.0024  0.6362
  104OSM    H1S10527   2.329   6.826  10.673  2.5495 -0.3046  1.4387
  104OSM    H1T10528   2.216   6.718  10.771  0.8121 -0.3027  2.0235
  104OSM     NF10529   2.171   6.738  10.496  0.2473 -0.0930  0.2868
  104OSM    HNF10530   2.081   6.696  10.489  0.3096 -0.4659  1.4809
  104OSM    C2S10531   2.271   6.659  10.568 -0.1049  0.3934  0.6992
  104OSM    H2S10532   2.364   6.666  10.507  0.6883  1.6234  1.9820
  104OSM    C3S10533   2.238   6.509  10.593  0.6650  0.2883 -0.3927
  104OSM    H3S10534   2.149   6.508  10.660 -0.5225  0.8180 -1.8996
  104OSM     O310535   2.338   6.436  10.671 -0.4738 -0.0214  0.2915
  104OSM    HO310536   2.393   6.506  10.707  3.1195 -2.3545 -0.0966
  104OSM    C4S10537   2.208   6.431  10.470 -1.2735 -0.2030 -0.2758
  104OSM    H4S10538   2.286   6.437  10.393  0.2964  0.8223  1.3195
  104OSM    C5S10539   2.105   6.350  10.445 -0.4444 -0.3910  0.8534
  104OSM    H5S10540   2.019   6.342  10.513 -0.3410 -0.6108  0.9578
  104OSM    C6S10541   2.096   6.282  10.317  0.6409  0.6634  0.3838
  104OSM    H6S10542   1.988   6.266  10.298  0.6031  1.9498 -0.6047
  104OSM    H6T10543   2.137   6.180  10.337  0.9083  0.7123  0.0952
  104OSM    C7S10544   2.149   6.338  10.186 -0.1153 -0.7814  0.1458
  104OSM    H7S10545   2.255   6.308  10.178  0.0229 -0.1568 -0.5587
  104OSM    H7T10546   2.141   6.449  10.178  0.1179 -0.7042  0.9356
  104OSM    C8S10547   2.070   6.287  10.065 -0.9917 -0.1273  0.1575
  104OSM    H8S10548   1.960   6.301  10.075 -1.0977 -1.3482  0.8651
  104OSM    H8T10549   2.062   6.176  10.070  1.6518 -0.4137 -0.7757
  104OSM    C9S10550   2.133   6.340   9.936  0.1264  0.4903 -0.2573
  104OSM    H9S10551   2.239   6.313   9.916  0.4677  0.7794  1.0894
  104OSM    H9T10552   2.130   6.451   9.939 -0.5834  0.4694 -0.0534
  104OSM   C10S10553   2.047   6.295   9.818 -0.0063  0.4024  0.1699
  104OSM   H10S10554   1.941   6.305   9.849 -0.1067  1.4824 -0.4473
  104OSM   H10T10555   2.074   6.188   9.812  2.8277  0.8514  2.3244
  104OSM   C11S10556   2.074   6.362   9.690  0.6125 -0.1811  0.4969
  104OSM   H11S10557   2.063   6.472   9.701 -0.4165 -0.3462  1.2105
  104OSM   H11T10558   1.979   6.348   9.635 -0.9210  3.6534  1.8586
  104OSM   C12S10559   2.206   6.316   9.620 -0.1677 -1.0313  0.8056
  104OSM   H12S10560   2.199   6.211   9.584  0.3877 -2.2222  3.9178
  104OSM   H12T10561   2.282   6.304   9.700 -1.9038 -0.2717  2.6187
  104OSM   C13S10562   2.259   6.404   9.508 -0.1694 -0.1640 -0.1115
  104OSM   H13S10563   2.341   6.351   9.455 -0.4268 -1.2904  0.6006
  104OSM   H13T10564   2.312   6.490   9.554  0.2166  1.0229 -2.5931
  104OSM   C14S10565   2.169   6.442   9.397 -0.2310 -0.1042  0.3687
  104OSM   H14S10566   2.220   6.502   9.319 -1.1964 -0.6565 -0.7228
  104OSM   H14T10567   2.094   6.514   9.436 -0.0499 -0.2677  1.0354
  104OSM   C15S10568   2.093   6.321   9.318 -0.3657  0.5825 -0.1125
  104OSM   H15S10569   2.046   6.259   9.397  0.5047 -0.3367 -0.3022
  104OSM   H15T10570   2.174   6.262   9.271 -1.2203 -1.3482  0.7283
  104OSM   C16S10571   1.980   6.358   9.221  0.2582 -0.6590  0.1720
  104OSM   H16S10572   2.012   6.430   9.142  0.8284  1.2073  1.9775
  104OSM   H16T10573   1.901   6.401   9.287  0.8433  1.8482 -0.6226
  104OSM   C17S10574   1.929   6.237   9.134 -0.2594 -0.8062  0.4474
  104OSM   H17S10575   1.870   6.170   9.199 -1.1146  0.0128  0.5496
  104OSM   H17T10576   2.007   6.178   9.083  1.1054  0.2800  1.2040
  104OSM   C18S10577   1.831   6.287   9.031 -0.2920 -0.3999 -0.1315
  104OSM   H18S10578   1.735   6.311   9.082  0.7613  1.1974  1.1894
  104OSM   H18T10579   1.813   6.208   8.954 -0.3690  0.4373 -0.9919
  104OSM   H18U10580   1.875   6.376   8.982 -0.4170 -0.2758 -0.0178
  104OSM    C1F10581   2.181   6.862  10.449 -0.3715 -0.8472  0.6480
  104OSM     OF10582   2.291   6.904  10.417 -0.2591 -0.4752 -0.1271
  104OSM    C2F10583   2.053   6.942  10.439 -0.6580  0.3725 -0.5157
  104OSM    H2F10584   2.016   6.976  10.538 -0.9084 -0.7893 -0.1937
  104OSM    H2G10585   1.968   6.876  10.410 -2.2434  1.3136  1.6790
  104OSM    C3F10586   2.057   7.059  10.347 -0.0411  0.2811 -0.0275
  104OSM    H3F10587   2.098   7.031  10.247 -2.1267 -0.6729 -0.6791
  104OSM    H3G10588   2.129   7.133  10.389  2.1632 -2.2406  0.8739
  104OSM    C4F10589   1.925   7.137  10.333 -0.2505 -0.4276 -0.4107
  104OSM    H4F10590   1.907   7.184  10.432  1.6511  0.2071 -0.3404
  104OSM    H4G10591   1.840   7.070  10.308 -1.2551 -0.2117  2.0668
  104OSM    C5F10592   1.929   7.259  10.232  0.8651 -0.6442  0.5645
  104OSM    H5F10593   2.031   7.302  10.224 -0.2961  1.9275 -2.2505
  104OSM    H5G10594   1.864   7.340  10.273  1.4150  0.1564 -0.1109
  104OSM    C6F10595   1.872   7.226  10.096  0.0869 -0.3362  0.2132
  104OSM    H6F10596   1.767   7.191  10.109 -0.1785  0.7332  1.0137
  104OSM    H6G10597   1.928   7.138  10.058  1.3146  0.8823 -0.8851
  104OSM    C7F10598   1.874   7.334   9.980  0.2971  0.0146 -0.0725
  104OSM    H7F10599   1.984   7.352   9.987  0.5679 -0.9573 -1.4676
  104OSM    H7G10600   1.815   7.423  10.008  1.0607  1.3469 -2.4827
  104OSM    C8F10601   1.835   7.269   9.839  0.7128 -0.7101  0.4036
  104OSM    H8F10602   1.912   7.191   9.820  0.1986 -1.1252 -0.0111
  104OSM    H8G10603   1.848   7.351   9.765 -3.5693 -0.1677 -0.0156
  104OSM    C9F10604   1.685   7.226   9.830 -0.1375 -0.5110  0.5353
  104OSM    H9F10605   1.623   7.284   9.900  1.4583  2.3106 -0.2292
  104OSM   C10F10606   1.652   7.113   9.759 -0.0516 -0.8214 -0.3595
  104OSM   H10F10607   1.547   7.083   9.757 -0.3069 -0.0254  0.4069
  104OSM   C11F10608   1.737   7.019   9.679  0.3124 -0.2581 -0.4734
  104OSM   H11F10609   1.757   6.922   9.729 -0.9682 -0.5797 -0.5375
  104OSM   H11G10610   1.834   7.060   9.645  1.0537 -0.5574  1.2092
  104OSM   C12F10611   1.659   6.987   9.545  0.1441  0.4499 -0.2637
  104OSM   H12F10612   1.560   6.949   9.579  0.9029 -0.5207  0.9395
  104OSM   H12G10613   1.719   6.914   9.488 -1.0523 -1.3738  0.7065
  104OSM   C13F10614   1.637   7.110   9.452  0.2872  0.1627 -0.0179
  104OSM   H13F10615   1.617   7.209   9.500 -0.8282  1.1382 -2.3258
  104OSM   H13G10616   1.558   7.102   9.375  1.6028  3.2414 -1.9334
  104OSM   C14F10617   1.762   7.134   9.368 -0.5818 -0.5589 -0.2129
  104OSM   H14F10618   1.777   7.039   9.311  1.2778  0.8964 -2.3298
  104OSM   H14G10619   1.854   7.154   9.427 -0.2781 -1.1369 -0.4700
  104OSM   C15F10620   1.747   7.243   9.266  0.5052 -0.0345 -0.1660
  104OSM   H15F10621   1.660   7.226   9.199 -0.1237  0.4186  0.5219
  104OSM   H15G10622   1.836   7.240   9.199  0.7651  1.1137  0.1090
  104OSM   C16F10623   1.749   7.380   9.324 -0.5300 -0.0549 -0.2401
  104OSM   H16F10624   1.852   7.392   9.365  0.6355 -0.9006 -2.7022
  104OSM   H16G10625   1.680   7.407   9.406  0.3140  1.0421  0.1376
  104OSM   C17F10626   1.736   7.480   9.202 -0.9049 -0.0060 -0.3850
  104OSM   H17F10627   1.631   7.465   9.169 -0.7791 -3.5180  0.3283
  104OSM   H17G10628   1.790   7.459   9.108 -1.9576  0.5769 -1.1448
  104OSM   C18F10629   1.751   7.632   9.241  0.2148  0.3845  0.7044
  104OSM   H18F10630   1.766   7.692   9.148  1.3033 -0.8140  0.0700
  104OSM   H18G10631   1.845   7.630   9.301  1.2565  0.4064 -0.8569
  104OSM   H18H10632   1.660   7.671   9.292  1.2740  3.1709  0.6382
  105OSM      N10633   4.426   2.962  10.854 -0.0590  0.5670  0.9396
  105OSM    C1510634   4.472   3.054  10.742  0.0813  0.5386  0.2917
  105OSM   H15A10635   4.516   3.146  10.778 -1.1345  1.0545  0.5143
  105OSM   H15B10636   4.402   3.082  10.664 -0.3164  2.2437  1.2117
  105OSM   H15C10637   4.560   3.008  10.699  1.0615  3.3946 -1.0553
  105OSM    C1410638   4.525   2.964  10.966 -0.0819  0.4166 -0.1748
  105OSM   H14A10639   4.476   2.906  11.043 -2.1178  0.9245 -1.0396
  105OSM   H14B10640   4.550   3.065  10.996 -0.4850  0.9656 -1.6201
  105OSM   H14C10641   4.617   2.915  10.938 -0.7849 -0.6450 -0.7001
  105OSM    C1310642   4.289   3.004  10.899  0.5588 -0.2480 -0.3043
  105OSM   H13A10643   4.263   2.970  10.998  1.3383  1.1051  0.3942
  105OSM   H13B10644   4.208   2.983  10.832 -0.9088  0.1234  1.2780
  105OSM   H13C10645   4.286   3.112  10.899 -0.2988 -0.2315 -2.4101
  105OSM    C1210646   4.425   2.815  10.805  0.1547 -0.2669  0.2166
  105OSM   H12A10647   4.326   2.801  10.764 -0.3232 -0.0996  1.2968
  105OSM   H12B10648   4.437   2.744  10.885 -0.9174 -0.9389 -0.1918
  105OSM    C1110649   4.530   2.774  10.697  0.7783 -0.0400 -1.2116
  105OSM   H11A10650   4.512   2.840  10.610  1.8814  2.9416  0.6502
  105OSM   H11B10651   4.492   2.671  10.685 -1.5117  0.3640  1.5929
  105OSM      P10652   4.747   2.658  10.770 -0.3287  0.3736 -0.1358
  105OSM    O1310653   4.860   2.694  10.858 -0.0443 -0.5959  0.1480
  105OSM    O1410654   4.662   2.550  10.820 -0.4622 -0.2325 -0.2400
  105OSM    O1110655   4.797   2.597  10.632 -0.0169 -0.1842 -0.2039
  105OSM    O1210656   4.667   2.787  10.742 -0.1495 -0.6577 -0.3654
  105OSM    C1S10657   4.797   2.684  10.521 -0.8052 -0.6183 -0.4405
  105OSM    H1S10658   4.860   2.774  10.537  0.5323 -1.6018 -0.0433
  105OSM    H1T10659   4.693   2.712  10.491  0.4060  1.8710 -2.8226
  105OSM     NF10660   4.878   2.697  10.285 -0.2735  0.0404 -0.5125
  105OSM    HNF10661   4.824   2.676  10.204 -0.1231 -1.3835 -0.2616
  105OSM    C2S10662   4.863   2.611  10.399 -1.0699 -0.0822 -0.0765
  105OSM    H2S10663   4.962   2.573  10.434 -0.8299 -1.9945 -2.4954
  105OSM    C3S10664   4.790   2.473  10.362 -0.2655  0.4237 -0.2718
  105OSM    H3S10665   4.687   2.495  10.328 -0.4666 -1.4058 -0.9844
  105OSM     O310666   4.780   2.387  10.475  0.1049  0.6148  0.1310
  105OSM    HO310667   4.785   2.451  10.547  2.1584 -0.8482  1.4154
  105OSM    C4S10668   4.864   2.395  10.261  0.3520  0.4998  0.9007
  105OSM    H4S10669   4.964   2.361  10.291  0.8525  0.1936 -0.9742
  105OSM    C5S10670   4.823   2.366  10.132  0.7065 -0.1430 -0.8567
  105OSM    H5S10671   4.721   2.392  10.099  0.1842 -2.2894 -1.0311
  105OSM    C6S10672   4.903   2.292  10.025 -0.2632 -0.1921 -0.7444
  105OSM    H6S10673   4.855   2.194  10.008  1.6103 -1.1936 -0.5409
  105OSM    H6T10674   5.005   2.272  10.066  0.3055 -0.8876 -2.3919
  105OSM    C7S10675   4.913   2.376   9.894 -0.1210  0.5720  0.1983
  105OSM    H7S10676   4.969   2.472   9.899  0.9520 -0.0720  0.7261
  105OSM    H7T10677   4.805   2.400   9.879 -0.6590  0.9066  3.7902
  105OSM    C8S10678   4.949   2.277   9.785 -0.4457 -0.9367  0.7643
  105OSM    H8S10679   4.890   2.184   9.798 -1.3808 -0.2756  1.3466
  105OSM    H8T10680   5.058   2.255   9.791 -0.0395  0.7477  0.1572
  105OSM    C9S10681   4.931   2.327   9.639  0.1442  0.2152 -0.2925
  105OSM    H9S10682   4.985   2.422   9.615 -1.1777  0.3444 -3.2626
  105OSM    H9T10683   4.824   2.354   9.632  0.2605  0.2654 -2.7995
  105OSM   C10S10684   4.954   2.224   9.533 -0.0579  0.3968  0.4324
  105OSM   H10S10685   4.889   2.137   9.559 -0.5122  0.2995 -0.9344
  105OSM   H10T10686   5.056   2.180   9.543  1.4011  2.5134 -3.2591
  105OSM   C11S10687   4.939   2.281   9.393 -0.5447  0.1117  0.0952
  105OSM   H11S10688   5.001   2.373   9.385  0.3977 -0.6112 -1.4758
  105OSM   H11T10689   4.833   2.298   9.365 -0.3327 -1.0843 -1.6293
  105OSM   C12S10690   4.985   2.181   9.281  0.4257 -0.6124  0.0703
  105OSM   H12S10691   4.913   2.096   9.275  3.0331 -2.8561 -3.1940
  105OSM   H12T10692   5.083   2.147   9.320 -0.2633 -0.0434  2.4360
  105OSM   C13S10693   5.000   2.245   9.139 -0.5407  0.4696  0.0290
  105OSM   H13S10694   5.086   2.316   9.137  0.1808 -0.3852 -1.3338
  105OSM   H13T10695   4.908   2.305   9.125 -0.7474  0.1266 -0.0857
  105OSM   C14S10696   4.999   2.134   9.041  0.8355 -0.0834  0.6288
  105OSM   H14S10697   4.911   2.066   9.047  0.4950  0.4023  1.1488
  105OSM   H14T10698   5.092   2.073   9.039  1.2986  0.6180  0.7354
  105OSM   C15S10699   5.003   2.192   8.894 -0.5868  0.7322 -0.4393
  105OSM   H15S10700   5.105   2.225   8.866  0.3762 -0.8448  1.0233
  105OSM   H15T10701   4.916   2.261   8.891 -0.1268  1.5550  2.4381
  105OSM   C16S10702   4.974   2.077   8.791  0.1548  0.0643  0.0421
  105OSM   H16S10703   4.898   2.012   8.840  1.2576 -1.6693 -0.4666
  105OSM   H16T10704   5.062   2.011   8.787  0.9128  1.0114  0.5815
  105OSM   C17S10705   4.926   2.133   8.654 -0.2406  0.6853 -0.3727
  105OSM   H17S10706   4.850   2.212   8.673 -0.7770 -0.0395  0.5986
  105OSM   H17T10707   4.882   2.049   8.595  2.0613 -0.8052 -0.1134
  105OSM   C18S10708   5.044   2.185   8.576  0.1443  0.4139  0.0582
  105OSM   H18S10709   5.005   2.228   8.481 -1.9502  0.6895  0.9807
  105OSM   H18T10710   5.109   2.103   8.541 -0.7103 -0.8425  1.3129
  105OSM   H18U10711   5.093   2.270   8.628  0.2727 -0.0854  0.7664
  105OSM    C1F10712   4.958   2.812  10.288  0.2838  0.2912  0.2152
  105OSM     OF10713   5.045   2.828  10.364  0.8104  0.0211  0.2735
  105OSM    C2F10714   4.939   2.898  10.165  0.0561  0.3891 -0.6363
  105OSM    H2F10715   4.829   2.917  10.161  0.0091  0.9128  1.6032
  105OSM    H2G10716   4.988   2.840  10.084  1.6692  0.0490  0.5313
  105OSM    C3F10717   5.014   3.035  10.176 -0.4593 -0.1253 -0.3698
  105OSM    H3F10718   5.121   3.012  10.189 -0.3419  0.0523 -0.9842
  105OSM    H3G10719   4.975   3.074  10.273  0.7865 -1.1279  0.5620
  105OSM    C4F10720   4.995   3.131  10.057  0.2228 -0.6048 -0.2342
  105OSM    H4F10721   5.023   3.236  10.082  0.0313 -0.8723  1.1535
  105OSM    H4G10722   4.887   3.132  10.034  0.1651  0.6635  0.0149
  105OSM    C5F10723   5.072   3.083   9.932  0.4970 -0.0234  0.4074
  105OSM    H5F10724   5.072   2.972   9.926  0.0288  0.0128 -0.3399
  105OSM    H5G10725   5.175   3.101   9.969  0.5797  1.7530 -0.5755
  105OSM    C6F10726   5.036   3.153   9.798 -0.0372  0.1510 -0.7800
  105OSM    H6F10727   5.029   3.258   9.833 -1.7819  0.3119 -1.5207
  105OSM    H6G10728   4.932   3.126   9.769 -1.4421  1.9576  2.1409
  105OSM    C7F10729   5.146   3.119   9.692  0.2623  0.6486 -0.1964
  105OSM    H7F10730   5.128   3.013   9.665  2.1026  0.5013 -1.0146
  105OSM    H7G10731   5.243   3.125   9.747 -0.6525  0.7596  1.4653
  105OSM    C8F10732   5.147   3.215   9.574 -0.7179 -0.6252 -0.2528
  105OSM    H8F10733   5.235   3.198   9.509 -0.0538 -0.3194  0.5417
  105OSM    H8G10734   5.156   3.317   9.618  2.6521 -1.9905  2.7702
  105OSM    C9F10735   5.017   3.213   9.503  0.9377 -0.9533 -0.3539
  105OSM    H9F10736   4.931   3.202   9.570  0.3873 -0.7088 -1.0100
  105OSM   C10F10737   5.000   3.220   9.368  0.2583  0.1323  0.0569
  105OSM   H10F10738   4.902   3.224   9.319  0.7509 -1.4822 -1.1547
  105OSM   C11F10739   5.120   3.226   9.272  0.4263  0.4549  0.6519
  105OSM   H11F10740   5.224   3.212   9.308  1.3616  0.2265 -1.9621
  105OSM   H11G10741   5.109   3.324   9.221 -1.7048  0.7118  1.4884
  105OSM   C12F10742   5.100   3.119   9.164  0.0368 -0.1945 -0.1535
  105OSM   H12F10743   5.023   3.166   9.098 -2.9267  0.5602  3.5166
  105OSM   H12G10744   5.048   3.029   9.203  0.6593  0.0099  1.1767
  105OSM   C13F10745   5.225   3.074   9.092  0.1526  0.1529 -0.5280
  105OSM   H13F10746   5.274   2.997   9.155  1.8431  2.3386  1.0286
  105OSM   H13G10747   5.300   3.157   9.095  1.0080 -0.5962 -0.8216
  105OSM   C14F10748   5.201   3.026   8.948  0.5776  0.5403 -0.5775
  105OSM   H14F10749   5.104   2.973   8.956 -0.0691  1.5750 -1.3051
  105OSM   H14G10750   5.269   2.946   8.913  0.1948  0.3653 -0.9295
  105OSM   C15F10751   5.200   3.141   8.850 -1.1430  0.3495 -0.1607
  105OSM   H15F10752   5.306   3.174   8.857 -0.5665 -1.5506  1.0592
  105OSM   H15G10753   5.136   3.222   8.891 -0.6698  0.3524  0.5819
  105OSM   C16F10754   5.160   3.095   8.710 -0.1076  0.8153 -0.0244
  105OSM   H16F10755   5.220   3.005   8.689  0.4240  1.0117  0.6057
  105OSM   H16G10756   5.197   3.171   8.638  1.6144  0.9255  0.9179
  105OSM   C17F10757   5.014   3.049   8.696  0.2751  0.0363  0.0233
  105OSM   H17F10758   4.990   2.969   8.769 -1.7494  0.4883 -0.0870
  105OSM   H17G10759   5.013   2.998   8.597  3.3426  2.0059 -1.1323
  105OSM   C18F10760   4.919   3.161   8.720 -0.7879  0.0056 -0.0754
  105OSM   H18F10761   4.813   3.142   8.693 -0.2130 -0.6070 -2.0575
  105OSM   H18G10762   4.950   3.242   8.650  2.5323 -2.1859 -1.3861
  105OSM   H18H10763   4.937   3.198   8.823  2.1833 -0.0278 -0.4959
  106OSM      N10764   5.166   1.274  11.038 -0.5420  0.5917 -0.0483
  106OSM    C1510765   5.116   1.127  11.013  0.5688  1.3632  0.5690
  106OSM   H15A10766   5.056   1.107  11.100 -1.8637  1.2294 -1.0471
  106OSM   H15B10767   5.195   1.056  10.991  1.5797  2.6238  0.0172
  106OSM   H15C10768   5.053   1.131  10.925 -0.9384  1.2404  1.6086
  106OSM    C1410769   5.274   1.264  11.137 -0.2025 -0.1841 -0.0657
  106OSM   H14A10770   5.237   1.227  11.232  1.4965 -1.5627  0.1223
  106OSM   H14B10771   5.322   1.360  11.146 -2.0852  0.8617 -0.5130
  106OSM   H14C10772   5.336   1.185  11.097 -1.3721 -1.1704  0.0171
  106OSM    C1310773   5.228   1.327  10.913  0.6783  0.0946 -0.1272
  106OSM   H13A10774   5.270   1.425  10.929  1.1341 -0.1229  0.0066
  106OSM   H13B10775   5.149   1.334  10.839  0.8168  0.3340 -0.2509
  106OSM   H13C10776   5.299   1.253  10.879  0.5744 -0.7440  1.4184
  106OSM    C1210777   5.054   1.357  11.095 -0.4405  0.5985 -0.1276
  106OSM   H12A10778   5.099   1.441  11.146 -1.4981 -0.2017  2.2643
  106OSM   H12B10779   5.005   1.294  11.168  1.1614 -0.7755 -0.1760
  106OSM    C1110780   4.942   1.404  11.000 -0.2600 -0.2729  0.8720
  106OSM   H11A10781   4.986   1.478  10.930  1.5091 -2.0672 -0.0376
  106OSM   H11B10782   4.867   1.472  11.047  0.3736  2.2093 -1.4750
  106OSM      P10783   4.844   1.306  10.784  0.0413 -0.1822 -0.3004
  106OSM    O1310784   4.821   1.180  10.723 -0.0177  0.1480  0.1789
  106OSM    O1410785   4.733   1.406  10.787 -0.1776  0.4871 -0.0471
  106OSM    O1110786   4.969   1.369  10.707  0.1643  0.1611 -0.8825
  106OSM    O1210787   4.885   1.295  10.937  0.1639 -0.0762  0.0941
  106OSM    C1S10788   5.025   1.340  10.583  0.5152  0.0595 -0.0885
  106OSM    H1S10789   4.955   1.272  10.529 -0.5735  1.9041 -1.1031
  106OSM    H1T10790   5.115   1.285  10.617 -0.5853 -1.6189  0.2852
  106OSM     NF10791   5.143   1.391  10.373 -0.2624  0.6878 -0.2715
  106OSM    HNF10792   5.238   1.410  10.353 -0.4433  0.7901 -1.0723
  106OSM    C2S10793   5.076   1.453  10.487  0.2415  0.7137 -0.5537
  106OSM    H2S10794   4.983   1.504  10.454 -0.9409 -1.6417 -0.9943
  106OSM    C3S10795   5.159   1.559  10.571 -0.2849 -0.3091 -0.2485
  106OSM    H3S10796   5.245   1.509  10.622  1.4665  0.6993 -2.0514
  106OSM     O310797   5.081   1.609  10.679  0.6771  0.2933  0.5057
  106OSM    HO310798   5.020   1.537  10.699  3.0136 -1.5218  1.6315
  106OSM    C4S10799   5.205   1.678  10.490  0.2731  0.1073 -0.0130
  106OSM    H4S10800   5.127   1.736  10.438 -2.0254 -1.2161  1.7205
  106OSM    C5S10801   5.330   1.722  10.488 -0.2157 -0.5496  0.2142
  106OSM    H5S10802   5.412   1.662  10.530 -1.2827 -0.9542  1.8205
  106OSM    C6S10803   5.372   1.842  10.403  0.3622  0.9296 -0.1274
  106OSM    H6S10804   5.421   1.800  10.313 -0.7573  0.3033 -0.4707
  106OSM    H6T10805   5.442   1.901  10.466 -0.8786  2.3091  0.0238
  106OSM    C7S10806   5.258   1.939  10.357  0.4399 -0.1958 -0.2731
  106OSM    H7S10807   5.191   1.950  10.445  1.7252  0.8858  0.6147
  106OSM    H7T10808   5.198   1.887  10.279 -0.2539 -0.2642  0.3013
  106OSM    C8S10809   5.298   2.076  10.312 -0.0944  0.2063 -0.3332
  106OSM    H8S10810   5.334   2.144  10.392  0.5342 -1.3101  0.6989
  106OSM    H8T10811   5.200   2.117  10.279 -0.9982 -1.0367  0.7448
  106OSM    C9S10812   5.405   2.071  10.197  0.5141 -0.6316  1.2353
  106OSM    H9S10813   5.362   2.002  10.121 -2.1505 -0.1619  2.2054
  106OSM    H9T10814   5.487   2.007  10.235  1.8044 -0.0992 -0.5209
  106OSM   C10S10815   5.460   2.203  10.145  0.5000  0.7213  0.6212
  106OSM   H10S10816   5.543   2.240  10.208  0.6165  1.7463 -0.1086
  106OSM   H10T10817   5.380   2.281  10.134 -1.3051 -1.2027 -0.7601
  106OSM   C11S10818   5.527   2.189   9.998 -0.1154  0.1102 -0.3503
  106OSM   H11S10819   5.583   2.093  10.004 -0.7055 -0.3725 -2.0980
  106OSM   H11T10820   5.610   2.262   9.990  0.9043 -1.1412 -1.5975
  106OSM   C12S10821   5.429   2.192   9.878 -0.0532  0.6878 -0.4505
  106OSM   H12S10822   5.370   2.286   9.889 -0.0229  0.5848  0.6869
  106OSM   H12T10823   5.356   2.108   9.875  1.1625 -0.3979 -0.6044
  106OSM   C13S10824   5.517   2.184   9.745 -0.1163  0.2055  0.1061
  106OSM   H13S10825   5.582   2.094   9.742 -0.2665  0.1242 -0.9471
  106OSM   H13T10826   5.562   2.283   9.722 -1.6464  0.7741 -0.5911
  106OSM   C14S10827   5.424   2.161   9.626  0.1612 -0.1547  0.1125
  106OSM   H14S10828   5.349   2.243   9.625  0.7365  0.4870 -3.1840
  106OSM   H14T10829   5.374   2.062   9.616 -0.9562  0.3610  0.4480
  106OSM   C15S10830   5.503   2.191   9.496  0.2143 -0.8117 -0.4041
  106OSM   H15S10831   5.580   2.114   9.475 -1.6384 -3.1545  0.8718
  106OSM   H15T10832   5.560   2.287   9.504  1.4737 -1.6197  0.8447
  106OSM   C16S10833   5.409   2.202   9.375  0.1631 -0.4364  0.7228
  106OSM   H16S10834   5.326   2.274   9.398  1.8339  1.6406  0.5560
  106OSM   H16T10835   5.366   2.100   9.363 -0.6100 -0.1525  0.9790
  106OSM   C17S10836   5.482   2.224   9.238  0.3055 -0.3189 -0.4389
  106OSM   H17S10837   5.579   2.171   9.244  0.7541  0.3619 -1.4372
  106OSM   H17T10838   5.495   2.333   9.219  1.6868 -0.3167  0.4289
  106OSM   C18S10839   5.398   2.177   9.113  0.1095 -0.4044 -0.2564
  106OSM   H18S10840   5.466   2.151   9.029  1.2637  0.7219  0.2878
  106OSM   H18T10841   5.325   2.255   9.086  1.2555  2.1845  3.3017
  106OSM   H18U10842   5.345   2.087   9.151 -0.0906  0.2074  0.9838
  106OSM    C1F10843   5.091   1.301  10.293 -0.1799  0.3326 -0.0674
  106OSM     OF10844   4.975   1.260  10.306  0.0413 -0.0254  0.0929
  106OSM    C2F10845   5.180   1.235  10.187  0.4131  0.5858 -0.1833
  106OSM    H2F10846   5.284   1.246  10.225 -0.3256  2.0613  1.5391
  106OSM    H2G10847   5.184   1.291  10.091 -3.3807 -0.9013 -1.4100
  106OSM    C3F10848   5.140   1.095  10.157  0.0171  0.3022  0.0876
  106OSM    H3F10849   5.032   1.093  10.131  0.3453  0.2037 -1.3629
  106OSM    H3G10850   5.149   1.040  10.253 -1.0465  2.4526  1.5105
  106OSM    C4F10851   5.216   1.042  10.036 -0.6439 -0.3341  0.2027
  106OSM    H4F10852   5.181   0.936  10.027 -1.8201 -0.0108  0.7474
  106OSM    H4G10853   5.325   1.047  10.054 -0.4493  0.0821 -0.9727
  106OSM    C5F10854   5.195   1.126   9.913 -0.0721  0.1145  0.6337
  106OSM    H5F10855   5.232   1.230   9.921 -1.0182  0.5278 -0.2605
  106OSM    H5G10856   5.086   1.131   9.897  0.2429  0.0563 -1.9104
  106OSM    C6F10857   5.271   1.050   9.806 -0.7052  0.5438  0.6745
  106OSM    H6F10858   5.277   0.945   9.842 -1.3064  0.6238  1.0315
  106OSM    H6G10859   5.371   1.095   9.788 -0.1472 -0.9238  0.0245
  106OSM    C7F10860   5.198   1.035   9.673 -0.0618  0.3038  0.2890
  106OSM    H7F10861   5.091   1.005   9.684 -0.4371  0.2192 -2.6409
  106OSM    H7G10862   5.241   0.948   9.621 -1.6560  0.0478 -0.6923
  106OSM    C8F10863   5.195   1.157   9.566  0.2599  0.5335 -1.0688
  106OSM    H8F10864   5.297   1.200   9.580  0.3156  0.3348 -0.8676
  106OSM    H8G10865   5.134   1.244   9.601  2.2328  1.4667  0.2170
  106OSM    C9F10866   5.158   1.116   9.430 -0.2022  0.6695  0.8779
  106OSM    H9F10867   5.052   1.090   9.414 -0.6914  3.9930 -2.4930
  106OSM   C10F10868   5.240   1.133   9.325 -0.2217 -0.0984  0.5798
  106OSM   H10F10869   5.217   1.099   9.223  0.4286 -0.8776  0.6855
  106OSM   C11F10870   5.382   1.185   9.321 -0.6289  0.3075  0.1578
  106OSM   H11F10871   5.405   1.253   9.405 -1.8961  1.3982 -0.3358
  106OSM   H11G10872   5.385   1.249   9.230 -2.0144  3.3695  2.1258
  106OSM   C12F10873   5.496   1.080   9.327  0.1297  0.2572 -0.2370
  106OSM   H12F10874   5.461   1.009   9.405 -0.3368  2.7549  1.9666
  106OSM   H12G10875   5.592   1.130   9.355  0.8160  0.0768 -2.1513
  106OSM   C13F10876   5.529   1.011   9.194 -0.2133 -0.1592 -0.7263
  106OSM   H13F10877   5.440   0.954   9.158  0.3874  0.3978 -3.2854
  106OSM   H13G10878   5.608   0.936   9.216  1.7350  2.0902  0.3358
  106OSM   C14F10879   5.604   1.103   9.106  0.3960  0.1377  1.5269
  106OSM   H14F10880   5.686   1.155   9.161  0.4317  2.6408 -0.7100
  106OSM   H14G10881   5.531   1.180   9.073 -0.8950 -1.4870  0.4676
  106OSM   C15F10882   5.669   1.035   8.986  0.4544 -0.5380  0.2535
  106OSM   H15F10883   5.661   1.108   8.903 -2.0691  0.0352  0.9013
  106OSM   H15G10884   5.617   0.938   8.968  2.0023 -1.6232  1.4184
  106OSM   C16F10885   5.809   0.982   9.005  0.3525 -0.0239  0.2184
  106OSM   H16F10886   5.814   0.907   9.087  1.6126  1.3901  1.4826
  106OSM   H16G10887   5.891   1.049   9.039  1.9273 -1.3753 -0.7692
  106OSM   C17F10888   5.848   0.907   8.882 -0.3705  0.1867  0.5126
  106OSM   H17F10889   5.876   0.986   8.809 -1.2447  2.0412  2.0840
  106OSM   H17G10890   5.760   0.846   8.851 -0.2870  0.4846 -0.3384
  106OSM   C18F10891   5.980   0.820   8.897  0.0592  0.6305 -0.3873
  106OSM   H18F10892   6.032   0.807   8.800 -1.2706 -2.3373 -0.8149
  106OSM   H18G10893   5.952   0.721   8.939 -0.9543  2.3003  3.3275
  106OSM   H18H10894   6.047   0.866   8.972 -0.4798 -0.4851  0.8233
  107OSM      N10895   0.489   5.762  11.239 -0.3876  0.3560 -0.2603
  107OSM    C1510896   0.444   5.716  11.375  0.9042  0.1944  0.2302
  107OSM   H15A10897   0.515   5.645  11.417  0.4770 -0.5231 -0.2458
  107OSM   H15B10898   0.353   5.663  11.355  2.4589 -2.9154  0.7676
  107OSM   H15C10899   0.420   5.801  11.438  2.1559  1.5584 -1.0546
  107OSM    C1410900   0.622   5.824  11.256 -0.2999 -0.0455 -0.5912
  107OSM   H14A10901   0.624   5.915  11.314 -0.3191 -0.7722  0.5743
  107OSM   H14B10902   0.658   5.854  11.158  2.6109 -0.1858  0.3333
  107OSM   H14C10903   0.704   5.763  11.290  0.5937  0.5858 -1.5535
  107OSM    C1310904   0.502   5.644  11.144 -0.0224  0.7964 -0.3578
  107OSM   H13A10905   0.567   5.568  11.184  2.1504  1.0781 -3.0476
  107OSM   H13B10906   0.555   5.684  11.059  0.4183  2.4486  0.6466
  107OSM   H13C10907   0.410   5.598  11.111 -0.6965  1.9618 -0.1816
  107OSM    C1210908   0.399   5.873  11.179 -0.9160  0.4444  0.4121
  107OSM   H12A10909   0.409   5.968  11.230 -0.7768 -0.0293  1.2888
  107OSM   H12B10910   0.299   5.833  11.185 -0.7431 -0.0651 -0.0602
  107OSM    C1110911   0.425   5.912  11.030  0.4945  0.0494 -0.4982
  107OSM   H11A10912   0.346   5.982  10.996 -0.3828 -0.9894 -0.6517
  107OSM   H11B10913   0.419   5.819  10.969  0.8385  0.7198 -1.5886
  107OSM      P10914   0.604   6.030  10.874  0.4386 -0.6104  0.3778
  107OSM    O1310915   0.636   6.174  10.886 -0.0301 -0.1038 -0.1461
  107OSM    O1410916   0.714   5.946  10.821  0.7057  0.3814  0.3591
  107OSM    O1110917   0.496   6.011  10.765  0.5946 -0.9135 -0.5299
  107OSM    O1210918   0.552   5.974  11.006 -0.3702  0.6666 -0.2080
  107OSM    C1S10919   0.370   6.075  10.750 -0.5583 -0.2475 -0.2668
  107OSM    H1S10920   0.366   6.166  10.813  0.3222 -0.0822 -0.4401
  107OSM    H1T10921   0.288   6.006  10.779 -1.5272  1.2553  0.6982
  107OSM     NF10922   0.261   6.228  10.586 -0.1606 -0.3546 -0.4244
  107OSM    HNF10923   0.170   6.196  10.564  0.0287 -0.0010 -1.7987
  107OSM    C2S10924   0.357   6.117  10.598  0.2087  0.1379 -0.3127
  107OSM    H2S10925   0.458   6.149  10.563  0.9734 -1.3535  0.4078
  107OSM    C3S10926   0.315   5.995  10.516  0.7489 -0.3391  0.0698
  107OSM    H3S10927   0.219   5.954  10.554  1.2133 -3.1080 -1.4560
  107OSM     O310928   0.402   5.885  10.533  0.0743  0.5426 -0.1512
  107OSM    HO310929   0.472   5.921  10.588  0.1104 -0.3367  0.4091
  107OSM    C4S10930   0.292   6.017  10.368 -0.0889 -0.8022  0.3162
  107OSM    H4S10931   0.188   6.023  10.332  0.7730  3.1177 -2.1506
  107OSM    C5S10932   0.383   6.060  10.277  0.4860  0.3873 -0.1049
  107OSM    H5S10933   0.482   6.068  10.325 -0.1956 -0.0304  1.4253
  107OSM    C6S10934   0.363   6.099  10.136  0.8582 -0.4189  0.1707
  107OSM    H6S10935   0.422   6.029  10.072 -0.9849 -1.4643 -0.4687
  107OSM    H6T10936   0.405   6.199  10.112  0.8291  0.1645  2.3487
  107OSM    C7S10937   0.217   6.086  10.088  0.0128  0.3163  0.4291
  107OSM    H7S10938   0.169   6.170  10.142 -0.2319  1.4210 -1.4083
  107OSM    H7T10939   0.166   5.995  10.126 -1.1845  0.1358 -1.4605
  107OSM    C8S10940   0.199   6.090   9.932 -0.1880  0.5576 -0.4380
  107OSM    H8S10941   0.103   6.133   9.897 -0.3572 -0.3760 -1.1589
  107OSM    H8T10942   0.205   5.986   9.895  1.8230  1.2051 -2.1533
  107OSM    C9S10943   0.308   6.170   9.859  0.3140  0.4518  0.1150
  107OSM    H9S10944   0.396   6.102   9.858  0.8323  1.0660  1.2675
  107OSM    H9T10945   0.343   6.260   9.915  0.1108  0.4547  0.2380
  107OSM   C10S10946   0.282   6.203   9.705  0.3122  0.5871 -0.4808
  107OSM   H10S10947   0.375   6.239   9.657  1.2844 -0.2971  0.6564
  107OSM   H10T10948   0.193   6.270   9.705 -0.1206  0.0338  0.1392
  107OSM   C11S10949   0.232   6.067   9.629 -0.3072 -0.0938 -0.3207
  107OSM   H11S10950   0.139   6.031   9.679  0.0563  0.6031  0.8913
  107OSM   H11T10951   0.310   5.988   9.629 -0.9372 -0.7647 -1.7780
  107OSM   C12S10952   0.202   6.083   9.478  0.4755  0.4900  0.5110
  107OSM   H12S10953   0.177   5.992   9.419 -0.4971  1.3472 -0.4644
  107OSM   H12T10954   0.291   6.134   9.436 -0.5684  0.8977 -1.3464
  107OSM   C13S10955   0.079   6.178   9.459 -1.0275 -0.1309  0.4450
  107OSM   H13S10956   0.117   6.279   9.431  2.4379 -0.8780  1.8647
  107OSM   H13T10957   0.030   6.175   9.558 -2.4524 -2.5541 -0.2358
  107OSM   C14S10958  -0.012   6.130   9.346  0.6330 -0.3003  0.2068
  107OSM   H14S10959  -0.097   6.202   9.344  1.0484  0.4461  3.4836
  107OSM   H14T10960  -0.054   6.028   9.361 -0.6466  0.2555  0.5629
  107OSM   C15S10961   0.051   6.131   9.206  0.8412  0.4139  0.3284
  107OSM   H15S10962   0.145   6.071   9.206  1.3620  1.2023 -0.2028
  107OSM   H15T10963   0.080   6.237   9.190  0.2696  0.2354 -2.3558
  107OSM   C16S10964  -0.040   6.096   9.093 -0.6929 -0.3217  0.0722
  107OSM   H16S10965  -0.135   6.153   9.087  0.1032  1.0404 -0.0231
  107OSM   H16T10966  -0.068   5.990   9.109 -0.6766 -0.4109 -0.4812
  107OSM   C17S10967   0.027   6.090   8.957  0.1594  1.0798  0.2072
  107OSM   H17S10968   0.110   6.017   8.945 -0.3350  0.7007 -1.0788
  107OSM   H17T10969   0.083   6.185   8.939  1.1941  0.4491  0.0006
  107OSM   C18S10970  -0.075   6.060   8.843 -0.3207 -0.6725 -0.2570
  107OSM   H18S10971  -0.040   5.993   8.762 -0.6735 -1.8296  0.5151
  107OSM   H18T10972  -0.112   6.152   8.792 -2.3018 -1.2996 -0.0413
  107OSM   H18U10973  -0.166   6.015   8.888  0.0576 -0.8359  0.3558
  107OSM    C1F10974   0.288   6.355  10.619  0.3541  0.2944  0.1525
  107OSM     OF10975   0.385   6.389  10.686 -0.2010  0.1829  0.5725
  107OSM    C2F10976   0.186   6.456  10.582 -0.5538 -0.2998  0.2021
  107OSM    H2F10977   0.168   6.523  10.669  1.3728  0.7520 -0.1506
  107OSM    H2G10978   0.091   6.408  10.548  0.3277 -1.1815 -1.1245
  107OSM    C3F10979   0.241   6.548  10.465 -0.1672 -0.4626 -0.4955
  107OSM    H3F10980   0.340   6.595  10.487 -0.1839 -1.0345  0.8797
  107OSM    H3G10981   0.165   6.629  10.456  0.3343 -0.0750 -1.4555
  107OSM    C4F10982   0.246   6.469  10.333 -1.4288  0.4947 -0.0603
  107OSM    H4F10983   0.153   6.428  10.288  0.0625 -2.3161 -0.8387
  107OSM    H4G10984   0.311   6.379  10.340 -2.3447 -0.0869  1.3619
  107OSM    C5F10985   0.304   6.559  10.219 -0.0347 -0.0491  0.2534
  107OSM    H5F10986   0.379   6.627  10.264 -0.0976  1.2185 -1.4293
  107OSM    H5G10987   0.229   6.624  10.169  0.4414  0.9915  0.8789
  107OSM    C6F10988   0.375   6.487  10.105  0.3864 -0.0848 -0.4297
  107OSM    H6F10989   0.300   6.440  10.037 -0.0840 -0.8749  0.6034
  107OSM    H6G10990   0.435   6.398  10.131 -2.2462 -1.6542  0.6220
  107OSM    C7F10991   0.466   6.578  10.033  1.1086  0.0411 -0.6974
  107OSM    H7F10992   0.538   6.628  10.102  1.1591 -0.3338 -0.4749
  107OSM    H7G10993   0.415   6.663   9.982  2.1762 -0.1557 -2.1702
  107OSM    C8F10994   0.555   6.508   9.921 -0.4543  0.2122 -0.3084
  107OSM    H8F10995   0.493   6.443   9.855 -0.1773  0.7535 -1.1314
  107OSM    H8G10996   0.637   6.444   9.959  1.8682  0.5666 -4.1701
  107OSM    C9F10997   0.629   6.613   9.844 -0.4075 -0.5027  0.1184
  107OSM    H9F10998   0.717   6.658   9.892 -0.9872  1.8092 -0.8369
  107OSM   C10F10999   0.589   6.667   9.728 -0.6570  0.1621 -0.7561
  107OSM   H10F11000   0.632   6.760   9.689 -3.7030  0.9114 -2.6714
  107OSM   C11F11001   0.468   6.633   9.649  0.6926 -0.9124 -0.2907
  107OSM   H11F11002   0.450   6.710   9.572  1.0616 -0.4602  0.0723
  107OSM   H11G11003   0.385   6.630   9.723  0.9132 -2.4722 -0.0671
  107OSM   C12F11004   0.491   6.507   9.566 -0.3678  0.5983 -1.2788
  107OSM   H12F11005   0.523   6.421   9.630  0.4347  1.0237 -1.0981
  107OSM   H12G11006   0.580   6.515   9.501  0.1059 -0.5418 -0.8033
  107OSM   C13F11007   0.374   6.464   9.481  0.6249  0.1659 -0.2199
  107OSM   H13F11008   0.282   6.448   9.542  0.4479 -1.5316 -0.8737
  107OSM   H13G11009   0.407   6.365   9.441 -1.1166 -0.7480  0.4892
  107OSM   C14F11010   0.332   6.550   9.358 -0.9507  0.0493  0.4403
  107OSM   H14F11011   0.286   6.649   9.379 -1.4015  0.3938 -1.9694
  107OSM   H14G11012   0.247   6.492   9.317  0.4301 -2.2720  0.6730
  107OSM   C15F11013   0.457   6.584   9.263 -0.0191 -0.0770 -0.3522
  107OSM   H15F11014   0.544   6.517   9.284  1.0443  1.5537  0.7197
  107OSM   H15G11015   0.497   6.683   9.296 -1.0800 -0.4366  2.1817
  107OSM   C16F11016   0.418   6.576   9.111  0.7341  0.0398 -0.2405
  107OSM   H16F11017   0.480   6.626   9.035  2.1414  0.0389  0.8673
  107OSM   H16G11018   0.317   6.622   9.105  1.1057  0.6302 -3.2135
  107OSM   C17F11019   0.402   6.429   9.056 -0.6949 -0.3441 -0.3489
  107OSM   H17F11020   0.363   6.358   9.132 -0.7319  1.2377  1.1729
  107OSM   H17G11021   0.501   6.393   9.022  0.0304  0.8631  0.4078
  107OSM   C18F11022   0.319   6.423   8.929 -0.1801 -0.4737  0.2139
  107OSM   H18F11023   0.305   6.516   8.870 -1.2431 -0.7002  0.0955
  107OSM   H18G11024   0.221   6.375   8.949 -0.6527  0.5264  0.3596
  107OSM   H18H11025   0.370   6.352   8.860  2.3605  0.3160  1.1760
  108OSM      N11026   4.403   1.211  10.527 -0.4321 -0.4418  0.1461
  108OSM    C1511027   4.401   1.353  10.488  0.6315  0.3994  0.3696
  108OSM   H15A11028   4.479   1.367  10.415  2.0927 -0.1008  1.7602
  108OSM   H15B11029   4.429   1.427  10.561  0.9303  1.9721 -1.2786
  108OSM   H15C11030   4.305   1.386  10.451  0.8895 -1.1055 -1.8204
  108OSM    C1411031   4.352   1.129  10.415 -0.1118  0.2728  0.6943
  108OSM   H14A11032   4.244   1.133  10.421 -0.2604  0.8217 -1.4291
  108OSM   H14B11033   4.389   1.028  10.420 -0.0998  0.1857 -0.7921
  108OSM   H14C11034   4.383   1.156  10.315 -0.0195  0.5773  0.8013
  108OSM    C1311035   4.553   1.173  10.547  0.2712  0.6367  0.2176
  108OSM   H13A11036   4.594   1.223  10.634 -0.8792 -0.2362  1.2908
  108OSM   H13B11037   4.612   1.198  10.460 -0.3267 -2.7726 -1.2960
  108OSM   H13C11038   4.579   1.069  10.560  0.3284  0.4486 -1.2901
  108OSM    C1211039   4.331   1.176  10.656  0.7797 -0.7581 -0.3846
  108OSM   H12A11040   4.380   1.206  10.747 -3.3427  1.5902  1.3366
  108OSM   H12B11041   4.326   1.069  10.670 -0.1165 -0.5276  1.2650
  108OSM    C1111042   4.187   1.235  10.666  0.2314 -0.4644  0.6289
  108OSM   H11A11043   4.197   1.345  10.649 -0.6798 -0.6586 -1.4406
  108OSM   H11B11044   4.142   1.224  10.766 -0.5463 -0.5376  0.2775
  108OSM      P11045   4.019   1.055  10.580 -0.2159  0.3631  0.1184
  108OSM    O1311046   4.109   0.963  10.656  0.6285 -0.3630 -0.1762
  108OSM    O1411047   3.887   1.089  10.635 -0.4680 -0.0963 -0.4474
  108OSM    O1111048   4.006   1.003  10.425 -0.9027  0.5538 -0.3315
  108OSM    O1211049   4.104   1.192  10.561  0.0551  0.0500 -0.0438
  108OSM    C1S11050   3.876   1.017  10.370  0.7496  0.7777  0.8861
  108OSM    H1S11051   3.834   1.119  10.384  0.1903  0.9243 -1.4469
  108OSM    H1T11052   3.810   0.939  10.413  0.2630  0.1257 -0.9725
  108OSM     NF11053   3.752   1.012  10.153  0.5406 -0.0117  0.2087
  108OSM    HNF11054   3.690   0.939  10.123  0.8666  0.0649 -0.6811
  108OSM    C2S11055   3.884   0.984  10.220 -0.1209  0.7567 -0.6228
  108OSM    H2S11056   3.954   1.060  10.176  0.2688  0.4712 -0.5008
  108OSM    C3S11057   3.941   0.845  10.185 -0.1405 -0.0006 -0.2040
  108OSM    H3S11058   3.873   0.772  10.234 -1.7645  2.2155  1.0092
  108OSM     O311059   4.070   0.815  10.244  0.1181 -0.8983 -0.3927
  108OSM    HO311060   4.078   0.880  10.314 -1.8445 -1.3280  0.2971
  108OSM    C4S11061   3.960   0.814  10.034 -0.4923  0.2235 -0.0508
  108OSM    H4S11062   4.028   0.877   9.974  0.7490 -1.1682 -0.1343
  108OSM    C5S11063   3.903   0.704   9.974  0.0826 -0.2170 -0.2895
  108OSM    H5S11064   3.851   0.640  10.047  2.0256 -0.9165  0.5416
  108OSM    C6S11065   3.907   0.661   9.831  0.3725  0.7279 -0.4820
  108OSM    H6S11066   3.809   0.679   9.783 -0.3251 -1.5558 -0.0595
  108OSM    H6T11067   3.922   0.551   9.821  3.4932  1.1643 -1.6897
  108OSM    C7S11068   4.020   0.717   9.747  0.0102  0.3289  0.3426
  108OSM    H7S11069   4.118   0.701   9.797 -0.0685 -0.2299  0.3179
  108OSM    H7T11070   3.998   0.826   9.737 -2.1179  0.3883  3.9531
  108OSM    C8S11071   4.030   0.663   9.599  0.7565  0.3736  0.1755
  108OSM    H8S11072   3.934   0.675   9.545  1.2294 -1.7331 -1.2550
  108OSM    H8T11073   4.056   0.556   9.611  0.6953 -0.1078 -3.2183
  108OSM    C9S11074   4.134   0.734   9.517 -0.3623 -0.3659  0.8449
  108OSM    H9S11075   4.222   0.726   9.585  0.7779 -1.8785 -0.6998
  108OSM    H9T11076   4.108   0.836   9.482  2.9996  0.1388 -0.6490
  108OSM   C10S11077   4.181   0.663   9.396  0.1233 -0.7012 -0.2670
  108OSM   H10S11078   4.211   0.564   9.436 -0.8183 -0.9028 -0.0377
  108OSM   H10T11079   4.270   0.719   9.359  0.7338 -1.7992 -0.4891
  108OSM   C11S11080   4.087   0.661   9.278  0.3915 -0.6033 -0.0012
  108OSM   H11S11081   4.083   0.766   9.242 -0.0093 -0.9609 -1.0232
  108OSM   H11T11082   3.985   0.635   9.312  0.1662  0.2287 -0.0301
  108OSM   C12S11083   4.125   0.570   9.165 -0.8873  0.3225  0.6160
  108OSM   H12S11084   4.149   0.473   9.212  0.4364  0.8683  1.1129
  108OSM   H12T11085   4.222   0.604   9.123 -0.7931 -2.0980 -1.3919
  108OSM   C13S11086   4.016   0.573   9.054 -0.7524 -1.4160 -0.5147
  108OSM   H13S11087   3.989   0.674   9.017  1.2322  0.1029  1.8413
  108OSM   H13T11088   3.928   0.520   9.097 -0.5057 -0.7444  0.8841
  108OSM   C14S11089   4.064   0.492   8.931  0.7887  0.5460 -0.6961
  108OSM   H14S11090   4.031   0.386   8.938 -0.3125  0.9962  2.6453
  108OSM   H14T11091   4.175   0.493   8.925  0.7684 -0.9422 -2.1557
  108OSM   C15S11092   4.015   0.538   8.790  0.5241 -0.3457 -0.0163
  108OSM   H15S11093   4.032   0.467   8.706  0.0652  0.3944 -0.7518
  108OSM   H15T11094   4.063   0.633   8.760  0.1536 -0.2811 -0.4120
  108OSM   C16S11095   3.861   0.558   8.786 -0.1890 -0.1305 -0.0481
  108OSM   H16S11096   3.819   0.624   8.865 -0.9123  0.5730 -1.0111
  108OSM   H16T11097   3.834   0.453   8.812  0.2632 -0.2030  0.1414
  108OSM   C17S11098   3.807   0.600   8.651 -0.6034  1.0762 -0.3181
  108OSM   H17S11099   3.857   0.553   8.564  1.0955  1.7060  0.2734
  108OSM   H17T11100   3.837   0.706   8.646  1.7391  0.5337  0.5616
  108OSM   C18S11101   3.660   0.583   8.654  0.0935 -0.0974 -0.3564
  108OSM   H18S11102   3.618   0.616   8.557  1.9968  1.9949 -0.5403
  108OSM   H18T11103   3.619   0.644   8.738 -0.2217  0.3265 -0.8099
  108OSM   H18U11104   3.637   0.475   8.667  1.6851 -0.4467 -0.3075
  108OSM    C1F11105   3.707   1.143  10.164  0.4113  0.3287  0.0978
  108OSM     OF11106   3.790   1.233  10.154  0.8683  0.2342  0.9269
  108OSM    C2F11107   3.558   1.157  10.196  0.1263 -0.7158 -0.3530
  108OSM    H2F11108   3.537   1.191  10.300 -2.9588 -1.0973 -0.7602
  108OSM    H2G11109   3.509   1.057  10.190  1.2272 -1.4310  1.5634
  108OSM    C3F11110   3.496   1.256  10.098  0.6516  0.3709  0.0909
  108OSM    H3F11111   3.544   1.355  10.110 -0.4136  0.8226  0.7554
  108OSM    H3G11112   3.387   1.266  10.114  0.0474 -0.5318 -2.8100
  108OSM    C4F11113   3.509   1.212   9.951 -1.0236 -0.2074 -0.3216
  108OSM    H4F11114   3.457   1.114   9.950 -1.4080 -0.0059 -2.2802
  108OSM    H4G11115   3.618   1.190   9.939 -0.7098 -0.3375  2.1013
  108OSM    C5F11116   3.461   1.310   9.847  0.1539  0.4401  0.1630
  108OSM    H5F11117   3.540   1.379   9.810  0.1067  0.1888 -0.4204
  108OSM    H5G11118   3.375   1.365   9.890  0.3618  1.1927 -0.3669
  108OSM    C6F11119   3.402   1.224   9.729 -0.1451 -0.5998  0.3375
  108OSM    H6F11120   3.314   1.173   9.773 -0.8390 -1.6705 -2.0750
  108OSM    H6G11121   3.476   1.157   9.680 -1.0955 -0.1873 -1.7757
  108OSM    C7F11122   3.342   1.308   9.609  1.3125  0.4682  0.4922
  108OSM    H7F11123   3.375   1.413   9.594  1.0526  0.2779 -1.6671
  108OSM    H7G11124   3.237   1.326   9.639  1.2909 -0.4816  1.0420
  108OSM    C8F11125   3.321   1.218   9.484 -0.3464 -0.2990  0.0680
  108OSM    H8F11126   3.225   1.240   9.432  0.1879 -0.1553 -0.8881
  108OSM    H8G11127   3.294   1.113   9.507 -2.5172 -0.1744 -1.6070
  108OSM    C9F11128   3.452   1.231   9.392 -0.3589 -0.8960 -0.1502
  108OSM    H9F11129   3.540   1.169   9.415 -0.2120 -1.0964 -1.2225
  108OSM   C10F11130   3.454   1.292   9.267  0.4368  0.0783 -0.0118
  108OSM   H10F11131   3.551   1.298   9.214 -0.5362 -0.4620 -1.9453
  108OSM   C11F11132   3.343   1.367   9.199  0.4219  0.4120 -0.3896
  108OSM   H11F11133   3.250   1.366   9.259 -0.3685 -0.5036 -1.5744
  108OSM   H11G11134   3.307   1.308   9.112  1.0539 -2.1119  0.9505
  108OSM   C12F11135   3.380   1.510   9.177 -0.3412  0.4178  0.5822
  108OSM   H12F11136   3.438   1.549   9.264  2.1354 -0.4725 -0.5995
  108OSM   H12G11137   3.284   1.567   9.178 -1.2385 -0.9711 -0.9840
  108OSM   C13F11138   3.452   1.544   9.046  0.3677 -0.4666 -1.0312
  108OSM   H13F11139   3.521   1.461   9.021 -0.0695 -0.4350 -2.4161
  108OSM   H13G11140   3.510   1.638   9.049 -0.4374  0.0554  1.6380
  108OSM   C14F11141   3.353   1.565   8.928  0.6510 -0.1636 -0.3380
  108OSM   H14F11142   3.271   1.636   8.951  0.5683 -0.2743 -0.2865
  108OSM   H14G11143   3.307   1.470   8.895 -4.1706  1.5257  0.7270
  108OSM   C15F11144   3.418   1.619   8.802  0.1742  0.3395  0.2637
  108OSM   H15F11145   3.446   1.724   8.826  0.8389 -0.1883  1.9508
  108OSM   H15G11146   3.338   1.615   8.724  1.8690  0.4616 -1.5462
  108OSM   C16F11147   3.542   1.543   8.760 -0.5489  0.4347  0.5546
  108OSM   H16F11148   3.509   1.441   8.731 -0.9017  0.6136  0.3200
  108OSM   H16G11149   3.614   1.531   8.844 -0.8309  0.2015  0.7610
  108OSM   C17F11150   3.612   1.606   8.641  1.0290  0.4118 -0.2699
  108OSM   H17F11151   3.535   1.636   8.566 -0.9121  1.5983  2.0654
  108OSM   H17G11152   3.675   1.526   8.597  0.1402  0.8215 -2.4437
  108OSM   C18F11153   3.709   1.718   8.673  0.6333 -0.2599 -0.1894
  108OSM   H18F11154   3.761   1.758   8.583  3.8956  1.5409  2.2800
  108OSM   H18G11155   3.773   1.693   8.760  1.0207  1.0605 -0.0704
  108OSM   H18H11156   3.658   1.808   8.713 -0.4327 -0.0142 -1.9572
  109OSM      N11157   2.243   5.696  11.204  0.2330  0.7748 -0.2079
  109OSM    C1511158   2.273   5.600  11.314 -0.2725 -0.1141 -0.0688
  109OSM   H15A11159   2.370   5.551  11.312 -0.9279 -1.5754  1.6054
  109OSM   H15B11160   2.194   5.526  11.317 -0.7311  0.4001  1.5703
  109OSM   H15C11161   2.255   5.653  11.406 -2.6076  0.8610 -1.0287
  109OSM    C1411162   2.101   5.736  11.213 -0.1309 -0.6877  0.1724
  109OSM   H14A11163   2.080   5.815  11.285  0.9688  1.9244 -2.1785
  109OSM   H14B11164   2.030   5.656  11.224  2.7738 -3.4134  0.2895
  109OSM   H14C11165   2.071   5.786  11.121 -0.5543  1.0030  1.1705
  109OSM    C1311166   2.335   5.812  11.212 -0.0762  0.2450  0.0979
  109OSM   H13A11167   2.322   5.882  11.293 -2.4593 -0.0760  0.0411
  109OSM   H13B11168   2.320   5.874  11.124  1.0215 -0.1265 -0.3679
  109OSM   H13C11169   2.436   5.775  11.219 -0.2675 -0.2351  0.3609
  109OSM    C1211170   2.267   5.620  11.079  1.0264 -0.1276 -0.0293
  109OSM   H12A11171   2.184   5.552  11.070 -1.1826  2.2314  1.3540
  109OSM   H12B11172   2.354   5.556  11.077  0.5112 -0.8737 -2.5753
  109OSM    C1111173   2.267   5.705  10.944  0.0708 -0.2506 -0.4156
  109OSM   H11A11174   2.303   5.638  10.862  1.9508  0.0937  0.0954
  109OSM   H11B11175   2.348   5.780  10.951 -0.0018 -0.1780 -0.3597
  109OSM      P11176   2.128   5.926  10.913  0.3000 -0.0944  0.0736
  109OSM    O1311177   1.982   5.960  10.892  0.6142 -0.0466  0.1116
  109OSM    O1411178   2.185   5.989  11.032 -0.4642 -0.4390  0.2015
  109OSM    O1111179   2.209   5.966  10.785 -0.8899 -1.1755 -1.2002
  109OSM    O1211180   2.133   5.766  10.921  0.2382  0.1439 -0.1650
  109OSM    C1S11181   2.219   5.880  10.671  0.2902 -0.2683 -0.1972
  109OSM    H1S11182   2.120   5.837  10.644 -0.5606  2.8694 -2.6764
  109OSM    H1T11183   2.294   5.799  10.683  1.7384  0.9857 -0.5974
  109OSM     NF11184   2.214   5.920  10.425  0.1563 -0.2270  0.0674
  109OSM    HNF11185   2.262   5.879  10.349  1.4112  0.1085  0.6609
  109OSM    C2S11186   2.268   5.966  10.552 -0.1471 -0.2635 -0.0094
  109OSM    H2S11187   2.235   6.071  10.568  1.1142 -0.1409  2.2926
  109OSM    C3S11188   2.425   5.978  10.555 -0.1000 -0.3264  0.1104
  109OSM    H3S11189   2.463   5.877  10.529  1.0609  0.5490 -1.8329
  109OSM     O311190   2.489   6.019  10.681 -0.6241 -0.8731  0.6854
  109OSM    HO311191   2.436   6.035  10.759  0.8393  0.6027  1.4273
  109OSM    C4S11192   2.478   6.062  10.434 -0.0221  0.2924 -0.4494
  109OSM    H4S11193   2.487   6.002  10.342 -1.1247 -0.1504 -0.2776
  109OSM    C5S11194   2.520   6.193  10.437  0.4232 -0.7847 -0.5937
  109OSM    H5S11195   2.535   6.229  10.539  1.0768 -0.3114 -0.8461
  109OSM    C6S11196   2.572   6.272  10.323  0.3016  0.6431 -0.3063
  109OSM    H6S11197   2.678   6.300  10.344  0.4819  1.0166 -1.6021
  109OSM    H6T11198   2.504   6.358  10.305 -0.3854  0.5020  1.4173
  109OSM    C7S11199   2.574   6.196  10.186  0.4521  0.3727  0.0468
  109OSM    H7S11200   2.470   6.158  10.175  1.2832 -1.3684 -3.1579
  109OSM    H7T11201   2.629   6.101  10.199 -1.0775 -0.6499 -0.6640
  109OSM    C8S11202   2.622   6.286  10.073  0.2951 -0.1171 -0.5344
  109OSM    H8S11203   2.725   6.326  10.083  0.6155 -0.0246 -3.2710
  109OSM    H8T11204   2.555   6.374  10.064 -0.5939 -0.6983  0.2320
  109OSM    C9S11205   2.606   6.211   9.938 -0.0887 -0.4390  0.5954
  109OSM    H9S11206   2.497   6.205   9.916 -0.0360  1.5354 -0.4190
  109OSM    H9T11207   2.654   6.112   9.956 -1.6479 -1.3217  0.0563
  109OSM   C10S11208   2.675   6.286   9.822 -0.1926 -0.2027  1.0253
  109OSM   H10S11209   2.785   6.301   9.830  0.0632  1.4805 -3.0156
  109OSM   H10T11210   2.630   6.388   9.813  0.4798 -0.0495 -1.4677
  109OSM   C11S11211   2.659   6.216   9.686 -0.5483  0.9627 -0.3191
  109OSM   H11S11212   2.552   6.190   9.674 -0.4886 -0.3689  1.6195
  109OSM   H11T11213   2.721   6.123   9.685  0.6890  1.6039  3.1820
  109OSM   C12S11214   2.713   6.292   9.560  0.7043 -0.7081  0.3369
  109OSM   H12S11215   2.823   6.296   9.565  0.7388 -1.2365 -0.0380
  109OSM   H12T11216   2.681   6.398   9.572  1.2399 -0.5523  0.4131
  109OSM   C13S11217   2.663   6.224   9.434 -0.0561 -0.6821  0.0465
  109OSM   H13S11218   2.554   6.202   9.441 -0.1773  0.2579  1.5045
  109OSM   H13T11219   2.716   6.127   9.435 -1.5620 -1.5481 -0.6122
  109OSM   C14S11220   2.697   6.299   9.302  0.2566 -0.1088  0.2422
  109OSM   H14S11221   2.675   6.229   9.218  0.5682  2.2948 -1.9667
  109OSM   H14T11222   2.806   6.322   9.294  0.3136 -0.7440 -1.2735
  109OSM   C15S11223   2.613   6.422   9.287  0.9060 -0.5820 -0.6843
  109OSM   H15S11224   2.682   6.498   9.243  1.4406 -1.5584 -1.5653
  109OSM   H15T11225   2.591   6.466   9.386  1.7509 -2.7323  0.5253
  109OSM   C16S11226   2.482   6.414   9.196 -0.2674 -0.2367  0.8729
  109OSM   H16S11227   2.440   6.517   9.187 -0.7948 -0.5589 -0.4698
  109OSM   H16T11228   2.405   6.350   9.244 -1.1409  0.6157  0.6556
  109OSM   C17S11229   2.500   6.369   9.053 -0.0355  0.0736 -0.3746
  109OSM   H17S11230   2.410   6.404   9.000 -0.3412 -0.5955 -0.3039
  109OSM   H17T11231   2.496   6.259   9.042 -0.0258  0.1435 -1.1304
  109OSM   C18S11232   2.629   6.434   8.990  0.2069 -0.2767 -0.2658
  109OSM   H18S11233   2.645   6.541   9.017  1.7418 -0.0100 -1.9698
  109OSM   H18T11234   2.625   6.428   8.879  2.5029 -1.1822 -0.3502
  109OSM   H18U11235   2.722   6.383   9.022 -1.5943 -1.7360  3.1199
  109OSM    C1F11236   2.081   5.933  10.402 -0.2848 -0.5746  0.5320
  109OSM     OF11237   2.010   5.993  10.483  0.3186  0.3884 -0.4890
  109OSM    C2F11238   2.032   5.879  10.269  0.3423 -0.1676 -0.1985
  109OSM    H2F11239   2.049   5.769  10.270  0.5858 -0.1662 -1.9250
  109OSM    H2G11240   2.095   5.920  10.187  1.1318 -0.1095  0.4199
  109OSM    C3F11241   1.883   5.903  10.241 -0.8396  0.3923  0.5144
  109OSM    H3F11242   1.865   6.013  10.244 -2.6530  0.3438 -3.3741
  109OSM    H3G11243   1.831   5.848  10.322 -0.2168 -0.6151  0.2410
  109OSM    C4F11244   1.819   5.859  10.114  0.4116 -0.0482  0.0547
  109OSM    H4F11245   1.710   5.848  10.132  0.7814 -0.5295  2.3335
  109OSM    H4G11246   1.866   5.763  10.083 -0.6493  0.0262 -1.9369
  109OSM    C5F11247   1.835   5.956  10.001 -0.0288 -0.1071  0.1696
  109OSM    H5F11248   1.938   5.998   9.994 -0.3579  0.6996  0.0523
  109OSM    H5G11249   1.772   6.047  10.009  2.0103  1.3888 -0.1171
  109OSM    C6F11250   1.786   5.897   9.869  0.3878  0.0899  0.3967
  109OSM    H6F11251   1.694   5.848   9.907  0.3760  0.9088  1.4710
  109OSM    H6G11252   1.846   5.814   9.826 -0.1809 -0.2932  0.3307
  109OSM    C7F11253   1.769   6.009   9.766  0.7544 -0.0105 -0.2968
  109OSM    H7F11254   1.851   6.083   9.774  0.6685  0.1135 -0.5511
  109OSM    H7G11255   1.682   6.061   9.810 -0.5802  0.1356 -2.8796
  109OSM    C8F11256   1.744   5.955   9.621  0.4991 -0.2889  0.0956
  109OSM    H8F11257   1.648   5.902   9.607 -0.3614  1.3917 -0.7599
  109OSM    H8G11258   1.824   5.879   9.608  0.5799 -0.5870  2.1132
  109OSM    C9F11259   1.750   6.075   9.520 -0.1256  1.3718  0.6163
  109OSM    H9F11260   1.833   6.148   9.525  1.5780 -0.3905 -0.4447
  109OSM   C10F11261   1.645   6.101   9.434 -0.3183 -0.5706 -0.7641
  109OSM   H10F11262   1.652   6.194   9.376 -0.8341  0.0630  0.1676
  109OSM   C11F11263   1.517   6.018   9.426  0.2446  0.1295 -0.0792
  109OSM   H11F11264   1.435   6.091   9.407  0.3582  0.8781  2.0856
  109OSM   H11G11265   1.490   5.971   9.523 -0.8520  2.1412  0.6384
  109OSM   C12F11266   1.521   5.910   9.314  0.0547 -0.0617 -0.5323
  109OSM   H12F11267   1.433   5.844   9.327  0.0571  0.0970  0.3101
  109OSM   H12G11268   1.607   5.844   9.339 -1.0570 -0.9065  1.1823
  109OSM   C13F11269   1.525   5.980   9.178 -0.0192 -0.0176 -0.1083
  109OSM   H13F11270   1.505   6.089   9.188  1.2433  0.3685 -1.3536
  109OSM   H13G11271   1.435   5.945   9.123 -0.8589  1.7964  0.0197
  109OSM   C14F11272   1.652   5.950   9.100  1.1083  0.1655  0.2598
  109OSM   H14F11273   1.703   5.861   9.142 -1.8300 -2.3577 -1.1038
  109OSM   H14G11274   1.723   6.035   9.109  1.1941  0.2353 -0.9246
  109OSM   C15F11275   1.626   5.927   8.955 -0.6667 -0.4444 -0.2877
  109OSM   H15F11276   1.564   5.835   8.948 -0.6899 -0.3478 -1.5548
  109OSM   H15G11277   1.717   5.911   8.895 -1.5898 -0.3895 -1.7505
  109OSM   C16F11278   1.574   6.044   8.869  0.0976  0.0396  0.5859
  109OSM   H16F11279   1.651   6.124   8.881 -0.2587  0.3856  0.5872
  109OSM   H16G11280   1.475   6.067   8.914 -1.6718 -0.9331 -2.4888
  109OSM   C17F11281   1.561   6.020   8.721 -0.0268 -0.2640  0.0296
  109OSM   H17F11282   1.485   5.940   8.711 -2.8115  2.0794  1.1651
  109OSM   H17G11283   1.656   6.000   8.666 -1.4412  0.5788 -2.8714
  109OSM   C18F11284   1.496   6.144   8.653  1.1777 -0.0899  0.2374
  109OSM   H18F11285   1.399   6.179   8.695  1.2224  1.3925 -0.8120
  109OSM   H18G11286   1.468   6.111   8.550  1.7434  0.2367 -0.0285
  109OSM   H18H11287   1.561   6.234   8.649  1.1610 -0.1014 -0.4248
  110OSM      N11288   3.934   5.160  11.113 -0.6311 -0.1776  0.2162
  110OSM    C1511289   3.933   5.045  11.205  0.1911  0.1631  0.1466
  110OSM   H15A11290   3.897   4.959  11.151  0.4297  1.8250 -2.8763
  110OSM   H15B11291   3.869   5.066  11.289 -1.2597  2.8436 -1.4982
  110OSM   H15C11292   4.032   5.029  11.245 -0.0983  1.4710  1.4738
  110OSM    C1411293   4.021   5.272  11.179  0.4267  0.4138  0.0441
  110OSM   H14A11294   4.014   5.365  11.123  1.7804  0.2235 -0.4898
  110OSM   H14B11295   4.124   5.240  11.181  0.6424  1.0692  2.9091
  110OSM   H14C11296   3.991   5.294  11.280 -0.8367 -1.4825  0.1367
  110OSM    C1311297   4.007   5.132  10.988  0.0814 -0.7395  0.0880
  110OSM   H13A11298   4.107   5.103  11.015  0.7304  0.4636 -0.9233
  110OSM   H13B11299   4.009   5.214  10.917  0.6593  0.2856  1.2358
  110OSM   H13C11300   3.956   5.047  10.944 -1.8123  0.0531  0.6405
  110OSM    C1211301   3.797   5.209  11.079  0.2335 -0.2135  0.2428
  110OSM   H12A11302   3.805   5.298  11.018  0.3633  0.8967  1.8424
  110OSM   H12B11303   3.755   5.242  11.173  1.5907  0.3285  0.6829
  110OSM    C1111304   3.705   5.118  10.992  0.4629  0.4741 -0.1032
  110OSM   H11A11305   3.767   5.078  10.909  0.3400  0.8372 -0.3707
  110OSM   H11B11306   3.619   5.175  10.950 -0.7734 -0.9767  0.3756
  110OSM      P11307   3.503   4.986  11.102 -0.1802 -0.2646 -0.3613
  110OSM    O1311308   3.501   4.872  11.193  0.0731  0.0371 -0.2190
  110OSM    O1411309   3.432   5.113  11.140  0.4700  0.4629 -0.0075
  110OSM    O1111310   3.449   4.931  10.963 -0.3808 -0.4177 -0.5962
  110OSM    O1211311   3.648   5.003  11.063 -0.4604 -0.1132 -0.5903
  110OSM    C1S11312   3.381   5.009  10.866 -0.4787  0.1868  0.2926
  110OSM    H1S11313   3.434   5.106  10.853 -0.4747  0.2897  1.0792
  110OSM    H1T11314   3.277   5.027  10.902  0.0489  1.3375  1.3091
  110OSM     NF11315   3.299   5.008  10.631 -0.0105  1.0479  0.2113
  110OSM    HNF11316   3.202   4.988  10.618  0.2831  0.1502 -0.7917
  110OSM    C2S11317   3.375   4.933  10.729  0.1819 -0.1251  0.1431
  110OSM    H2S11318   3.481   4.932  10.696  0.4765 -3.8788  0.6623
  110OSM    C3S11319   3.335   4.778  10.740  0.0391 -0.8547  0.0101
  110OSM    H3S11320   3.244   4.763  10.803 -0.6700  0.8357 -0.5715
  110OSM     O311321   3.440   4.712  10.803 -0.0712 -0.0490 -0.5180
  110OSM    HO311322   3.476   4.780  10.860  0.0082  0.1804 -0.8422
  110OSM    C4S11323   3.318   4.720  10.606 -0.1365 -0.4014  0.3809
  110OSM    H4S11324   3.402   4.683  10.546 -0.6073 -0.9559  0.0561
  110OSM    C5S11325   3.196   4.698  10.559  0.5550 -0.2622 -0.8793
  110OSM    H5S11326   3.110   4.741  10.613  0.6097  0.0879 -1.0693
  110OSM    C6S11327   3.167   4.637  10.427 -0.1425  0.4312  0.2384
  110OSM    H6S11328   3.064   4.664  10.395  0.0157  2.3255  1.1473
  110OSM    H6T11329   3.151   4.528  10.435  2.6075 -0.0993 -0.5094
  110OSM    C7S11330   3.274   4.664  10.316 -0.1775 -0.3296  0.1519
  110OSM    H7S11331   3.364   4.606  10.343 -0.1305 -0.4677 -0.2993
  110OSM    H7T11332   3.298   4.773  10.316  1.8320 -0.7285  1.1659
  110OSM    C8S11333   3.244   4.609  10.176 -0.5184 -0.5290 -0.0914
  110OSM    H8S11334   3.154   4.645  10.121  0.6136  0.8025 -1.1599
  110OSM    H8T11335   3.239   4.499  10.188 -0.2938 -0.5494 -0.1880
  110OSM    C9S11336   3.363   4.635  10.079 -0.5265 -0.3179  0.2517
  110OSM    H9S11337   3.448   4.587  10.131  0.7230  2.1757  0.6536
  110OSM    H9T11338   3.389   4.740  10.054  1.0345 -1.0756 -1.5613
  110OSM   C10S11339   3.347   4.563   9.943 -0.3451  0.0294  0.0101
  110OSM   H10S11340   3.340   4.454   9.963 -0.5795 -0.1142 -0.8163
  110OSM   H10T11341   3.451   4.574   9.904 -0.5037 -2.0477 -1.1456
  110OSM   C11S11342   3.233   4.612   9.850  0.2953  0.0470 -0.0933
  110OSM   H11S11343   3.229   4.723   9.848  2.2699  0.1410 -1.6320
  110OSM   H11T11344   3.138   4.569   9.889  0.6780  0.1956  1.0182
  110OSM   C12S11345   3.238   4.558   9.715  0.0904  0.6683 -0.2491
  110OSM   H12S11346   3.280   4.455   9.723  2.3644  1.5286 -0.2915
  110OSM   H12T11347   3.318   4.618   9.666 -0.4890  0.2537 -1.7572
  110OSM   C13S11348   3.112   4.574   9.631  0.1206  0.6465  0.0415
  110OSM   H13S11349   3.068   4.673   9.658  0.5885  0.9544 -0.3022
  110OSM   H13T11350   3.035   4.501   9.664 -1.4311  2.5376  0.8218
  110OSM   C14S11351   3.142   4.587   9.482 -0.1632  0.1612  0.0227
  110OSM   H14S11352   3.187   4.492   9.447  1.4227  0.2331  1.7296
  110OSM   H14T11353   3.222   4.663   9.476  1.0045 -1.0285 -0.0168
  110OSM   C15S11354   3.015   4.599   9.404 -0.1014  0.5402  0.4508
  110OSM   H15S11355   2.959   4.691   9.433 -1.9922  0.4160 -2.3745
  110OSM   H15T11356   2.961   4.510   9.442 -0.7041  1.6754  2.3775
  110OSM   C16S11357   3.016   4.579   9.255  0.6294 -0.8797 -0.0321
  110OSM   H16S11358   2.911   4.603   9.227  0.8825  1.1098  0.5779
  110OSM   H16T11359   3.038   4.481   9.206  2.4326  0.1655 -1.4431
  110OSM   C17S11360   3.106   4.685   9.183 -0.4961 -0.1021 -0.8055
  110OSM   H17S11361   3.215   4.682   9.205 -0.9110  0.9655  1.8206
  110OSM   H17T11362   3.061   4.783   9.211  0.7486  0.4890 -0.8244
  110OSM   C18S11363   3.100   4.678   9.030 -0.3723  0.5412 -0.4430
  110OSM   H18S11364   2.997   4.693   8.991 -0.0468 -2.3013 -2.7356
  110OSM   H18T11365   3.135   4.575   9.009 -1.4314  0.3087 -1.1477
  110OSM   H18U11366   3.157   4.764   8.988  1.3197 -0.0945  0.4475
  110OSM    C1F11367   3.350   5.120  10.578 -1.3105  0.2780 -0.4832
  110OSM     OF11368   3.458   5.160  10.624  0.4180 -0.3075  0.6194
  110OSM    C2F11369   3.255   5.207  10.492 -1.1290 -0.1203  0.2678
  110OSM    H2F11370   3.228   5.295  10.555 -1.0256  0.6791 -0.7786
  110OSM    H2G11371   3.160   5.152  10.475 -1.6983  1.2168 -1.1207
  110OSM    C3F11372   3.322   5.273  10.368  0.0282  0.5348  0.3130
  110OSM    H3F11373   3.428   5.296  10.392  0.5927  0.2129 -1.6956
  110OSM    H3G11374   3.267   5.365  10.338 -3.1048 -1.3542 -0.1410
  110OSM    C4F11375   3.322   5.173  10.251 -0.0572  0.0072 -0.5651
  110OSM    H4F11376   3.216   5.141  10.239 -0.5696  1.8094 -1.1573
  110OSM    H4G11377   3.392   5.089  10.270 -0.7770 -1.1921 -2.8426
  110OSM    C5F11378   3.366   5.236  10.121  0.4649  0.4717  0.3402
  110OSM    H5F11379   3.473   5.265  10.126  0.3412  0.7397  2.6908
  110OSM    H5G11380   3.303   5.326  10.105  0.8491  0.9166  1.3093
  110OSM    C6F11381   3.348   5.146   9.990 -0.1387  0.1095  0.9191
  110OSM    H6F11382   3.342   5.216   9.904  0.0145 -1.9338 -0.8298
  110OSM    H6G11383   3.254   5.088   9.991 -0.1302  0.0572 -0.3452
  110OSM    C7F11384   3.464   5.059   9.955 -0.0939 -0.2103 -0.5263
  110OSM    H7F11385   3.489   5.012  10.053 -0.1364  2.0259  0.6225
  110OSM    H7G11386   3.551   5.124   9.931 -0.3091  1.2226  2.1248
  110OSM    C8F11387   3.430   4.955   9.845 -0.3778 -0.6931  1.2649
  110OSM    H8F11388   3.364   4.998   9.767  1.1277 -0.7012 -0.0636
  110OSM    H8G11389   3.382   4.870   9.898 -0.1611 -0.8164  1.2652
  110OSM    C9F11390   3.559   4.906   9.777  0.1391  1.1500 -0.7640
  110OSM    H9F11391   3.648   4.904   9.842  0.3142 -0.0874 -1.0086
  110OSM   C10F11392   3.580   4.874   9.653 -0.4550  0.1323  0.5190
  110OSM   H10F11393   3.676   4.834   9.616  0.1365  0.5828  1.5384
  110OSM   C11F11394   3.470   4.864   9.544 -0.0647  0.1061 -0.3915
  110OSM   H11F11395   3.369   4.886   9.584 -0.0380 -1.0937  0.4218
  110OSM   H11G11396   3.459   4.760   9.507 -3.6476 -0.5885  2.0897
  110OSM   C12F11397   3.498   4.952   9.424  0.1333 -0.3725 -1.1719
  110OSM   H12F11398   3.608   4.946   9.406  1.3055  4.6415  2.1985
  110OSM   H12G11399   3.468   5.055   9.453  2.4678  0.4206 -1.3557
  110OSM   C13F11400   3.403   4.910   9.311 -0.9486 -0.5154  0.4620
  110OSM   H13F11401   3.298   4.940   9.332 -1.3509 -3.1601  2.8317
  110OSM   H13G11402   3.390   4.801   9.291 -0.1062 -0.5078 -0.1803
  110OSM   C14F11403   3.456   4.976   9.179 -0.6213 -0.1693 -0.0446
  110OSM   H14F11404   3.567   4.968   9.175 -0.4631  1.5227 -0.0590
  110OSM   H14G11405   3.435   5.085   9.192 -0.4923 -0.3011  1.4116
  110OSM   C15F11406   3.390   4.932   9.051  0.0201 -0.4221 -0.5337
  110OSM   H15F11407   3.291   4.886   9.073 -0.5355 -0.7005 -3.3198
  110OSM   H15G11408   3.453   4.847   9.015 -1.1938 -1.4244 -0.3401
  110OSM   C16F11409   3.374   5.034   8.939  0.3165  0.0164  0.4163
  110OSM   H16F11410   3.470   5.088   8.927  1.0092 -0.2313  3.7283
  110OSM   H16G11411   3.309   5.119   8.968  2.7392  1.3633  2.3005
  110OSM   C17F11412   3.349   4.962   8.805  0.1403  0.6306  0.3391
  110OSM   H17F11413   3.253   4.906   8.810  0.1618  0.6217  0.6511
  110OSM   H17G11414   3.426   4.883   8.790  0.0066  0.3703  0.9660
  110OSM   C18F11415   3.354   5.048   8.678  0.7690 -0.3204  0.1568
  110OSM   H18F11416   3.308   4.990   8.595  0.1528 -1.7367  1.4385
  110OSM   H18G11417   3.453   5.093   8.655 -0.2335  0.2101 -3.9913
  110OSM   H18H11418   3.281   5.126   8.709  0.1098 -1.6015  1.9821
  111OSM      N11419   5.241   2.626  10.730 -0.5573 -0.8407 -0.6557
  111OSM    C1511420   5.180   2.563  10.614  0.0295  0.4011 -0.0633
  111OSM   H15A11421   5.130   2.638  10.555 -1.6473  0.1559  0.9723
  111OSM   H15B11422   5.111   2.490  10.654 -0.1829  1.7565  2.2027
  111OSM   H15C11423   5.255   2.508  10.558  0.7312  1.1339  0.1460
  111OSM    C1411424   5.287   2.522  10.833 -0.2428 -0.0901 -0.4856
  111OSM   H14A11425   5.364   2.459  10.789  0.0966  0.5694 -0.8503
  111OSM   H14B11426   5.200   2.467  10.864 -0.1208 -0.8063 -1.3624
  111OSM   H14C11427   5.332   2.570  10.919 -0.3554 -2.8462  1.2633
  111OSM    C1311428   5.360   2.709  10.684  0.0120  0.1768 -0.1188
  111OSM   H13A11429   5.400   2.764  10.767 -0.6459 -1.4799  1.3669
  111OSM   H13B11430   5.332   2.784  10.612 -1.8908  2.2615  2.5841
  111OSM   H13C11431   5.442   2.651  10.645 -0.0422 -0.8297  1.1653
  111OSM    C1211432   5.141   2.722  10.783 -0.0660  0.1461 -0.3475
  111OSM   H12A11433   5.176   2.750  10.881  0.6474  0.9030 -0.8027
  111OSM   H12B11434   5.050   2.665  10.794 -1.3803  2.3564  1.0856
  111OSM    C1111435   5.110   2.861  10.705  0.0929 -0.3163 -0.9861
  111OSM   H11A11436   5.016   2.909  10.739  0.5169  2.1478 -3.0145
  111OSM   H11B11437   5.104   2.828  10.599  0.5574 -0.1312 -1.0751
  111OSM      P11438   5.250   3.022  10.859  0.1040 -0.0276 -0.1057
  111OSM    O1311439   5.219   2.938  10.975 -0.1315  0.1628 -0.3784
  111OSM    O1411440   5.390   3.069  10.848 -0.0410  0.1802 -0.4566
  111OSM    O1111441   5.153   3.144  10.853 -0.4507 -0.2530  1.0675
  111OSM    O1211442   5.224   2.947  10.726  0.8041  0.5171  0.0579
  111OSM    C1S11443   5.157   3.227  10.740  0.8163 -0.5192  0.4756
  111OSM    H1S11444   5.260   3.235  10.699  0.2479 -1.1893 -1.1658
  111OSM    H1T11445   5.133   3.329  10.775 -3.7940 -0.7843 -1.2507
  111OSM     NF11446   5.093   3.274  10.511 -0.6154  0.4558 -0.0775
  111OSM    HNF11447   5.034   3.353  10.496 -1.3679 -0.3036 -1.3276
  111OSM    C2S11448   5.058   3.192  10.621 -0.2927  0.2282 -0.6535
  111OSM    H2S11449   5.071   3.086  10.589 -2.1228 -0.5730  1.0572
  111OSM    C3S11450   4.911   3.208  10.664  0.2197 -0.4030  0.6236
  111OSM    H3S11451   4.888   3.315  10.682 -1.8175 -0.1676 -2.4952
  111OSM     O311452   4.866   3.147  10.787 -0.4841  0.0821 -0.0983
  111OSM    HO311453   4.936   3.094  10.826 -1.7434 -1.1811  0.5063
  111OSM    C4S11454   4.817   3.176  10.542  0.0726  0.3343 -0.7485
  111OSM    H4S11455   4.823   3.245  10.457 -0.6523  0.6952 -0.5088
  111OSM    C5S11456   4.746   3.062  10.530 -0.3154  0.1702 -0.3236
  111OSM    H5S11457   4.749   2.991  10.613 -1.8905  0.8825  0.3807
  111OSM    C6S11458   4.664   3.026  10.409  0.0471  0.0973  0.1820
  111OSM    H6S11459   4.556   3.020  10.437 -0.5148 -0.7561 -1.9390
  111OSM    H6T11460   4.687   2.922  10.380  0.9108 -0.4129  2.4777
  111OSM    C7S11461   4.661   3.124  10.283 -0.4112 -0.3458  0.2503
  111OSM    H7S11462   4.760   3.124  10.233  0.0466  0.2880  1.1290
  111OSM    H7T11463   4.636   3.226  10.321  1.7347  1.7441 -3.4071
  111OSM    C8S11464   4.563   3.087  10.173 -0.0313 -0.2679  0.1283
  111OSM    H8S11465   4.465   3.069  10.223 -0.3798 -1.2871 -0.8734
  111OSM    H8T11466   4.579   2.983  10.137  0.2481  0.3336 -1.5569
  111OSM    C9S11467   4.563   3.188  10.055  0.0752 -0.4810  0.6005
  111OSM    H9S11468   4.661   3.183  10.004 -0.9672 -3.6175 -1.3562
  111OSM    H9T11469   4.548   3.290  10.098 -1.3128 -0.3724 -0.1069
  111OSM   C10S11470   4.445   3.174   9.955 -0.2673  0.4729  0.2077
  111OSM   H10S11471   4.348   3.172  10.008  0.3199 -0.0432  1.2927
  111OSM   H10T11472   4.458   3.073   9.912  2.0428  1.4714 -1.7146
  111OSM   C11S11473   4.439   3.289   9.854  0.6867 -0.2803 -0.3036
  111OSM   H11S11474   4.452   3.392   9.893 -1.1711  0.5157 -1.6327
  111OSM   H11T11475   4.332   3.285   9.825  0.7265 -2.0484 -0.3406
  111OSM   C12S11476   4.521   3.276   9.728 -0.3683  0.1944  0.2792
  111OSM   H12S11477   4.500   3.179   9.678 -0.7633 -0.1906  1.1712
  111OSM   H12T11478   4.626   3.274   9.764  0.3959 -1.9862 -1.7920
  111OSM   C13S11479   4.494   3.390   9.636 -0.1360 -0.2588  0.0414
  111OSM   H13S11480   4.558   3.477   9.659 -1.8813  1.3196 -0.7722
  111OSM   H13T11481   4.390   3.425   9.651  0.5528  2.8166 -1.5741
  111OSM   C14S11482   4.513   3.370   9.488  0.0622  0.4829  0.2870
  111OSM   H14S11483   4.608   3.320   9.461 -0.3838 -1.1324  1.5469
  111OSM   H14T11484   4.509   3.466   9.432 -1.0294 -0.6601 -1.7427
  111OSM   C15S11485   4.403   3.285   9.410  0.1021 -0.3941 -0.4098
  111OSM   H15S11486   4.299   3.299   9.446 -0.8864 -1.5902 -2.5887
  111OSM   H15T11487   4.420   3.176   9.421  1.6065 -0.1653 -0.2174
  111OSM   C16S11488   4.392   3.326   9.258 -0.3507 -0.8412  0.3460
  111OSM   H16S11489   4.329   3.416   9.240  1.1634  0.0200 -0.8565
  111OSM   H16T11490   4.344   3.244   9.200 -1.4632  0.4891 -0.6665
  111OSM   C17S11491   4.519   3.350   9.175  0.5864  0.0687 -0.0247
  111OSM   H17S11492   4.589   3.419   9.226  2.4235 -1.7303  0.0629
  111OSM   H17T11493   4.492   3.398   9.079 -0.4720  0.2119  0.3375
  111OSM   C18S11494   4.612   3.231   9.157 -0.2774  0.3257 -0.4356
  111OSM   H18S11495   4.718   3.255   9.137  0.4372  0.9494  3.2760
  111OSM   H18T11496   4.570   3.175   9.071  3.2758 -0.9419 -1.5183
  111OSM   H18U11497   4.620   3.159   9.241  2.3825  0.6691 -0.3151
  111OSM    C1F11498   5.204   3.251  10.451 -0.1945  0.7087 -0.5750
  111OSM     OF11499   5.271   3.142  10.469 -0.8566 -0.4262 -0.2680
  111OSM    C2F11500   5.249   3.358  10.352  0.3672 -0.5124 -0.3003
  111OSM    H2F11501   5.281   3.450  10.406 -0.5966 -1.2464  1.6088
  111OSM    H2G11502   5.160   3.399  10.300  0.5895  0.7233  0.2543
  111OSM    C3F11503   5.361   3.318  10.252  0.8325 -0.6583 -0.0994
  111OSM    H3F11504   5.332   3.223  10.204 -1.9466  1.4414 -2.9621
  111OSM    H3G11505   5.460   3.315  10.303  0.3426  0.0434  0.9342
  111OSM    C4F11506   5.378   3.423  10.138 -0.0544  0.2760  0.2015
  111OSM    H4F11507   5.479   3.428  10.093 -0.0966  2.5796  0.2520
  111OSM    H4G11508   5.355   3.522  10.183 -1.1832 -1.1431  3.0510
  111OSM    C5F11509   5.277   3.405  10.026 -0.7520 -0.2246  0.2942
  111OSM    H5F11510   5.172   3.418  10.059 -1.6069 -1.0443 -1.8692
  111OSM    H5G11511   5.290   3.299   9.995  1.5323 -1.2073  3.9909
  111OSM    C6F11512   5.303   3.498   9.905 -0.3772 -0.2881 -0.5904
  111OSM    H6F11513   5.256   3.457   9.813  3.0019  0.1456 -2.6983
  111OSM    H6G11514   5.411   3.494   9.879 -0.1542 -1.7729  0.4354
  111OSM    C7F11515   5.234   3.635   9.916  0.1155  0.5654 -0.4929
  111OSM    H7F11516   5.289   3.697   9.991 -0.1184  1.0645 -0.7288
  111OSM    H7G11517   5.128   3.641   9.949  0.3177  0.2318  0.2508
  111OSM    C8F11518   5.229   3.698   9.775  0.2358 -0.2074  0.6080
  111OSM    H8F11519   5.164   3.788   9.766 -0.0581 -0.4550  0.2662
  111OSM    H8G11520   5.181   3.616   9.719 -2.5550  0.1487  2.2911
  111OSM    C9F11521   5.366   3.740   9.722 -0.0359 -0.0889  0.0475
  111OSM    H9F11522   5.436   3.796   9.786 -0.2121 -0.9793  1.0361
  111OSM   C10F11523   5.403   3.724   9.594 -0.2130 -0.2937 -0.0922
  111OSM   H10F11524   5.505   3.753   9.564 -0.4743 -0.6178 -1.3554
  111OSM   C11F11525   5.324   3.650   9.490 -0.6523 -0.0491 -0.5898
  111OSM   H11F11526   5.252   3.723   9.447 -0.9558 -1.7199 -3.1378
  111OSM   H11G11527   5.269   3.565   9.537  0.6063  0.2318  1.5094
  111OSM   C12F11528   5.416   3.613   9.368 -0.1906 -0.1615  0.6895
  111OSM   H12F11529   5.488   3.540   9.411  0.9080  0.1985 -0.4676
  111OSM   H12G11530   5.469   3.705   9.335 -1.0885  0.7859  1.7998
  111OSM   C13F11531   5.347   3.548   9.248  0.5361 -0.3252  0.0202
  111OSM   H13F11532   5.259   3.611   9.224  0.4074  0.0461  1.3487
  111OSM   H13G11533   5.304   3.449   9.276 -3.9307  0.2600 -3.5666
  111OSM   C14F11534   5.432   3.548   9.125  0.5136 -0.1265  0.8931
  111OSM   H14F11535   5.514   3.474   9.129  3.4138  2.5757 -2.1644
  111OSM   H14G11536   5.482   3.645   9.101  0.3939 -0.7570 -2.3655
  111OSM   C15F11537   5.354   3.506   8.989  0.0630 -0.1981 -1.2166
  111OSM   H15F11538   5.279   3.584   8.962  1.4022  2.1288  1.2649
  111OSM   H15G11539   5.309   3.406   9.008 -0.0866  0.2243  0.9049
  111OSM   C16F11540   5.443   3.497   8.870 -0.0286  0.2506  0.2205
  111OSM   H16F11541   5.513   3.411   8.878 -0.8513 -0.5558 -0.8456
  111OSM   H16G11542   5.513   3.583   8.871 -0.7796  0.9181  3.1962
  111OSM   C17F11543   5.354   3.487   8.740  0.0297  0.3048  0.2983
  111OSM   H17F11544   5.284   3.573   8.733 -1.3653 -0.6346  2.0927
  111OSM   H17G11545   5.285   3.401   8.753 -1.7647  1.7520  0.7664
  111OSM   C18F11546   5.441   3.463   8.618 -0.2304 -0.5295 -0.5275
  111OSM   H18F11547   5.517   3.544   8.616  0.6169 -1.0873  3.0249
  111OSM   H18G11548   5.378   3.467   8.526 -0.2001  0.6980 -0.5074
  111OSM   H18H11549   5.499   3.369   8.634  1.0490  0.4325  0.8286
  112OSM      N11550   3.701   0.838  11.037  0.5595 -0.3574 -0.3179
  112OSM    C1511551   3.736   0.935  11.148 -0.3557 -0.1488 -0.5947
  112OSM   H15A11552   3.677   1.023  11.126 -0.4718  0.1724  0.9252
  112OSM   H15B11553   3.838   0.971  11.153 -0.8898  1.6105 -1.5626
  112OSM   H15C11554   3.691   0.902  11.240  0.1757  1.0413  0.1107
  112OSM    C1411555   3.748   0.702  11.068 -0.4047 -0.1291 -0.1509
  112OSM   H14A11556   3.856   0.703  11.077 -0.4683 -0.5609  0.6901
  112OSM   H14B11557   3.714   0.638  10.988 -0.5418 -1.3028  0.8209
  112OSM   H14C11558   3.707   0.668  11.161 -0.0296  1.1609  0.5093
  112OSM    C1311559   3.547   0.857  11.019 -0.3134 -0.3206 -0.0165
  112OSM   H13A11560   3.512   0.804  10.931  1.6111 -0.7691 -0.5605
  112OSM   H13B11561   3.515   0.960  11.012  0.2470 -0.0156  1.6399
  112OSM   H13C11562   3.495   0.809  11.100 -0.0433  1.0495  1.0021
  112OSM    C1211563   3.764   0.892  10.913  0.1366  0.1944  0.2570
  112OSM   H12A11564   3.869   0.867  10.912  0.0010 -0.6400 -2.7290
  112OSM   H12B11565   3.757   0.999  10.921  1.4876  0.2553  0.8721
  112OSM    C1111566   3.701   0.848  10.772 -0.1430 -0.0181  0.1143
  112OSM   H11A11567   3.779   0.874  10.697  0.7816 -0.7854  0.7913
  112OSM   H11B11568   3.619   0.920  10.752  1.0474  2.6619  3.8048
  112OSM      P11569   3.750   0.594  10.728 -0.2125  0.2153  0.0720
  112OSM    O1311570   3.890   0.622  10.783  0.6397  0.3185  0.1614
  112OSM    O1411571   3.685   0.470  10.776 -0.3900 -0.6375 -0.4087
  112OSM    O1111572   3.754   0.605  10.565  0.1943 -0.1618 -0.0238
  112OSM    O1211573   3.652   0.712  10.765  0.3913 -0.6063 -0.3148
  112OSM    C1S11574   3.639   0.642  10.482 -0.0591  0.4533 -0.5250
  112OSM    H1S11575   3.659   0.749  10.458  1.2011  1.2125  3.2263
  112OSM    H1T11576   3.544   0.627  10.538  1.3864 -0.8017  1.7353
  112OSM     NF11577   3.518   0.621  10.279  1.1838 -0.4700  0.2115
  112OSM    HNF11578   3.443   0.556  10.281  0.7778 -0.0848 -1.2859
  112OSM    C2S11579   3.632   0.574  10.346  0.2795 -0.0460  0.5118
  112OSM    H2S11580   3.724   0.612  10.296  0.5607  1.7143  2.2579
  112OSM    C3S11581   3.654   0.419  10.363  0.1880  0.2737 -0.2307
  112OSM    H3S11582   3.557   0.386  10.407 -0.4570  0.8687 -1.1598
  112OSM     O311583   3.768   0.376  10.444  0.0528 -0.0413  0.2155
  112OSM    HO311584   3.792   0.460  10.484  3.2139  0.3369 -2.0146
  112OSM    C4S11585   3.648   0.368  10.219 -0.4491 -0.4270  0.1137
  112OSM    H4S11586   3.555   0.312  10.201 -0.0584 -0.1686 -3.4074
  112OSM    C5S11587   3.740   0.371  10.125  0.0414 -0.1931  0.2657
  112OSM    H5S11588   3.832   0.427  10.148 -0.1613  1.1251 -1.8762
  112OSM    C6S11589   3.743   0.301   9.991  0.1674  0.9457 -0.7322
  112OSM    H6S11590   3.830   0.232   9.985  0.7601  1.4956  1.0470
  112OSM    H6T11591   3.750   0.365   9.900 -0.6786 -0.7369 -2.0383
  112OSM    C7S11592   3.612   0.220   9.959  0.2037  0.1115 -0.0761
  112OSM    H7S11593   3.527   0.291   9.960  1.4128  1.6139 -0.4717
  112OSM    H7T11594   3.602   0.140  10.035  0.1423 -1.3266 -1.5518
  112OSM    C8S11595   3.627   0.149   9.821  0.5765 -0.8237  0.2217
  112OSM    H8S11596   3.721   0.091   9.811  0.2903 -0.9005 -3.4353
  112OSM    H8T11597   3.646   0.228   9.745  1.7733 -0.2654  1.0626
  112OSM    C9S11598   3.502   0.071   9.779  0.0204 -0.1092  0.3661
  112OSM    H9S11599   3.416   0.139   9.791  0.3010 -0.0487  2.3260
  112OSM    H9T11600   3.478  -0.010   9.851  1.8769  1.3724  2.8317
  112OSM   C10S11601   3.522   0.009   9.643  0.4886 -0.0755 -0.1632
  112OSM   H10S11602   3.631  -0.011   9.629  0.6164 -0.2980  1.0606
  112OSM   H10T11603   3.489   0.077   9.562  2.1427 -0.5672 -1.3142
  112OSM   C11S11604   3.446  -0.128   9.618  0.0694  0.4364  0.3055
  112OSM   H11S11605   3.350  -0.093   9.661 -0.4466 -0.2610 -0.2467
  112OSM   H11T11606   3.469  -0.202   9.697  1.3714  1.2039  0.6766
  112OSM   C12S11607   3.432  -0.172   9.470 -0.2813  0.0566  0.6329
  112OSM   H12S11608   3.336  -0.227   9.460 -0.5461  0.5152  0.6467
  112OSM   H12T11609   3.521  -0.230   9.436  0.0936  1.8619 -1.6967
  112OSM   C13S11610   3.432  -0.056   9.366 -0.5029 -0.4842 -0.1025
  112OSM   H13S11611   3.530  -0.003   9.362  0.2282 -1.4819  2.6569
  112OSM   H13T11612   3.351   0.014   9.396  0.2245  0.7488 -0.9123
  112OSM   C14S11613   3.388  -0.103   9.226 -1.0666 -0.5283  0.6284
  112OSM   H14S11614   3.370  -0.009   9.169  0.9701 -0.1532  0.5353
  112OSM   H14T11615   3.288  -0.150   9.236 -1.1470 -0.1374  1.8957
  112OSM   C15S11616   3.482  -0.209   9.163 -0.5053 -1.0118 -0.2446
  112OSM   H15S11617   3.493  -0.292   9.236 -3.3058 -1.0742  0.2277
  112OSM   H15T11618   3.578  -0.155   9.158 -0.4331 -0.9488  1.3196
  112OSM   C16S11619   3.438  -0.263   9.030 -0.0439 -0.8133  0.4247
  112OSM   H16S11620   3.422  -0.171   8.970 -1.4356 -1.8189 -0.8097
  112OSM   H16T11621   3.345  -0.323   9.037  1.2670 -2.7867  1.8773
  112OSM   C17S11622   3.541  -0.353   8.967  0.2847 -0.0468  0.1538
  112OSM   H17S11623   3.575  -0.432   9.038  1.8955  2.0604  1.8512
  112OSM   H17T11624   3.630  -0.292   8.938  0.9519 -1.1669 -0.2323
  112OSM   C18S11625   3.495  -0.414   8.838 -0.3127  0.0407  0.4415
  112OSM   H18S11626   3.487  -0.344   8.751  0.8273  0.4909  0.6750
  112OSM   H18T11627   3.391  -0.452   8.852  0.1382 -1.7725 -0.7413
  112OSM   H18U11628   3.558  -0.500   8.808 -1.3618  0.1620 -2.4548
  112OSM    C1F11629   3.486   0.748  10.228 -0.1791 -0.0760  0.4479
  112OSM     OF11630   3.561   0.841  10.238 -0.0391 -0.6816  0.3544
  112OSM    C2F11631   3.353   0.766  10.165  1.0235  0.2533  0.2106
  112OSM    H2F11632   3.298   0.811  10.250  2.5198  0.0043  1.3521
  112OSM    H2G11633   3.301   0.669  10.153  1.2831  0.1996 -0.4992
  112OSM    C3F11634   3.354   0.843  10.036 -0.1682 -0.8106 -0.3527
  112OSM    H3F11635   3.380   0.950  10.050 -1.1216 -0.3503 -1.8566
  112OSM    H3G11636   3.253   0.839   9.989 -0.0662 -0.8728 -0.5697
  112OSM    C4F11637   3.455   0.771   9.944 -0.2935 -0.3349 -0.3346
  112OSM    H4F11638   3.453   0.664   9.976 -1.0380  0.3467  2.1449
  112OSM    H4G11639   3.555   0.816   9.962  1.3950 -2.2237 -3.8868
  112OSM    C5F11640   3.413   0.785   9.801 -0.8699 -0.1632 -0.3970
  112OSM    H5F11641   3.412   0.891   9.767  1.0690  0.6019  1.7036
  112OSM    H5G11642   3.319   0.726   9.790 -0.1215 -1.6535  0.8790
  112OSM    C6F11643   3.531   0.720   9.722  0.5100 -0.6573  0.2569
  112OSM    H6F11644   3.562   0.632   9.782  3.5876  0.3187  0.2310
  112OSM    H6G11645   3.618   0.789   9.729  1.6271 -1.8431 -1.2819
  112OSM    C7F11646   3.494   0.687   9.574  0.4495  0.1996 -0.0046
  112OSM    H7F11647   3.439   0.768   9.523  2.2755  1.2263 -0.4472
  112OSM    H7G11648   3.429   0.597   9.579 -1.0212  1.1819 -0.9164
  112OSM    C8F11649   3.622   0.655   9.489 -0.9529  0.1761  0.0407
  112OSM    H8F11650   3.683   0.748   9.484  0.2309 -0.5060  1.0673
  112OSM    H8G11651   3.590   0.641   9.384  2.7591  0.4699 -1.2710
  112OSM    C9F11652   3.706   0.539   9.543 -0.2669 -0.4500 -0.6013
  112OSM    H9F11653   3.700   0.533   9.653 -0.1326  1.0259 -0.4885
  112OSM   C10F11654   3.762   0.439   9.477  0.2084  0.4821  0.5255
  112OSM   H10F11655   3.807   0.354   9.530 -0.4908 -1.3883 -1.7257
  112OSM   C11F11656   3.767   0.410   9.326  0.4528 -0.0955 -0.4484
  112OSM   H11F11657   3.861   0.368   9.284 -2.1990 -2.9056 -4.2833
  112OSM   H11G11658   3.751   0.507   9.274 -0.4939 -0.0987 -0.1813
  112OSM   C12F11659   3.654   0.313   9.277  0.0047  0.5674  0.1720
  112OSM   H12F11660   3.554   0.360   9.269 -1.3856 -2.4375 -2.2817
  112OSM   H12G11661   3.655   0.237   9.358  2.4881  1.7235  1.3407
  112OSM   C13F11662   3.681   0.257   9.137 -0.2853  0.5428  0.3249
  112OSM   H13F11663   3.776   0.199   9.127 -0.5953  0.0197  0.3901
  112OSM   H13G11664   3.686   0.342   9.066 -0.8122 -1.4262 -2.2519
  112OSM   C14F11665   3.565   0.172   9.084  0.2177  0.2566 -0.3250
  112OSM   H14F11666   3.465   0.217   9.098 -1.2069 -2.2805 -1.6421
  112OSM   H14G11667   3.573   0.080   9.145  1.1401  0.1314 -0.6201
  112OSM   C15F11668   3.571   0.131   8.933 -0.2571  0.1953 -0.1369
  112OSM   H15F11669   3.496   0.051   8.918  1.0253 -1.1747  0.4975
  112OSM   H15G11670   3.669   0.080   8.923 -0.9766 -1.1493 -0.4984
  112OSM   C16F11671   3.542   0.245   8.831  0.6722 -0.9061  0.6968
  112OSM   H16F11672   3.558   0.194   8.733 -1.0097  1.4847 -0.9504
  112OSM   H16G11673   3.606   0.334   8.846 -2.0187  1.3366 -0.2929
  112OSM   C17F11674   3.392   0.279   8.832 -0.0719  0.1810  0.7557
  112OSM   H17F11675   3.358   0.315   8.931 -0.6597  1.8097  0.0096
  112OSM   H17G11676   3.344   0.180   8.813  1.8572 -0.6210 -0.2507
  112OSM   C18F11677   3.345   0.374   8.727 -0.0325  0.2560  0.2694
  112OSM   H18F11678   3.238   0.397   8.747 -0.5767 -1.5431 -0.3740
  112OSM   H18G11679   3.354   0.323   8.629  0.2879 -0.1790  0.5268
  112OSM   H18H11680   3.400   0.470   8.720 -1.8018  1.2255 -1.3761
  113OSM      N11681   4.228   0.563  10.535  0.1688  1.1478  0.2328
  113OSM    C1511682   4.239   0.698  10.602  0.1881 -0.0915  0.1061
  113OSM   H15A11683   4.218   0.687  10.708  0.6778 -1.8224  0.0592
  113OSM   H15B11684   4.168   0.766  10.558 -0.0584 -1.2829 -1.4351
  113OSM   H15C11685   4.336   0.742  10.590 -0.3821  1.3125  0.4031
  113OSM    C1411686   4.103   0.500  10.581 -0.1720  0.1407  0.1648
  113OSM   H14A11687   4.080   0.404  10.538  1.2062  0.2215 -0.8236
  113OSM   H14B11688   4.015   0.555  10.551 -0.4400 -0.5734 -0.3835
  113OSM   H14C11689   4.107   0.483  10.688  1.9518  0.2126  0.1296
  113OSM    C1311690   4.221   0.598  10.392 -0.1794 -0.1834  0.0991
  113OSM   H13A11691   4.191   0.520  10.324 -1.2969  2.3238 -2.5075
  113OSM   H13B11692   4.315   0.641  10.361 -0.3285 -1.4384 -2.2804
  113OSM   H13C11693   4.152   0.681  10.381  1.0730  0.8463 -0.2063
  113OSM    C1211694   4.357   0.480  10.560 -0.0802  0.4023  0.1823
  113OSM   H12A11695   4.375   0.478  10.666  0.6993  2.5624  0.1393
  113OSM   H12B11696   4.440   0.546  10.541  1.4801 -1.2511  0.9780
  113OSM    C1111697   4.371   0.332  10.511  0.1248 -0.5876  0.5680
  113OSM   H11A11698   4.481   0.313  10.509  0.5868  1.5883  1.6083
  113OSM   H11B11699   4.345   0.328  10.403  1.7242  0.0711  0.1235
  113OSM      P11700   4.347   0.165  10.712 -0.1948  0.0461 -0.2733
  113OSM    O1311701   4.436   0.254  10.790 -0.4490  0.3076 -0.0170
  113OSM    O1411702   4.226   0.126  10.783 -0.1940  0.8619 -0.1377
  113OSM    O1111703   4.425   0.040  10.656 -0.2385  0.7187  0.1813
  113OSM    O1211704   4.292   0.243  10.584 -0.4694  0.0512  0.0696
  113OSM    C1S11705   4.367  -0.051  10.567 -0.1224 -0.5363  0.5504
  113OSM    H1S11706   4.257  -0.032  10.566  0.1474  1.0988 -0.5525
  113OSM    H1T11707   4.397  -0.155  10.593 -1.0529 -0.5703  1.5587
  113OSM     NF11708   4.340  -0.116  10.330 -0.4296  0.0752  0.8191
  113OSM    HNF11709   4.389  -0.194  10.293  1.3242  1.2562  0.4950
  113OSM    C2S11710   4.413  -0.029  10.418  0.3481  0.8218 -0.2529
  113OSM    H2S11711   4.390   0.072  10.377 -2.2460 -0.4083 -2.1524
  113OSM    C3S11712   4.566  -0.059  10.407  0.6576 -0.1755  0.3896
  113OSM    H3S11713   4.600  -0.163  10.427  2.0467  0.1248 -0.3031
  113OSM     O311714   4.644   0.021  10.495  0.8440 -0.0373 -0.2260
  113OSM    HO311715   4.582   0.064  10.554  0.0659 -0.5173 -0.6755
  113OSM    C4S11716   4.612  -0.031  10.265 -0.4429 -0.3949 -0.5013
  113OSM    H4S11717   4.635  -0.123  10.209 -0.4504 -0.4681 -0.3838
  113OSM    C5S11718   4.646   0.086  10.207 -1.2240 -0.5815  0.0990
  113OSM    H5S11719   4.648   0.181  10.262 -0.4603  0.9498 -2.4085
  113OSM    C6S11720   4.711   0.099  10.069 -0.2596 -0.0941 -0.1483
  113OSM    H6S11721   4.809   0.152  10.072  1.6949 -3.4346  1.6375
  113OSM    H6T11722   4.647   0.168  10.011  0.7943 -0.0149 -1.2737
  113OSM    C7S11723   4.719  -0.032   9.983 -0.5249  0.1372  0.6198
  113OSM    H7S11724   4.620  -0.071   9.953  0.5425 -1.9615 -0.4525
  113OSM    H7T11725   4.784  -0.113  10.023 -0.6075 -0.4433 -0.3859
  113OSM    C8S11726   4.783   0.010   9.849 -0.1644 -0.2307 -0.8358
  113OSM    H8S11727   4.872   0.071   9.874 -0.1122  0.1200 -1.8410
  113OSM    H8T11728   4.716   0.085   9.802 -0.7859 -1.1890 -1.5293
  113OSM    C9S11729   4.803  -0.115   9.759 -0.6836  0.1003  0.7524
  113OSM    H9S11730   4.699  -0.153   9.752 -1.7970  2.9733  0.3597
  113OSM    H9T11731   4.861  -0.193   9.812 -1.0199  0.2682  1.3704
  113OSM   C10S11732   4.848  -0.073   9.619  0.4711  1.7164  0.1241
  113OSM   H10S11733   4.951  -0.032   9.616  1.2606 -0.1432  0.1251
  113OSM   H10T11734   4.770  -0.006   9.577 -0.9949  0.0077 -0.0272
  113OSM   C11S11735   4.849  -0.191   9.526  0.0652  1.0044 -0.3939
  113OSM   H11S11736   4.761  -0.256   9.544  0.5232 -0.0176 -1.6889
  113OSM   H11T11737   4.943  -0.249   9.543  1.0664  2.5951 -0.2467
  113OSM   C12S11738   4.852  -0.151   9.377  0.3389 -0.0028  0.2522
  113OSM   H12S11739   4.761  -0.097   9.343  0.3856 -0.6609 -0.9953
  113OSM   H12T11740   4.850  -0.246   9.320  0.8629  0.8522 -1.2426
  113OSM   C13S11741   4.978  -0.075   9.343 -0.3884 -0.0280 -0.2184
  113OSM   H13S11742   5.072  -0.131   9.364 -1.3517 -2.0093 -0.8832
  113OSM   H13T11743   4.988   0.017   9.404 -0.3400 -0.6444  0.7386
  113OSM   C14S11744   4.981  -0.032   9.198 -0.0091 -0.2620  1.0630
  113OSM   H14S11745   4.889   0.024   9.170 -0.4212 -2.1531 -1.7938
  113OSM   H14T11746   4.970  -0.118   9.129 -0.1141  1.6428 -1.4200
  113OSM   C15S11747   5.112   0.037   9.151  0.1670  0.0473 -0.0024
  113OSM   H15S11748   5.198  -0.030   9.172 -0.6695 -0.6120  1.3929
  113OSM   H15T11749   5.143   0.131   9.202  1.2835  0.6635 -1.7033
  113OSM   C16S11750   5.120   0.052   8.997 -0.2740 -0.3714 -0.3290
  113OSM   H16S11751   5.104  -0.044   8.944  2.2839 -1.3074  0.4306
  113OSM   H16T11752   5.224   0.089   8.984  0.5204 -1.4872  2.2255
  113OSM   C17S11753   5.020   0.157   8.934 -0.9603  0.2094  0.3127
  113OSM   H17S11754   5.035   0.250   8.992 -0.5550 -1.3231  2.7989
  113OSM   H17T11755   4.921   0.106   8.941 -0.4305 -0.6695  1.9227
  113OSM   C18S11756   5.054   0.182   8.786  0.5912  0.3317  0.2974
  113OSM   H18S11757   5.157   0.219   8.765 -0.0529  0.5688 -2.9967
  113OSM   H18T11758   4.982   0.252   8.738 -2.8797 -1.6860  2.1670
  113OSM   H18U11759   5.029   0.086   8.735 -1.5031  1.7430 -1.5218
  113OSM    C1F11760   4.207  -0.110  10.317  0.1431  0.3968  0.2429
  113OSM     OF11761   4.139  -0.019  10.362  0.2734 -0.2879  0.2460
  113OSM    C2F11762   4.138  -0.220  10.250 -0.7894 -0.0714  0.3006
  113OSM    H2F11763   4.052  -0.190  10.186 -0.5372 -1.6170 -0.8193
  113OSM    H2G11764   4.091  -0.281  10.330 -1.6601  1.1199  0.7350
  113OSM    C3F11765   4.221  -0.301  10.155 -0.1678 -0.2901  0.2566
  113OSM    H3F11766   4.152  -0.368  10.100 -0.5735 -0.7190  1.2472
  113OSM    H3G11767   4.293  -0.365  10.211 -0.4266 -3.3843 -2.6569
  113OSM    C4F11768   4.302  -0.223  10.037  0.1945  0.2217 -0.1653
  113OSM    H4F11769   4.400  -0.190  10.077  1.1073 -2.3657 -0.0821
  113OSM    H4G11770   4.241  -0.133  10.015 -0.3526 -0.2452 -0.5752
  113OSM    C5F11771   4.342  -0.308   9.916 -0.0275  0.1150  0.1721
  113OSM    H5F11772   4.379  -0.235   9.841 -0.5240  0.9406  0.7171
  113OSM    H5G11773   4.249  -0.354   9.876 -1.4473  2.3355  0.7179
  113OSM    C6F11774   4.459  -0.407   9.943  1.0687 -0.0536  0.5754
  113OSM    H6F11775   4.478  -0.445  10.046  0.4727 -2.0852 -0.0192
  113OSM    H6G11776   4.554  -0.356   9.916 -1.7805  4.9899 -1.2820
  113OSM    C7F11777   4.448  -0.534   9.859  0.0592 -0.4714  0.0640
  113OSM    H7F11778   4.405  -0.501   9.762 -1.6839 -1.5692  0.4172
  113OSM    H7G11779   4.375  -0.610   9.895 -1.8173  0.6262 -1.2781
  113OSM    C8F11780   4.585  -0.599   9.847  0.2796 -0.0822  0.2619
  113OSM    H8F11781   4.620  -0.633   9.947  2.6243  0.9333 -0.1571
  113OSM    H8G11782   4.658  -0.524   9.810 -2.3033  1.5657 -1.8367
  113OSM    C9F11783   4.595  -0.722   9.763 -0.9549 -0.3440  0.1058
  113OSM    H9F11784   4.564  -0.815   9.813 -0.9942  0.8869  2.5616
  113OSM   C10F11785   4.639  -0.722   9.632  0.4892  0.4272 -0.1133
  113OSM   H10F11786   4.645  -0.818   9.578  0.3659  0.1577  0.3489
  113OSM   C11F11787   4.694  -0.603   9.558  0.1902  0.0937 -0.8470
  113OSM   H11F11788   4.789  -0.575   9.608  0.2656  0.7489 -1.3525
  113OSM   H11G11789   4.630  -0.518   9.590  1.4289 -0.0475  2.3455
  113OSM   C12F11790   4.728  -0.622   9.411  0.3236 -0.0874 -0.2217
  113OSM   H12F11791   4.642  -0.660   9.352  1.7634 -2.7435 -0.7453
  113OSM   H12G11792   4.812  -0.695   9.412  0.1252 -0.3647  2.2392
  113OSM   C13F11793   4.764  -0.490   9.336 -0.0542  0.0674 -0.9026
  113OSM   H13F11794   4.857  -0.451   9.381 -0.9224 -0.9581  1.9973
  113OSM   H13G11795   4.696  -0.403   9.351  1.9271  1.5402 -0.0748
  113OSM   C14F11796   4.783  -0.508   9.182  0.2852  0.4394  0.1667
  113OSM   H14F11797   4.826  -0.413   9.144 -1.4190  1.2993  0.3068
  113OSM   H14G11798   4.682  -0.504   9.136 -0.1335  1.2160  1.1177
  113OSM   C15F11799   4.863  -0.635   9.137  0.6389 -0.0993  0.3608
  113OSM   H15F11800   4.793  -0.709   9.181  0.3835 -0.8163 -1.1744
  113OSM   H15G11801   4.965  -0.640   9.180  0.6538  0.7768  0.4621
  113OSM   C16F11802   4.887  -0.650   8.990 -0.0669  0.4799 -0.1109
  113OSM   H16F11803   4.802  -0.613   8.929  0.2032  2.2569  0.5281
  113OSM   H16G11804   4.908  -0.758   8.973  0.4114  0.4317  0.7589
  113OSM   C17F11805   5.003  -0.566   8.947 -0.4914 -0.2880 -0.3443
  113OSM   H17F11806   5.093  -0.593   9.006  0.3970  0.2094 -1.4430
  113OSM   H17G11807   4.982  -0.458   8.959 -1.2471 -0.5969  1.6028
  113OSM   C18F11808   5.043  -0.612   8.804 -0.1932 -0.2982 -0.3081
  113OSM   H18F11809   4.961  -0.592   8.733 -1.1988 -2.5690  0.1319
  113OSM   H18G11810   5.051  -0.722   8.814 -2.9136 -0.4010  2.1094
  113OSM   H18H11811   5.139  -0.566   8.772  0.1963 -0.0947  1.0622
  114OSM      N11812   6.210   5.670  11.363 -0.1791 -0.2677  0.0620
  114OSM    C1511813   6.333   5.697  11.449 -0.3170  0.3973  0.2865
  114OSM   H15A11814   6.297   5.732  11.545  0.9705  1.1591  0.5059
  114OSM   H15B11815   6.401   5.772  11.412 -1.7108  2.0777  0.9645
  114OSM   H15C11816   6.390   5.608  11.473 -1.6411 -0.6059 -0.1142
  114OSM    C1411817   6.132   5.558  11.430 -0.0273 -0.3733  0.1397
  114OSM   H14A11818   6.197   5.473  11.446 -1.1734 -1.6127 -1.4342
  114OSM   H14B11819   6.042   5.518  11.386 -0.1839  0.4853 -0.3485
  114OSM   H14C11820   6.102   5.604  11.523  2.0316  1.7904 -0.1631
  114OSM    C1311821   6.124   5.793  11.352  0.4005 -0.1307  0.6393
  114OSM   H13A11822   6.024   5.768  11.321  0.0674  2.2950 -0.4499
  114OSM   H13B11823   6.157   5.865  11.278 -2.1724  0.7935  0.3041
  114OSM   H13C11824   6.095   5.842  11.443 -2.4039  1.6830 -1.0770
  114OSM    C1211825   6.255   5.623  11.227 -0.1848 -0.3282 -0.5409
  114OSM   H12A11826   6.306   5.529  11.243 -0.2046 -0.3725 -0.7368
  114OSM   H12B11827   6.328   5.698  11.201 -1.8832  2.5466  2.1890
  114OSM    C1111828   6.152   5.602  11.120 -0.1389 -0.9542 -0.3624
  114OSM   H11A11829   6.206   5.584  11.025  0.5768 -0.6613 -0.0203
  114OSM   H11B11830   6.093   5.696  11.109  1.9709  0.4532 -0.2693
  114OSM      P11831   6.050   5.353  11.119  0.2314 -0.5925  0.5475
  114OSM    O1311832   6.143   5.287  11.217  0.1828 -0.4818 -0.1175
  114OSM    O1411833   5.903   5.317  11.112 -0.1700 -0.1749 -0.1376
  114OSM    O1111834   6.107   5.346  10.972  0.8179 -0.9087 -0.0504
  114OSM    O1211835   6.052   5.507  11.159 -0.6873  0.2314  0.6702
  114OSM    C1S11836   6.134   5.234  10.884  0.8379  0.3108  0.6399
  114OSM    H1S11837   6.047   5.164  10.882  1.3357 -0.3331  1.0063
  114OSM    H1T11838   6.215   5.169  10.925 -0.9725 -1.9094  0.9201
  114OSM     NF11839   6.181   5.152  10.639 -0.2537 -0.1805  0.0217
  114OSM    HNF11840   6.265   5.110  10.606 -1.9479 -2.9573 -1.1580
  114OSM    C2S11841   6.173   5.265  10.730 -0.2112 -0.0465  0.3181
  114OSM    H2S11842   6.086   5.328  10.704  0.2991  1.0037  1.0852
  114OSM    C3S11843   6.306   5.349  10.725 -0.3173 -0.1706 -0.2685
  114OSM    H3S11844   6.385   5.272  10.737 -0.0537  0.1713  0.2350
  114OSM     O311845   6.327   5.444  10.835  0.3816 -0.1943 -0.1961
  114OSM    HO311846   6.256   5.419  10.894  1.3944 -0.3728  0.9876
  114OSM    C4S11847   6.328   5.420  10.588  0.6115 -0.4689  0.4825
  114OSM    H4S11848   6.423   5.393  10.540  0.6473 -0.3572  0.4908
  114OSM    C5S11849   6.254   5.523  10.542  0.1072 -0.9118  0.8804
  114OSM    H5S11850   6.169   5.559  10.602 -0.5777 -1.1178  0.0648
  114OSM    C6S11851   6.274   5.588  10.408  0.2012  0.0565  0.1986
  114OSM    H6S11852   6.348   5.672  10.410  1.5748 -1.1168  1.7477
  114OSM    H6T11853   6.176   5.636  10.386 -1.1451 -3.2088 -1.4894
  114OSM    C7S11854   6.299   5.497  10.290 -0.6138 -0.0166 -0.5882
  114OSM    H7S11855   6.228   5.412  10.293  0.8864 -1.3431 -1.3700
  114OSM    H7T11856   6.396   5.445  10.301 -0.1787  0.8679 -0.0719
  114OSM    C8S11857   6.283   5.559  10.147  0.5686 -0.3997 -0.0316
  114OSM    H8S11858   6.290   5.669  10.162 -1.5339 -0.2765  0.4163
  114OSM    H8T11859   6.179   5.533  10.117 -0.0497 -0.0596  1.6840
  114OSM    C9S11860   6.383   5.501  10.042 -0.3062  0.1571  0.0879
  114OSM    H9S11861   6.422   5.415  10.101  0.8416  3.3592  4.4809
  114OSM    H9T11862   6.473   5.567  10.047  0.3056 -0.7332  1.5684
  114OSM   C10S11863   6.322   5.462   9.905  0.7443  0.1846  0.4831
  114OSM   H10S11864   6.232   5.399   9.916  1.8196 -1.6835 -1.0091
  114OSM   H10T11865   6.381   5.400   9.834 -1.6235 -2.5387  0.7158
  114OSM   C11S11866   6.280   5.590   9.828  0.4290 -0.0333  0.4667
  114OSM   H11S11867   6.377   5.635   9.796  0.2013 -0.3911 -0.7525
  114OSM   H11T11868   6.211   5.656   9.884  0.2000 -0.0972  0.2608
  114OSM   C12S11869   6.196   5.563   9.697  0.5427 -0.1322 -0.1736
  114OSM   H12S11870   6.090   5.588   9.718  0.9190  0.7187  0.7958
  114OSM   H12T11871   6.207   5.459   9.658  0.0321  0.2630 -1.4156
  114OSM   C13S11872   6.243   5.660   9.584 -0.6808  0.7392 -0.2751
  114OSM   H13S11873   6.352   5.655   9.563 -0.6327 -0.5352  0.2045
  114OSM   H13T11874   6.232   5.760   9.632  0.2234  0.4194  0.6188
  114OSM   C14S11875   6.186   5.647   9.445 -0.7789  0.2720 -0.6027
  114OSM   H14S11876   6.243   5.699   9.365  0.3224  1.3768  0.8542
  114OSM   H14T11877   6.084   5.691   9.445 -0.6465  0.5984  0.5087
  114OSM   C15S11878   6.187   5.503   9.396  0.9166 -0.8682 -0.0254
  114OSM   H15S11879   6.105   5.446   9.443  0.2689  1.2426  1.5448
  114OSM   H15T11880   6.285   5.451   9.409  1.1557 -0.2055  0.8814
  114OSM   C16S11881   6.149   5.496   9.244  0.1314 -1.1004  0.1763
  114OSM   H16S11882   6.215   5.571   9.196 -0.7185 -0.5244 -0.1152
  114OSM   H16T11883   6.046   5.537   9.232  0.0624 -1.6874 -1.5703
  114OSM   C17S11884   6.169   5.357   9.185  0.1364  1.1526  0.5437
  114OSM   H17S11885   6.081   5.306   9.230  1.2464 -1.5068 -0.1136
  114OSM   H17T11886   6.257   5.297   9.215  1.3392  2.1385 -0.8445
  114OSM   C18S11887   6.145   5.373   9.035  0.0074 -0.0833 -0.4153
  114OSM   H18S11888   6.046   5.420   9.023 -0.8516 -1.0092  2.2767
  114OSM   H18T11889   6.149   5.283   8.970 -0.1884  1.4105 -2.5918
  114OSM   H18U11890   6.220   5.446   8.998 -0.6863  0.7572 -0.1688
  114OSM    C1F11891   6.076   5.073  10.610  0.2743  0.3783  0.1715
  114OSM     OF11892   5.969   5.092  10.659  0.2480 -0.2078 -0.6805
  114OSM    C2F11893   6.103   4.954  10.525 -0.4089  0.6243  0.1899
  114OSM    H2F11894   6.072   4.870  10.591  0.0861 -0.0602 -0.4383
  114OSM    H2G11895   6.208   4.956  10.491 -0.9502  1.0830 -1.5604
  114OSM    C3F11896   6.012   4.961  10.397 -0.2265  0.0011  0.2115
  114OSM    H3F11897   5.905   4.949  10.422  0.2896 -0.4120  2.4399
  114OSM    H3G11898   6.020   4.867  10.338  1.1911  0.9504 -1.1999
  114OSM    C4F11899   6.060   5.060  10.293 -0.3861 -0.6233 -0.3102
  114OSM    H4F11900   6.161   5.024  10.261 -1.1128 -1.3569 -1.9174
  114OSM    H4G11901   6.077   5.157  10.344  1.3363 -0.8461 -0.3963
  114OSM    C5F11902   5.975   5.069  10.165 -0.2741  0.2502  0.4198
  114OSM    H5F11903   5.878   5.114  10.192 -1.8369 -1.1942 -2.3213
  114OSM    H5G11904   5.958   4.961  10.143 -0.8099  0.4881 -0.3772
  114OSM    C6F11905   6.027   5.144  10.040 -0.4510 -0.0690  0.2024
  114OSM    H6F11906   6.129   5.102  10.026 -0.8005 -1.7442  2.1990
  114OSM    H6G11907   6.033   5.254  10.053  1.5349 -0.0992 -0.2096
  114OSM    C7F11908   5.946   5.102   9.914  0.5259  0.0231  0.1615
  114OSM    H7F11909   5.847   5.151   9.922  0.0927 -0.7708 -0.2237
  114OSM    H7G11910   5.926   4.993   9.921  0.1458  0.1431  1.1450
  114OSM    C8F11911   6.024   5.147   9.787 -0.0525 -0.9049 -0.3382
  114OSM    H8F11912   6.114   5.083   9.774  2.0553  2.2294 -2.4320
  114OSM    H8G11913   6.048   5.255   9.791 -0.4839 -0.8329  1.9080
  114OSM    C9F11914   5.933   5.139   9.670  0.2017 -0.4702  0.9184
  114OSM    H9F11915   5.832   5.174   9.697 -0.2236 -0.3305 -0.7683
  114OSM   C10F11916   5.960   5.102   9.546 -0.1269 -0.4458  0.6080
  114OSM   H10F11917   5.881   5.115   9.471  1.9686  1.2932 -1.4553
  114OSM   C11F11918   6.099   5.056   9.497 -0.3010  0.0330  0.2013
  114OSM   H11F11919   6.150   4.976   9.556  1.6969  1.2195  0.1817
  114OSM   H11G11920   6.164   5.145   9.511  0.5425 -0.6893  1.0633
  114OSM   C12F11921   6.105   5.009   9.351  0.4864  0.2071  0.2997
  114OSM   H12F11922   6.075   5.096   9.289  0.3877 -0.6005 -0.8229
  114OSM   H12G11923   6.024   4.935   9.335  0.9742 -0.2792  0.0467
  114OSM   C13F11924   6.242   4.957   9.287  0.6440 -0.1786 -0.1629
  114OSM   H13F11925   6.249   4.855   9.330 -1.7901 -0.4652 -0.2933
  114OSM   H13G11926   6.324   5.023   9.323  0.2329  0.6955 -0.7825
  114OSM   C14F11927   6.237   4.940   9.136 -0.1577 -0.1538 -0.2985
  114OSM   H14F11928   6.193   5.027   9.082  2.9559  0.3374 -2.3135
  114OSM   H14G11929   6.188   4.844   9.108 -2.7873  0.9816  0.0769
  114OSM   C15F11930   6.381   4.937   9.078  0.0523 -0.5161 -0.3569
  114OSM   H15F11931   6.383   4.860   8.998 -0.7634 -1.7288  0.7519
  114OSM   H15G11932   6.446   4.903   9.161  0.5182 -1.8314 -1.2372
  114OSM   C16F11933   6.421   5.077   9.026  0.2609 -0.4974  0.1907
  114OSM   H16F11934   6.388   5.157   9.096 -1.8714 -0.3743 -0.8601
  114OSM   H16G11935   6.360   5.101   8.936  0.6018 -0.7287 -0.1032
  114OSM   C17F11936   6.570   5.095   8.995 -0.0284 -0.1320 -0.7598
  114OSM   H17F11937   6.599   5.002   8.940  2.7616  1.4377 -2.1687
  114OSM   H17G11938   6.622   5.112   9.091 -0.9354  1.4368 -0.5221
  114OSM   C18F11939   6.594   5.215   8.905 -0.4077 -0.6392  0.4394
  114OSM   H18F11940   6.693   5.186   8.863 -0.0258 -0.4084  1.1639
  114OSM   H18G11941   6.617   5.302   8.970  1.6641 -1.7066  1.2052
  114OSM   H18H11942   6.517   5.239   8.828  1.0915  1.8204 -0.4252
  115OSM      N11943   2.354   3.001   5.886  0.4654 -0.1646  0.7364
  115OSM    C1511944   2.432   2.969   6.009 -0.5844 -0.5154  0.3997
  115OSM   H15A11945   2.479   2.872   6.001 -1.6244 -1.1541  1.6418
  115OSM   H15B11946   2.370   2.965   6.098 -0.6819  0.2446  0.3760
  115OSM   H15C11947   2.512   3.040   6.025 -1.2426 -0.0332  1.6946
  115OSM    C1411948   2.437   2.969   5.761 -0.2275  0.1445 -0.6869
  115OSM   H14A11949   2.522   3.036   5.763 -0.9452  1.0570  0.0734
  115OSM   H14B11950   2.374   2.984   5.675  2.1554 -0.9184 -2.7511
  115OSM   H14C11951   2.469   2.866   5.767 -0.6029  0.0690  0.0780
  115OSM    C1311952   2.246   2.893   5.877 -0.3151 -0.1734 -0.2138
  115OSM   H13A11953   2.167   2.906   5.950 -0.9353 -1.9158 -0.5162
  115OSM   H13B11954   2.287   2.793   5.885  0.1586 -0.0327 -0.8496
  115OSM   H13C11955   2.206   2.899   5.777  1.1758  0.7773 -0.7872
  115OSM    C1211956   2.289   3.138   5.869  0.4895  0.0328 -0.2362
  115OSM   H12A11957   2.219   3.160   5.948  2.0332  1.2605  0.8449
  115OSM   H12B11958   2.235   3.143   5.775  1.3721  1.1815 -0.7164
  115OSM    C1111959   2.388   3.263   5.873  0.1716 -0.5226 -0.0041
  115OSM   H11A11960   2.324   3.354   5.873  0.4877 -0.2224 -2.6111
  115OSM   H11B11961   2.455   3.261   5.784 -0.0903  0.1780 -0.2243
  115OSM      P11962   2.611   3.323   5.997 -0.2867  0.8562  0.1759
  115OSM    O1311963   2.694   3.224   5.936  0.2867  0.1575  0.2258
  115OSM    O1411964   2.606   3.453   5.930 -0.2303 -0.8593 -0.2627
  115OSM    O1111965   2.648   3.332   6.154  0.2312 -0.2516 -0.2648
  115OSM    O1211966   2.467   3.256   5.994  0.2139 -0.0564  0.1799
  115OSM    C1S11967   2.588   3.438   6.231  0.4622  0.0249 -0.1629
  115OSM    H1S11968   2.482   3.465   6.207  0.7410  0.9466 -0.4113
  115OSM    H1T11969   2.646   3.533   6.233 -0.9093  0.8816  0.2065
  115OSM     NF11970   2.494   3.482   6.463 -0.1605 -0.3612 -0.0039
  115OSM    HNF11971   2.531   3.534   6.540 -0.0845  1.5833 -1.2833
  115OSM    C2S11972   2.586   3.397   6.386 -0.7765  0.0295  0.2125
  115OSM    H2S11973   2.552   3.291   6.388  1.6448 -0.7872  0.5896
  115OSM    C3S11974   2.741   3.374   6.438  0.1484  0.0752 -0.0175
  115OSM    H3S11975   2.803   3.465   6.423 -1.4413  1.1404 -0.3725
  115OSM     O311976   2.818   3.281   6.363  0.3259  0.2893 -0.8666
  115OSM    HO311977   2.775   3.284   6.277  0.8517  0.5440 -1.1240
  115OSM    C4S11978   2.737   3.341   6.576  0.0269  0.1836 -0.3644
  115OSM    H4S11979   2.718   3.430   6.638  0.3095  0.5133 -0.7429
  115OSM    C5S11980   2.764   3.220   6.630  0.4670  0.0278 -0.3628
  115OSM    H5S11981   2.795   3.136   6.567  1.7313 -1.2812  1.8532
  115OSM    C6S11982   2.770   3.203   6.786  0.3573  0.7911  0.4319
  115OSM    H6S11983   2.875   3.176   6.810 -0.4814 -2.2242  1.0824
  115OSM    H6T11984   2.700   3.122   6.816  1.6486 -0.3342  0.5309
  115OSM    C7S11985   2.728   3.318   6.883 -1.0028 -0.0250  0.4884
  115OSM    H7S11986   2.634   3.357   6.838  0.0620  0.4775 -1.3803
  115OSM    H7T11987   2.809   3.393   6.882 -0.4618 -0.5067 -3.0863
  115OSM    C8S11988   2.702   3.258   7.020  0.0243  0.4817  0.0869
  115OSM    H8S11989   2.780   3.182   7.047  0.0444  0.0556 -1.1240
  115OSM    H8T11990   2.603   3.209   7.029  0.0694  0.4888  0.6457
  115OSM    C9S11991   2.726   3.367   7.124 -0.0190  0.3963  0.4032
  115OSM    H9S11992   2.657   3.453   7.125  1.5012  1.7446 -2.0465
  115OSM    H9T11993   2.833   3.392   7.108 -0.1061 -0.3440 -1.6996
  115OSM   C10S11994   2.723   3.319   7.276 -0.7932  0.1114 -0.4660
  115OSM   H10S11995   2.769   3.394   7.343 -0.8875 -1.5938  1.6363
  115OSM   H10T11996   2.804   3.244   7.261  0.0573  1.2361 -1.6891
  115OSM   C11S11997   2.597   3.261   7.329 -0.1424  0.3086 -0.1595
  115OSM   H11S11998   2.562   3.180   7.261  1.5161  0.1744 -0.9078
  115OSM   H11T11999   2.519   3.338   7.346  0.0415  0.1325  1.6411
  115OSM   C12S12000   2.614   3.185   7.463  0.5025 -0.2221 -0.8950
  115OSM   H12S12001   2.681   3.097   7.451 -1.2443 -2.0136  1.6417
  115OSM   H12T12002   2.518   3.140   7.495  1.8458 -2.2977  0.5087
  115OSM   C13S12003   2.671   3.264   7.572  0.4607  0.0164 -0.1366
  115OSM   H13S12004   2.616   3.357   7.599 -1.2518 -0.8395 -0.5776
  115OSM   H13T12005   2.773   3.302   7.550  0.2711 -0.3067 -1.6306
  115OSM   C14S12006   2.675   3.177   7.706 -0.3177 -0.6321  0.1581
  115OSM   H14S12007   2.757   3.104   7.690  0.9430  0.5699  0.8646
  115OSM   H14T12008   2.578   3.129   7.731  0.3783 -1.4299  1.3983
  115OSM   C15S12009   2.719   3.263   7.825 -0.4565 -0.3494 -0.9168
  115OSM   H15S12010   2.657   3.354   7.841 -2.3008 -0.9656 -3.7968
  115OSM   H15T12011   2.817   3.302   7.792 -1.0396  0.8192 -1.3116
  115OSM   C16S12012   2.755   3.183   7.954  0.4108 -0.3956  0.0296
  115OSM   H16S12013   2.787   3.083   7.920  1.4900 -0.2933  0.7185
  115OSM   H16T12014   2.665   3.183   8.020 -0.7003  1.8162 -1.3579
  115OSM   C17S12015   2.862   3.251   8.043  0.4376  0.9944  1.2034
  115OSM   H17S12016   2.947   3.269   7.974  2.8971  1.2257  4.1099
  115OSM   H17T12017   2.886   3.177   8.121 -1.2914  0.9937  1.7863
  115OSM   C18S12018   2.823   3.388   8.096 -0.3623 -0.6083  0.1563
  115OSM   H18S12019   2.912   3.433   8.145  1.1896 -0.3555 -2.6578
  115OSM   H18T12020   2.737   3.378   8.165 -2.4675  1.4793 -1.9768
  115OSM   H18U12021   2.796   3.461   8.017  0.7804  1.6879  1.7680
  115OSM    C1F12022   2.363   3.482   6.444  0.6531 -0.5626 -0.0239
  115OSM     OF12023   2.299   3.414   6.361  0.0347 -0.4575  0.2959
  115OSM    C2F12024   2.278   3.563   6.538 -0.0274  0.4804 -0.2232
  115OSM    H2F12025   2.192   3.614   6.489 -0.9168 -0.1837  0.6189
  115OSM    H2G12026   2.345   3.643   6.576 -1.1622  1.0814  0.6143
  115OSM    C3F12027   2.216   3.510   6.671  0.2638  0.2026  0.0430
  115OSM    H3F12028   2.159   3.419   6.642 -1.2678  1.7329 -2.0733
  115OSM    H3G12029   2.138   3.582   6.705 -1.9439 -2.3046  0.6109
  115OSM    C4F12030   2.315   3.474   6.789  0.1130  0.2327 -1.2332
  115OSM    H4F12031   2.362   3.570   6.818  1.0518 -0.3269 -0.8157
  115OSM    H4G12032   2.392   3.397   6.767 -1.7760 -2.1403 -0.1222
  115OSM    C5F12033   2.233   3.428   6.908 -0.1090 -0.0602 -0.6768
  115OSM    H5F12034   2.165   3.344   6.881 -2.2502  1.0247  1.0086
  115OSM    H5G12035   2.174   3.511   6.952  1.1781 -0.5923  2.3010
  115OSM    C6F12036   2.317   3.388   7.034  0.2970  0.2887  0.6658
  115OSM    H6F12037   2.387   3.465   7.073  0.2298  1.0795 -0.7325
  115OSM    H6G12038   2.378   3.297   7.014 -1.8030 -1.2521  0.9456
  115OSM    C7F12039   2.233   3.330   7.149 -0.5114 -0.5850 -0.0593
  115OSM    H7F12040   2.288   3.287   7.234  1.4682 -0.5839 -1.2878
  115OSM    H7G12041   2.152   3.269   7.105 -0.4137  0.3931 -1.6960
  115OSM    C8F12042   2.153   3.444   7.215 -0.0991  0.3542  0.4053
  115OSM    H8F12043   2.083   3.378   7.271 -0.9728 -0.2691 -1.3357
  115OSM    H8G12044   2.083   3.498   7.148  2.2579 -0.5216 -3.0516
  115OSM    C9F12045   2.218   3.555   7.297 -0.6123 -0.4829  0.5962
  115OSM    H9F12046   2.244   3.639   7.230 -1.1873 -0.7028  0.0835
  115OSM   C10F12047   2.244   3.552   7.431  0.0976  0.5407  0.7157
  115OSM   H10F12048   2.289   3.632   7.492  0.9084 -0.9025  2.0942
  115OSM   C11F12049   2.211   3.432   7.516  1.2127  0.3422  0.1517
  115OSM   H11F12050   2.300   3.366   7.527  0.4316 -0.6188  0.9258
  115OSM   H11G12051   2.134   3.367   7.468 -0.4728  1.8786  0.6541
  115OSM   C12F12052   2.158   3.464   7.656 -0.2873 -1.0109 -0.4756
  115OSM   H12F12053   2.058   3.512   7.657  0.1840  0.0167  1.3148
  115OSM   H12G12054   2.230   3.524   7.715 -0.3580  1.1764 -2.4571
  115OSM   C13F12055   2.126   3.343   7.736  0.9386  0.0922  0.4052
  115OSM   H13F12056   2.214   3.283   7.768  1.3357  1.0062  1.0699
  115OSM   H13G12057   2.055   3.279   7.679  0.3483 -0.5900  1.8528
  115OSM   C14F12058   2.057   3.372   7.870  0.2418  0.6946 -0.1828
  115OSM   H14F12059   1.952   3.400   7.846  0.1204  1.0006  0.6481
  115OSM   H14G12060   2.094   3.460   7.926  1.2289  0.6262 -0.7181
  115OSM   C15F12061   2.059   3.242   7.953  0.5230  0.1464 -0.7827
  115OSM   H15F12062   2.164   3.213   7.976 -0.0120 -1.5975 -0.4032
  115OSM   H15G12063   2.029   3.149   7.900  1.0132 -1.3512  1.4371
  115OSM   C16F12064   1.976   3.263   8.080 -0.2211 -0.6042 -0.0332
  115OSM   H16F12065   1.959   3.168   8.133  1.6674 -1.3751 -0.7129
  115OSM   H16G12066   1.871   3.295   8.061 -0.1626 -0.1130  0.4248
  115OSM   C17F12067   2.040   3.358   8.188 -1.1221 -0.4817 -0.6345
  115OSM   H17F12068   2.039   3.463   8.150  0.3567 -0.4082 -0.5320
  115OSM   H17G12069   2.146   3.328   8.201 -0.5167  0.3321 -3.1324
  115OSM   C18F12070   1.975   3.356   8.333 -0.8037  0.0925  0.3219
  115OSM   H18F12071   2.029   3.433   8.394 -0.7585  0.4929 -0.2218
  115OSM   H18G12072   1.994   3.258   8.383  0.6028 -1.5105 -3.0512
  115OSM   H18H12073   1.867   3.379   8.334 -1.0181 -0.8551  1.0701
  116OSM      N12074   6.271   5.943   6.020 -0.3534  0.2120 -0.6932
  116OSM    C1512075   6.399   5.889   5.969 -0.9494  0.0611 -0.0252
  116OSM   H15A12076   6.383   5.794   5.920  0.6002 -0.1776 -0.1210
  116OSM   H15B12077   6.469   5.856   6.044  0.0875 -0.7837 -1.3144
  116OSM   H15C12078   6.462   5.955   5.911  1.2480 -2.3228 -0.5136
  116OSM    C1412079   6.294   6.074   6.092 -0.5979  0.2761 -0.7072
  116OSM   H14A12080   6.325   6.152   6.025  0.5562  0.4317 -0.0096
  116OSM   H14B12081   6.364   6.063   6.173  0.3203 -1.2388 -1.6622
  116OSM   H14C12082   6.205   6.114   6.138 -2.4451 -1.7588 -2.3069
  116OSM    C1312083   6.174   5.969   5.914 -0.6226  0.2657  0.9903
  116OSM   H13A12084   6.080   6.008   5.948 -2.4374 -4.1072  1.7119
  116OSM   H13B12085   6.158   5.879   5.856  1.4617  0.2613  0.3343
  116OSM   H13C12086   6.204   6.030   5.830 -0.9930 -0.4293  0.3436
  116OSM    C1212087   6.202   5.840   6.113 -0.4740  0.4747  0.2329
  116OSM   H12A12088   6.204   5.744   6.064 -1.3114  1.0570 -0.9993
  116OSM   H12B12089   6.098   5.867   6.111 -0.7801 -0.3724 -3.3872
  116OSM    C1112090   6.268   5.809   6.250 -0.6605 -0.2160  0.9784
  116OSM   H11A12091   6.200   5.749   6.314  0.2282 -1.8699  0.4346
  116OSM   H11B12092   6.291   5.902   6.307 -0.6973 -0.3782  1.2581
  116OSM      P12093   6.404   5.591   6.238 -0.2496 -0.0229  0.2753
  116OSM    O1312094   6.299   5.532   6.153 -0.1263 -0.2093  0.6067
  116OSM    O1412095   6.543   5.541   6.204  0.6389  0.9117  0.4663
  116OSM    O1112096   6.363   5.546   6.387  0.0807  0.4362  0.3350
  116OSM    O1212097   6.400   5.748   6.238  0.4927 -0.0726 -0.1587
  116OSM    C1S12098   6.476   5.540   6.482 -0.6910 -0.4892 -0.0797
  116OSM    H1S12099   6.561   5.605   6.451 -0.9115 -0.5536 -0.8292
  116OSM    H1T12100   6.526   5.441   6.480  1.0412  0.3241  0.8770
  116OSM     NF12101   6.527   5.606   6.713  0.0490  0.6038  0.0706
  116OSM    HNF12102   6.543   5.536   6.782  0.9826 -2.3157 -2.8318
  116OSM    C2S12103   6.420   5.587   6.615 -0.3527  0.4539 -0.9052
  116OSM    H2S12104   6.370   5.684   6.597 -1.8935  0.4317  2.4276
  116OSM    C3S12105   6.298   5.491   6.667 -0.7238 -0.1824 -0.2658
  116OSM    H3S12106   6.329   5.384   6.670 -1.5550 -0.4308  3.0148
  116OSM     O312107   6.175   5.504   6.587  0.2352  0.3711 -0.2021
  116OSM    HO312108   6.200   5.573   6.525  1.4254 -1.1110 -1.4426
  116OSM    C4S12109   6.250   5.533   6.800  0.4394 -0.0276 -0.2703
  116OSM    H4S12110   6.239   5.641   6.815 -1.3470 -0.4560  2.1307
  116OSM    C5S12111   6.231   5.448   6.901  0.2134  0.1848 -0.2788
  116OSM    H5S12112   6.256   5.341   6.893  0.2397  0.2268 -0.7996
  116OSM    C6S12113   6.182   5.480   7.041 -0.4494 -0.2429  0.7626
  116OSM    H6S12114   6.209   5.401   7.114  2.1711  0.1334  0.3137
  116OSM    H6T12115   6.072   5.495   7.049 -0.7417 -1.1390 -1.1699
  116OSM    C7S12116   6.258   5.600   7.114  0.0722  0.2468  0.2274
  116OSM    H7S12117   6.238   5.704   7.079  0.5409  0.3263  0.1932
  116OSM    H7T12118   6.365   5.573   7.100 -0.0833 -0.0649 -0.4133
  116OSM    C8S12119   6.223   5.599   7.266  0.2077 -0.1168 -0.9135
  116OSM    H8S12120   6.239   5.497   7.307 -1.2531  0.0415  0.1408
  116OSM    H8T12121   6.116   5.627   7.280 -0.0026 -1.7595  1.4262
  116OSM    C9S12122   6.306   5.691   7.356  1.0948  0.0215 -0.1304
  116OSM    H9S12123   6.321   5.794   7.318  2.2590 -0.4455 -0.9952
  116OSM    H9T12124   6.407   5.646   7.346  3.0991  4.0607  0.1303
  116OSM   C10S12125   6.269   5.680   7.506  0.5531  0.4124 -0.0092
  116OSM   H10S12126   6.285   5.573   7.528  2.2437  0.2183 -1.8670
  116OSM   H10T12127   6.160   5.697   7.520  0.6852  3.9289 -2.0729
  116OSM   C11S12128   6.350   5.772   7.594  0.0766  0.3480  0.5304
  116OSM   H11S12129   6.332   5.878   7.566  1.1700  0.3621 -0.1901
  116OSM   H11T12130   6.453   5.742   7.566 -0.7603 -0.9574 -1.3107
  116OSM   C12S12131   6.324   5.754   7.745  0.4540  0.1898 -0.4951
  116OSM   H12S12132   6.381   5.671   7.793  2.1374  0.0102 -2.6233
  116OSM   H12T12133   6.214   5.756   7.756  0.4414  0.3800 -0.6429
  116OSM   C13S12134   6.380   5.883   7.806  0.3984  0.1845 -1.0073
  116OSM   H13S12135   6.337   5.971   7.753  2.3402  1.4875 -0.5185
  116OSM   H13T12136   6.487   5.887   7.778 -0.0315  0.1257 -2.8279
  116OSM   C14S12137   6.375   5.900   7.959  0.1081  0.7230 -0.2034
  116OSM   H14S12138   6.427   5.996   7.977  0.8979  0.0724  1.1602
  116OSM   H14T12139   6.451   5.833   8.005  0.7402  1.1899 -0.5500
  116OSM   C15S12140   6.235   5.886   8.022 -0.2085  0.1760 -0.6103
  116OSM   H15S12141   6.202   5.780   8.029  0.8355 -0.1316 -0.1701
  116OSM   H15T12142   6.167   5.939   7.952 -0.8401  1.3028  0.8192
  116OSM   C16S12143   6.234   5.948   8.161 -0.5431  1.0325 -0.3856
  116OSM   H16S12144   6.130   5.957   8.200  0.0368  2.0094  1.0280
  116OSM   H16T12145   6.279   6.049   8.158 -2.3049  1.8314 -1.8769
  116OSM   C17S12146   6.315   5.867   8.272 -0.5168 -0.0953 -0.2750
  116OSM   H17S12147   6.416   5.852   8.227 -0.3115 -1.5764  0.6104
  116OSM   H17T12148   6.274   5.765   8.285  1.2959 -0.7898  0.3828
  116OSM   C18S12149   6.310   5.939   8.408 -0.2672  0.2890 -0.7376
  116OSM   H18S12150   6.329   6.045   8.381  1.9110 -0.0056 -0.5540
  116OSM   H18T12151   6.398   5.898   8.462  0.2122  2.4167  0.2192
  116OSM   H18U12152   6.217   5.927   8.468  0.9359 -1.0322  0.9671
  116OSM    C1F12153   6.614   5.705   6.698 -0.2078  0.1643 -0.1395
  116OSM     OF12154   6.602   5.787   6.608 -0.6835 -0.0133 -0.1343
  116OSM    C2F12155   6.730   5.708   6.788  0.0707  0.4781 -0.4845
  116OSM    H2F12156   6.817   5.741   6.727  0.9430 -2.6905 -1.1170
  116OSM    H2G12157   6.766   5.609   6.822  2.5136  1.2827 -0.4873
  116OSM    C3F12158   6.704   5.803   6.906 -0.1042  0.2724  0.1481
  116OSM    H3F12159   6.607   5.772   6.952  0.3558 -1.5412 -0.0274
  116OSM    H3G12160   6.690   5.904   6.862  0.7095  0.3266 -0.0003
  116OSM    C4F12161   6.820   5.810   7.007 -0.0250 -0.3698  0.4704
  116OSM    H4F12162   6.906   5.862   6.959 -0.2747  0.0563  0.4771
  116OSM    H4G12163   6.855   5.719   7.061  2.3082  1.0086  1.4371
  116OSM    C5F12164   6.796   5.907   7.128 -0.1421 -0.4845 -0.2896
  116OSM    H5F12165   6.691   5.884   7.158 -0.0871 -3.3826 -1.9051
  116OSM    H5G12166   6.802   6.015   7.100  0.5088 -0.6325 -0.7454
  116OSM    C6F12167   6.899   5.882   7.234  0.1879 -0.4200  0.6367
  116OSM    H6F12168   6.997   5.893   7.183  0.7885  0.5273  1.9500
  116OSM    H6G12169   6.886   5.783   7.282  0.2846 -0.0344  1.4674
  116OSM    C7F12170   6.896   5.998   7.342  0.7997  0.1431 -0.3707
  116OSM    H7F12171   6.910   6.089   7.280 -0.6482  1.2940  0.9079
  116OSM    H7G12172   6.988   5.989   7.404  0.9059  0.4452 -0.4841
  116OSM    C8F12173   6.765   6.011   7.429 -0.1329  0.3487 -0.1068
  116OSM    H8F12174   6.674   6.026   7.367  0.0639  2.8005  0.0731
  116OSM    H8G12175   6.778   6.108   7.482 -2.4407  0.8516 -0.3541
  116OSM    C9F12176   6.746   5.890   7.513 -0.3239  0.0294 -0.3430
  116OSM    H9F12177   6.682   5.806   7.482  0.9237 -0.6785 -1.0393
  116OSM   C10F12178   6.805   5.867   7.632 -0.0455  0.0904 -0.3005
  116OSM   H10F12179   6.788   5.763   7.665 -2.8631  0.4799 -0.2711
  116OSM   C11F12180   6.900   5.955   7.702 -0.0665  0.0687  0.5299
  116OSM   H11F12181   6.924   6.040   7.634  1.2711 -1.1275 -0.5390
  116OSM   H11G12182   6.985   5.894   7.739  1.8746  1.7676 -0.8889
  116OSM   C12F12183   6.832   6.022   7.823 -0.5387 -0.9571  0.6038
  116OSM   H12F12184   6.756   6.097   7.792  0.3240 -0.5505 -0.6199
  116OSM   H12G12185   6.905   6.089   7.874  0.0061 -0.8202 -0.3315
  116OSM   C13F12186   6.779   5.920   7.932  0.1431 -1.5724  0.5426
  116OSM   H13F12187   6.864   5.849   7.942  0.7564 -0.6779  1.9348
  116OSM   H13G12188   6.682   5.880   7.894 -1.5663  2.4743  0.2017
  116OSM   C14F12189   6.756   5.992   8.065 -0.2004 -0.2210  0.4361
  116OSM   H14F12190   6.663   6.050   8.049 -1.0538 -1.8046 -0.5001
  116OSM   H14G12191   6.841   6.051   8.107  0.4687 -1.9545  1.6637
  116OSM   C15F12192   6.731   5.886   8.175  0.1739 -0.3747  0.1170
  116OSM   H15F12193   6.820   5.819   8.177  0.6469  0.2513  0.4053
  116OSM   H15G12194   6.649   5.813   8.158  0.0414 -0.3809  0.7466
  116OSM   C16F12195   6.708   5.946   8.316  0.1483 -0.5975  0.4221
  116OSM   H16F12196   6.608   5.993   8.329  0.4477  0.6577 -1.4489
  116OSM   H16G12197   6.783   6.028   8.322  0.2731 -0.5295 -1.5878
  116OSM   C17F12198   6.740   5.852   8.438  0.5790  0.2382 -0.6655
  116OSM   H17F12199   6.698   5.750   8.430  2.3452 -0.6030  0.2562
  116OSM   H17G12200   6.698   5.891   8.533 -0.3982  1.4412 -1.5639
  116OSM   C18F12201   6.894   5.833   8.445  0.0223 -0.0866 -0.5337
  116OSM   H18F12202   6.924   5.801   8.547  2.9791  1.1954 -0.8932
  116OSM   H18G12203   6.937   5.936   8.444  0.0439 -0.0912 -0.1705
  116OSM   H18H12204   6.937   5.772   8.363  2.8699 -1.5996  1.8965
  117OSM      N12205   4.997   0.569   6.194  0.1444  0.0551 -0.2847
  117OSM    C1512206   5.106   0.504   6.121 -0.4861 -0.1127 -0.1159
  117OSM   H15A12207   5.052   0.442   6.051 -1.1425 -0.8019  0.9913
  117OSM   H15B12208   5.178   0.448   6.179  0.0201  0.0549 -0.5666
  117OSM   H15C12209   5.173   0.578   6.080 -1.9046 -0.1828 -2.7822
  117OSM    C1412210   4.941   0.683   6.113  0.1474  0.2879  0.1080
  117OSM   H14A12211   4.875   0.747   6.169  2.4582  2.7612  0.2728
  117OSM   H14B12212   4.901   0.644   6.020  1.9364 -2.3455  0.3503
  117OSM   H14C12213   5.030   0.737   6.083  0.4717  0.0248  0.5905
  117OSM    C1312214   4.872   0.475   6.220 -0.1279 -0.0662  0.0289
  117OSM   H13A12215   4.837   0.441   6.124  1.5862 -0.6160 -0.4266
  117OSM   H13B12216   4.795   0.526   6.276  1.5839 -0.2588  2.7358
  117OSM   H13C12217   4.913   0.388   6.269  2.5935  1.2308  0.2380
  117OSM    C1212218   5.054   0.629   6.319 -0.1272  0.0704 -0.6012
  117OSM   H12A12219   4.968   0.686   6.350 -0.5103 -0.7318 -0.1594
  117OSM   H12B12220   5.140   0.690   6.298 -1.1063  0.6743 -3.2079
  117OSM    C1112221   5.115   0.525   6.424 -0.0430 -0.3355  0.7339
  117OSM   H11A12222   5.031   0.455   6.443  1.3756 -2.2274  0.3811
  117OSM   H11B12223   5.130   0.574   6.522 -0.7465  0.3079  0.5306
  117OSM      P12224   5.248   0.308   6.406  0.0982 -0.2289 -0.1025
  117OSM    O1312225   5.177   0.223   6.314  0.1564  0.6073  0.5775
  117OSM    O1412226   5.393   0.286   6.411 -0.8932  0.0781 -0.5509
  117OSM    O1112227   5.183   0.294   6.545 -0.2080  0.5140 -0.3386
  117OSM    O1212228   5.226   0.459   6.367 -0.3394  0.1711  0.5210
  117OSM    C1S12229   5.200   0.169   6.616 -0.0318  0.6798 -0.8313
  117OSM    H1S12230   5.307   0.143   6.632 -0.5337 -0.9441  0.0206
  117OSM    H1T12231   5.158   0.093   6.547 -1.5725  1.9407 -1.3619
  117OSM     NF12232   5.155   0.034   6.834  0.0737 -0.7509  0.1055
  117OSM    HNF12233   5.077  -0.027   6.842 -1.2942  0.8230 -0.6863
  117OSM    C2S12234   5.132   0.162   6.753  0.1456  0.1312 -0.0639
  117OSM    H2S12235   5.174   0.242   6.817 -0.2138 -0.2888  0.7155
  117OSM    C3S12236   4.980   0.187   6.742  0.0998 -0.0321  0.7361
  117OSM    H3S12237   4.947   0.108   6.672 -0.0034 -1.5346  2.4105
  117OSM     O312238   4.941   0.316   6.695 -0.3431 -0.1512  0.2920
  117OSM    HO312239   5.029   0.334   6.660  0.4035 -1.3364  1.4886
  117OSM    C4S12240   4.904   0.161   6.875  1.1234 -0.3337  0.4438
  117OSM    H4S12241   4.880   0.056   6.897 -0.3944  0.1432  1.2341
  117OSM    C5S12242   4.868   0.253   6.967  0.4662 -0.2486 -0.0923
  117OSM    H5S12243   4.893   0.359   6.949  0.2433 -0.2810 -0.6023
  117OSM    C6S12244   4.789   0.231   7.096  0.1164 -0.4123  0.0878
  117OSM    H6S12245   4.745   0.129   7.095  1.6390 -1.1225  1.2507
  117OSM    H6T12246   4.712   0.311   7.105 -0.1957 -0.7040  0.0384
  117OSM    C7S12247   4.874   0.243   7.226  0.1836 -0.1056  0.4372
  117OSM    H7S12248   4.923   0.343   7.235 -2.5190  1.2335  1.5116
  117OSM    H7T12249   4.940   0.154   7.231 -1.8821 -1.6833  0.8150
  117OSM    C8S12250   4.793   0.245   7.355 -0.2807 -0.1639 -0.9464
  117OSM    H8S12251   4.728   0.159   7.383  0.3792 -0.2375  0.4461
  117OSM    H8T12252   4.721   0.329   7.367 -1.3081 -1.1677  0.2681
  117OSM    C9S12253   4.886   0.250   7.476 -0.2122 -0.3653 -0.2257
  117OSM    H9S12254   4.942   0.346   7.479 -0.4378 -0.2365 -0.1205
  117OSM    H9T12255   4.970   0.181   7.451  3.0795  3.2522 -0.0909
  117OSM   C10S12256   4.813   0.217   7.612  0.0895  0.1940 -0.6785
  117OSM   H10S12257   4.747   0.130   7.593 -0.6738  0.8030 -0.8896
  117OSM   H10T12258   4.753   0.308   7.635 -0.7024 -0.6118  0.6211
  117OSM   C11S12259   4.903   0.184   7.735 -0.9880 -0.1867 -0.0996
  117OSM   H11S12260   4.974   0.266   7.756  1.5482 -1.7756 -1.8345
  117OSM   H11T12261   4.956   0.087   7.719  0.9456  0.2136  2.9871
  117OSM   C12S12262   4.823   0.171   7.865 -0.5871  0.5197 -0.2733
  117OSM   H12S12263   4.752   0.087   7.847 -1.4975  1.4716 -1.3055
  117OSM   H12T12264   4.781   0.272   7.884  1.0158  1.1021  0.3565
  117OSM   C13S12265   4.920   0.128   7.978 -0.0419 -0.5107 -0.3762
  117OSM   H13S12266   5.003   0.200   7.991 -0.8651  0.3325  0.3549
  117OSM   H13T12267   4.959   0.025   7.965 -0.5348 -0.8707  0.8886
  117OSM   C14S12268   4.852   0.124   8.118 -1.0996  0.6053  0.1060
  117OSM   H14S12269   4.745   0.096   8.117 -0.4919 -2.2644 -3.1110
  117OSM   H14T12270   4.857   0.227   8.161 -2.1914  1.2447 -1.2261
  117OSM   C15S12271   4.917   0.015   8.200  0.3128  0.0464 -0.1662
  117OSM   H15S12272   5.027   0.008   8.184  0.2889 -0.5234 -0.0902
  117OSM   H15T12273   4.880  -0.084   8.167  2.8593 -1.8708  2.1976
  117OSM   C16S12274   4.903   0.025   8.356 -0.7322 -0.2774 -0.1583
  117OSM   H16S12275   4.794   0.038   8.371 -1.1632 -0.9593 -2.4112
  117OSM   H16T12276   4.967   0.107   8.396 -1.4444 -1.2632  3.3437
  117OSM   C17S12277   4.943  -0.105   8.435 -0.3927 -0.5094  0.5275
  117OSM   H17S12278   4.899  -0.081   8.535 -0.9746 -1.2018  0.4417
  117OSM   H17T12279   5.054  -0.110   8.441 -0.3408  0.9311  1.3148
  117OSM   C18S12280   4.885  -0.232   8.377 -0.0033  0.4530 -0.9991
  117OSM   H18S12281   4.856  -0.299   8.461  1.1429 -1.3290 -1.9600
  117OSM   H18T12282   4.956  -0.293   8.316 -2.2208 -2.5953 -0.7835
  117OSM   H18U12283   4.792  -0.218   8.318 -0.1377  0.6240 -0.7469
  117OSM    C1F12284   5.274  -0.004   6.876 -0.2783  0.0942 -0.3045
  117OSM     OF12285   5.367   0.081   6.874 -0.2317 -0.0065  0.2604
  117OSM    C2F12286   5.307  -0.140   6.914  0.2341  0.6462 -0.1933
  117OSM    H2F12287   5.363  -0.196   6.836 -0.0857 -0.6261  0.4604
  117OSM    H2G12288   5.215  -0.203   6.916 -1.8145  3.4407 -0.7419
  117OSM    C3F12289   5.386  -0.156   7.048  0.5926 -0.0820 -0.1165
  117OSM    H3F12290   5.492  -0.129   7.028  0.2613  0.2619 -1.5319
  117OSM    H3G12291   5.382  -0.264   7.073  2.0361  0.0329  0.7142
  117OSM    C4F12292   5.313  -0.087   7.166 -0.3609 -0.6753 -0.5775
  117OSM    H4F12293   5.204  -0.092   7.147 -0.8693 -1.7904  2.0921
  117OSM    H4G12294   5.346   0.017   7.186  3.5848 -2.0224  0.8512
  117OSM    C5F12295   5.333  -0.140   7.304 -0.2052 -0.1814 -0.6214
  117OSM    H5F12296   5.437  -0.138   7.343 -0.7379 -1.0286  0.9331
  117OSM    H5G12297   5.289  -0.242   7.296 -1.6632  0.0970  2.3868
  117OSM    C6F12298   5.240  -0.072   7.406  0.2168  0.2353 -0.2178
  117OSM    H6F12299   5.136  -0.070   7.366  0.5796  0.1677 -1.1773
  117OSM    H6G12300   5.275   0.032   7.424 -1.0088  0.9082 -1.5313
  117OSM    C7F12301   5.244  -0.149   7.538 -0.6795 -0.4096 -0.1800
  117OSM    H7F12302   5.223  -0.258   7.532 -1.0159 -0.2936 -1.1735
  117OSM    H7G12303   5.175  -0.105   7.613  1.4420 -0.8284  2.1762
  117OSM    C8F12304   5.381  -0.143   7.625 -0.1113  0.4204  0.2320
  117OSM    H8F12305   5.463  -0.170   7.555  0.3152  1.9220  0.1073
  117OSM    H8G12306   5.373  -0.228   7.696 -0.4693 -0.3722 -0.7229
  117OSM    C9F12307   5.403  -0.006   7.684 -0.1616  0.5559  0.0148
  117OSM    H9F12308   5.432   0.075   7.615 -1.1960  0.5668 -0.4229
  117OSM   C10F12309   5.382   0.021   7.808 -0.2252  0.3236 -0.3344
  117OSM   H10F12310   5.415   0.122   7.838 -2.2010  0.7313  0.6067
  117OSM   C11F12311   5.337  -0.070   7.916  0.5217 -0.0834  0.2124
  117OSM   H11F12312   5.380  -0.171   7.897 -0.6946 -0.3861 -1.1910
  117OSM   H11G12313   5.227  -0.090   7.916  0.8821 -2.3404  0.4872
  117OSM   C12F12314   5.375  -0.033   8.066 -0.2035 -0.0941 -0.5271
  117OSM   H12F12315   5.337  -0.109   8.137 -0.1293  1.9145  1.7987
  117OSM   H12G12316   5.328   0.067   8.081 -1.0665 -0.8610  2.4072
  117OSM   C13F12317   5.525  -0.017   8.088  0.2639  0.6586  0.0871
  117OSM   H13F12318   5.574   0.044   8.008  1.3936 -0.4538 -0.1021
  117OSM   H13G12319   5.578  -0.115   8.088  1.2437  1.1667  0.2763
  117OSM   C14F12320   5.572   0.046   8.216 -0.5335  0.2588  0.1499
  117OSM   H14F12321   5.524  -0.007   8.302 -1.0931 -1.5351 -1.2143
  117OSM   H14G12322   5.534   0.151   8.221 -1.4741  0.0213 -1.4194
  117OSM   C15F12323   5.726   0.044   8.240 -0.2022 -0.0107 -0.4596
  117OSM   H15F12324   5.767   0.102   8.154 -0.0912  0.3110 -0.1920
  117OSM   H15G12325   5.775  -0.055   8.227  1.0145  0.9288 -4.5055
  117OSM   C16F12326   5.763   0.097   8.374 -0.3920 -0.1573 -0.3797
  117OSM   H16F12327   5.720   0.198   8.395 -0.2477 -0.0973 -0.3680
  117OSM   H16G12328   5.873   0.111   8.386 -0.2823  0.3467 -1.7906
  117OSM   C17F12329   5.719   0.006   8.492  0.4736  0.2256  0.2258
  117OSM   H17F12330   5.608   0.019   8.497  0.1985 -1.1359 -1.5120
  117OSM   H17G12331   5.733  -0.097   8.453  1.3897 -0.1771  1.5493
  117OSM   C18F12332   5.792   0.015   8.623 -0.1727 -0.0195  0.0419
  117OSM   H18F12333   5.896  -0.024   8.617  0.0550  0.6064 -0.2058
  117OSM   H18G12334   5.734  -0.049   8.692 -0.6996 -1.4862 -1.6686
  117OSM   H18H12335   5.794   0.118   8.663  0.2521 -0.0190  0.0301
  118OSM      N12336   4.120   2.951   6.253  0.0040  0.1648 -0.6560
  118OSM    C1512337   4.175   2.850   6.161  0.7418  0.0551  0.0467
  118OSM   H15A12338   4.095   2.787   6.127  0.0722  0.0515  1.5344
  118OSM   H15B12339   4.236   2.775   6.208 -1.5210 -0.0595  3.1009
  118OSM   H15C12340   4.225   2.890   6.074  0.1136  3.0350  0.9210
  118OSM    C1412341   4.072   2.877   6.379 -0.2530  0.0326 -1.2139
  118OSM   H14A12342   4.006   2.932   6.445  1.8308  0.0184  1.0380
  118OSM   H14B12343   4.160   2.854   6.437  0.7277  1.2081 -2.1783
  118OSM   H14C12344   4.023   2.786   6.348  0.7803 -0.7660 -0.5615
  118OSM    C1312345   4.208   3.059   6.283  0.0963  0.3084  0.5012
  118OSM   H13A12346   4.297   3.034   6.338 -1.1716 -1.8083  1.6915
  118OSM   H13B12347   4.153   3.137   6.334 -1.6034 -1.1968  1.0365
  118OSM   H13C12348   4.240   3.102   6.189 -0.0776 -2.1342 -0.7423
  118OSM    C1212349   3.993   2.999   6.186  0.8799 -0.2567  0.5505
  118OSM   H12A12350   3.939   2.909   6.162 -1.4691  1.3471 -0.5604
  118OSM   H12B12351   4.008   3.045   6.089 -1.4040  2.1680  1.2093
  118OSM    C1112352   3.900   3.105   6.254 -0.1519 -0.5215 -0.0484
  118OSM   H11A12353   3.885   3.079   6.360 -0.7530 -0.5998 -0.1493
  118OSM   H11B12354   3.807   3.088   6.195 -0.1212 -0.6947 -0.0470
  118OSM      P12355   3.888   3.371   6.226  0.6839 -0.4355 -0.3948
  118OSM    O1312356   3.983   3.483   6.213 -0.1151  0.2145 -0.2824
  118OSM    O1412357   3.779   3.375   6.125  0.0086 -0.3911  0.2315
  118OSM    O1112358   3.817   3.379   6.365 -0.2881 -0.2057 -0.0525
  118OSM    O1212359   3.958   3.235   6.236  0.1561  0.8647  0.1360
  118OSM    C1S12360   3.883   3.339   6.484  0.2886 -0.2539  0.8436
  118OSM    H1S12361   3.992   3.348   6.466  0.3799 -1.4772  0.7233
  118OSM    H1T12362   3.861   3.232   6.506  2.2196 -0.6002  1.1984
  118OSM     NF12363   3.958   3.413   6.707  0.0953 -0.8324  0.0440
  118OSM    HNF12364   3.963   3.338   6.772  0.2033 -1.2940 -0.4883
  118OSM    C2S12365   3.840   3.425   6.612  0.1049 -0.7657  0.2440
  118OSM    H2S12366   3.842   3.531   6.578  0.4139 -1.4844 -2.1730
  118OSM    C3S12367   3.700   3.392   6.664  0.5947  0.5547 -0.4321
  118OSM    H3S12368   3.693   3.283   6.684 -0.0316  0.2509 -2.1223
  118OSM     O312369   3.595   3.409   6.575 -0.1221  0.1565 -0.2744
  118OSM    HO312370   3.633   3.417   6.488 -0.6178 -1.2126 -0.6378
  118OSM    C4S12371   3.678   3.465   6.798 -0.8800 -0.3751  0.0566
  118OSM    H4S12372   3.733   3.404   6.871  0.2743  0.8649  0.2666
  118OSM    C5S12373   3.609   3.576   6.831 -0.0044  0.0690 -0.3222
  118OSM    H5S12374   3.538   3.611   6.755 -1.0448 -1.8058 -0.2810
  118OSM    C6S12375   3.607   3.645   6.962  0.3434 -0.2119 -0.2246
  118OSM    H6S12376   3.638   3.747   6.930 -0.0289 -0.3387 -1.0109
  118OSM    H6T12377   3.675   3.608   7.042 -1.3232 -2.0316  0.4174
  118OSM    C7S12378   3.470   3.647   7.021  0.2736  0.1181 -0.3316
  118OSM    H7S12379   3.414   3.551   7.024  0.8564 -0.2018  0.7460
  118OSM    H7T12380   3.402   3.708   6.957 -0.3583 -0.5542 -0.3084
  118OSM    C8S12381   3.463   3.706   7.161 -0.6713  0.0662 -1.0917
  118OSM    H8S12382   3.362   3.745   7.187 -0.3773 -0.6777  1.4942
  118OSM    H8T12383   3.533   3.790   7.180  0.0798 -1.1288  2.0212
  118OSM    C9S12384   3.499   3.609   7.270  0.3925  0.2431 -0.2830
  118OSM    H9S12385   3.605   3.577   7.258 -0.0011 -1.5983  0.8023
  118OSM    H9T12386   3.431   3.522   7.257  0.5669 -0.3635  2.3486
  118OSM   C10S12387   3.469   3.656   7.410 -1.2084  0.0717 -0.0606
  118OSM   H10S12388   3.358   3.656   7.416 -1.1679  1.4516  1.5867
  118OSM   H10T12389   3.498   3.763   7.404 -1.6925  0.1151 -2.3997
  118OSM   C11S12390   3.531   3.582   7.529 -0.1311 -0.1805  0.2256
  118OSM   H11S12391   3.642   3.584   7.534 -0.0595 -2.2601  0.1491
  118OSM   H11T12392   3.494   3.478   7.535  1.8021 -0.8967  0.4972
  118OSM   C12S12393   3.486   3.662   7.652 -0.2116 -0.1531  0.0488
  118OSM   H12S12394   3.375   3.662   7.661 -0.3553  1.1720 -1.4304
  118OSM   H12T12395   3.502   3.771   7.639 -1.5040 -0.1911 -2.3739
  118OSM   C13S12396   3.560   3.612   7.777  0.0136  0.2186  0.1121
  118OSM   H13S12397   3.667   3.618   7.750 -0.0827  0.3035 -0.2561
  118OSM   H13T12398   3.541   3.504   7.796 -2.1233  0.5659  0.2172
  118OSM   C14S12399   3.548   3.707   7.900 -0.1610  0.1443  0.4417
  118OSM   H14S12400   3.558   3.813   7.868 -0.2836 -0.1939 -0.7673
  118OSM   H14T12401   3.637   3.680   7.961 -0.0112  0.9701  0.6085
  118OSM   C15S12402   3.418   3.684   7.979  0.0879  0.3562 -0.1816
  118OSM   H15S12403   3.331   3.700   7.913 -1.3658 -2.0858  0.9983
  118OSM   H15T12404   3.412   3.761   8.059 -2.5395  0.1732 -0.1189
  118OSM   C16S12405   3.397   3.543   8.055 -0.0909  0.0335 -0.3016
  118OSM   H16S12406   3.475   3.529   8.133  0.6156  0.0383 -0.9955
  118OSM   H16T12407   3.399   3.458   7.984 -0.1112  0.4102 -0.7635
  118OSM   C17S12408   3.256   3.541   8.122 -0.1394  0.4305 -0.3378
  118OSM   H17S12409   3.183   3.555   8.040 -0.6775 -1.2648 -0.1927
  118OSM   H17T12410   3.251   3.626   8.193  0.5980 -0.0138  0.2653
  118OSM   C18S12411   3.221   3.414   8.200 -0.4689 -0.0297  0.8096
  118OSM   H18S12412   3.125   3.424   8.256 -0.2756 -1.2669  1.3716
  118OSM   H18T12413   3.306   3.379   8.262  1.5037  1.4024 -0.9268
  118OSM   H18U12414   3.207   3.338   8.120  0.2944 -0.2762  0.9067
  118OSM    C1F12415   4.072   3.484   6.682 -0.2002  0.5532 -0.1850
  118OSM     OF12416   4.078   3.558   6.587  1.0905 -0.0958  0.2190
  118OSM    C2F12417   4.196   3.460   6.761 -0.1094 -0.0584  0.4062
  118OSM    H2F12418   4.262   3.393   6.704  0.3710  2.9293 -2.8751
  118OSM    H2G12419   4.177   3.427   6.866  2.4733 -1.3755  0.5302
  118OSM    C3F12420   4.277   3.590   6.768 -0.1088  0.0270  0.4415
  118OSM    H3F12421   4.219   3.685   6.760 -1.3634 -0.7670 -0.2855
  118OSM    H3G12422   4.335   3.587   6.674 -1.0269 -0.2324 -0.1309
  118OSM    C4F12423   4.378   3.600   6.885  0.2865  0.3717  0.1700
  118OSM    H4F12424   4.459   3.673   6.866  1.4726 -0.8891  0.1924
  118OSM    H4G12425   4.434   3.507   6.908  1.2330  1.3352  1.9635
  118OSM    C5F12426   4.306   3.644   7.009 -0.6326 -0.6435  0.4052
  118OSM    H5F12427   4.233   3.569   7.047  0.4344 -2.3437 -0.7591
  118OSM    H5G12428   4.245   3.731   6.977  1.1321  0.0054 -1.4093
  118OSM    C6F12429   4.407   3.677   7.119 -0.5073  0.0831 -0.5075
  118OSM    H6F12430   4.489   3.745   7.090 -0.2597 -0.4619 -1.1219
  118OSM    H6G12431   4.463   3.587   7.152  1.3444  1.2505 -0.3574
  118OSM    C7F12432   4.327   3.747   7.235  0.1950  0.3401 -0.0573
  118OSM    H7F12433   4.233   3.693   7.256  0.1550 -0.6907 -2.4667
  118OSM    H7G12434   4.300   3.845   7.190  1.0292  0.7980  0.4049
  118OSM    C8F12435   4.414   3.777   7.355 -0.3523  0.3913 -0.6275
  118OSM    H8F12436   4.508   3.823   7.317 -1.7232  2.8331 -1.2453
  118OSM    H8G12437   4.433   3.684   7.413 -0.9706  0.5723 -0.1267
  118OSM    C9F12438   4.350   3.881   7.438  0.3410  0.2404 -0.2058
  118OSM    H9F12439   4.248   3.913   7.415  0.7301  2.8878  1.2530
  118OSM   C10F12440   4.401   3.931   7.555  0.3374 -0.1782 -0.1758
  118OSM   H10F12441   4.330   3.993   7.612 -1.2682 -1.3655 -0.8039
  118OSM   C11F12442   4.527   3.899   7.630 -0.2713 -0.1097 -0.5429
  118OSM   H11F12443   4.574   3.997   7.649  0.3807 -0.3826 -0.7332
  118OSM   H11G12444   4.600   3.838   7.573  0.2123 -1.4602  1.4203
  118OSM   C12F12445   4.509   3.831   7.758  0.2090 -0.3451 -0.3657
  118OSM   H12F12446   4.606   3.793   7.797  1.2143  0.6387 -1.7952
  118OSM   H12G12447   4.449   3.738   7.746 -3.4656  1.7214  0.6331
  118OSM   C13F12448   4.445   3.914   7.865  1.1918 -0.1367  0.8612
  118OSM   H13F12449   4.342   3.940   7.833  1.1572 -0.1499  0.9609
  118OSM   H13G12450   4.495   4.013   7.870  2.2354 -0.4809 -1.4263
  118OSM   C14F12451   4.443   3.850   8.003 -1.0317  1.1038 -0.0527
  118OSM   H14F12452   4.547   3.833   8.040 -0.9866 -0.6307 -0.8973
  118OSM   H14G12453   4.403   3.747   8.002  0.9630  0.2617  0.6979
  118OSM   C15F12454   4.359   3.933   8.097  1.0861  0.0199  0.4142
  118OSM   H15F12455   4.249   3.929   8.081  0.2688 -1.4227  4.8564
  118OSM   H15G12456   4.398   4.036   8.080 -0.6555  1.0313  2.0310
  118OSM   C16F12457   4.370   3.893   8.242  0.1049  0.4075 -0.4373
  118OSM   H16F12458   4.475   3.889   8.278 -0.0930  0.1616  0.1170
  118OSM   H16G12459   4.334   3.788   8.248  2.4813 -0.4054  0.6157
  118OSM   C17F12460   4.280   3.980   8.332  0.2037  0.2407 -0.1514
  118OSM   H17F12461   4.208   4.037   8.269 -0.2270  0.8818  0.8967
  118OSM   H17G12462   4.335   4.058   8.388  1.5809  1.3517 -2.8786
  118OSM   C18F12463   4.204   3.888   8.429  0.0905  0.0946  0.0277
  118OSM   H18F12464   4.266   3.820   8.491 -0.0701  0.8452  1.0576
  118OSM   H18G12465   4.112   3.847   8.384 -1.9083  1.4897  2.5359
  118OSM   H18H12466   4.152   3.954   8.502 -1.4533  0.9532 -1.7843
  119OSM      N12467   3.739   1.677   5.682 -0.4380  0.1885 -1.0088
  119OSM    C1512468   3.628   1.756   5.737  0.1686  0.0937  0.6824
  119OSM   H15A12469   3.539   1.757   5.676  1.1301  2.0131 -0.8023
  119OSM   H15B12470   3.671   1.854   5.750  1.5657 -0.5202  0.9193
  119OSM   H15C12471   3.606   1.728   5.839 -2.8260 -0.9257 -0.1409
  119OSM    C1412472   3.696   1.543   5.643 -0.8947  1.2651 -0.1581
  119OSM   H14A12473   3.609   1.544   5.579 -0.1635 -3.2203 -1.5336
  119OSM   H14B12474   3.656   1.494   5.731 -0.1515 -1.0738 -1.0535
  119OSM   H14C12475   3.777   1.483   5.604 -1.1858 -0.1659  1.3133
  119OSM    C1312476   3.808   1.733   5.565  0.4218  0.5063 -0.1294
  119OSM   H13A12477   3.825   1.837   5.591  1.2337  0.7348 -1.4870
  119OSM   H13B12478   3.736   1.721   5.486  0.0123  0.8695  0.1876
  119OSM   H13C12479   3.899   1.681   5.538 -1.2839 -2.2477 -0.9695
  119OSM    C1212480   3.840   1.649   5.793 -0.4758 -0.0813  0.1578
  119OSM   H12A12481   3.907   1.570   5.762 -2.3122 -2.0095  0.8832
  119OSM   H12B12482   3.794   1.602   5.878  1.4589  0.1960  1.4245
  119OSM    C1112483   3.911   1.777   5.842 -0.1691 -0.3754 -0.4892
  119OSM   H11A12484   3.941   1.838   5.754 -2.1584 -0.7477 -1.4833
  119OSM   H11B12485   4.005   1.756   5.897 -0.9248 -1.6383  0.3685
  119OSM      P12486   3.857   2.023   5.931 -0.5273  0.2000 -0.4468
  119OSM    O1312487   4.003   2.044   5.919 -0.1024 -0.1445  0.0167
  119OSM    O1412488   3.756   2.092   5.842 -0.2978 -0.0117 -0.6299
  119OSM    O1112489   3.824   2.047   6.080  0.5236  0.2207 -0.1928
  119OSM    O1212490   3.824   1.864   5.917  0.1429  0.1483  0.1221
  119OSM    C1S12491   3.792   1.937   6.171  0.0617 -0.1507 -0.3738
  119OSM    H1S12492   3.877   1.866   6.175 -0.3709 -0.6514  0.2481
  119OSM    H1T12493   3.693   1.889   6.153 -0.2997  0.1355  0.7786
  119OSM     NF12494   3.749   1.884   6.416  0.4151 -0.6938 -0.4196
  119OSM    HNF12495   3.674   1.891   6.481  0.1251 -1.6636 -0.6319
  119OSM    C2S12496   3.780   1.985   6.325  0.6010 -0.8270  0.3156
  119OSM    H2S12497   3.871   2.036   6.361  0.4645  0.0102 -0.5016
  119OSM    C3S12498   3.685   2.115   6.342  0.2421 -0.3064  0.1111
  119OSM    H3S12499   3.585   2.067   6.333  0.3182 -0.1848 -1.8110
  119OSM     O312500   3.705   2.214   6.238 -0.4902  0.6198  0.0308
  119OSM    HO312501   3.775   2.189   6.177 -0.0527  3.8493 -0.9966
  119OSM    C4S12502   3.686   2.177   6.481 -1.0736  0.6536  0.4013
  119OSM    H4S12503   3.634   2.108   6.549  0.8256 -1.6677 -0.3674
  119OSM    C5S12504   3.756   2.283   6.523  0.6795  0.1331 -0.1221
  119OSM    H5S12505   3.811   2.346   6.452  0.0939  2.8886  1.7421
  119OSM    C6S12506   3.779   2.324   6.664  0.1600 -0.5996 -0.2830
  119OSM    H6S12507   3.800   2.432   6.672 -0.5917 -0.4216 -0.6564
  119OSM    H6T12508   3.878   2.286   6.697 -0.6356 -2.1419  0.4624
  119OSM    C7S12509   3.672   2.275   6.770 -0.0817  0.5604  0.2756
  119OSM    H7S12510   3.662   2.165   6.775  0.4998  0.4177 -1.2116
  119OSM    H7T12511   3.572   2.320   6.753 -0.9533 -0.7436  1.6036
  119OSM    C8S12512   3.717   2.321   6.903 -0.1238 -0.2420 -0.2301
  119OSM    H8S12513   3.718   2.432   6.910  0.2524 -0.2671  0.1387
  119OSM    H8T12514   3.821   2.287   6.923 -0.0664 -1.8620 -2.8645
  119OSM    C9S12515   3.624   2.263   7.015  0.0900 -0.0019  0.2166
  119OSM    H9S12516   3.605   2.154   7.000  0.4625  0.1852 -1.9573
  119OSM    H9T12517   3.522   2.305   7.001 -0.5249 -0.4941  2.6880
  119OSM   C10S12518   3.654   2.288   7.156 -0.6182  0.5391 -0.3367
  119OSM   H10S12519   3.564   2.299   7.220 -0.8645  0.6151 -0.6931
  119OSM   H10T12520   3.700   2.389   7.157  0.9307 -0.1356  0.8034
  119OSM   C11S12521   3.759   2.201   7.219  0.0217 -0.3975  0.4007
  119OSM   H11S12522   3.854   2.206   7.162  0.5282  2.1853  1.3667
  119OSM   H11T12523   3.717   2.098   7.218  1.7674 -1.1546 -0.1902
  119OSM   C12S12524   3.784   2.225   7.366 -0.9776 -0.4457 -0.2879
  119OSM   H12S12525   3.808   2.331   7.393 -1.3876 -0.1214 -1.1654
  119OSM   H12T12526   3.880   2.172   7.386 -1.6248 -2.1951 -1.6596
  119OSM   C13S12527   3.676   2.173   7.463  0.6218  0.5215  0.6182
  119OSM   H13S12528   3.656   2.068   7.431  2.6219 -0.0560  1.1220
  119OSM   H13T12529   3.587   2.239   7.465 -0.3069 -0.5376 -2.0381
  119OSM   C14S12530   3.726   2.160   7.603 -0.3014 -0.0890 -0.8406
  119OSM   H14S12531   3.765   2.258   7.637 -2.2777 -0.1766  2.0023
  119OSM   H14T12532   3.812   2.090   7.612  0.1743  0.5190 -0.5585
  119OSM   C15S12533   3.614   2.099   7.685  0.1433 -0.0568 -0.3153
  119OSM   H15S12534   3.645   2.029   7.766 -0.5403 -0.4351 -0.3749
  119OSM   H15T12535   3.552   2.027   7.626  2.3386 -1.8355 -0.6180
  119OSM   C16S12536   3.522   2.214   7.743 -0.3926 -0.4599  0.1557
  119OSM   H16S12537   3.482   2.283   7.666  0.0385 -1.0320 -0.6020
  119OSM   H16T12538   3.589   2.261   7.818 -0.9792 -2.8861  2.3448
  119OSM   C17S12539   3.406   2.162   7.827 -0.3086 -0.7553  0.0502
  119OSM   H17S12540   3.380   2.246   7.894  2.4488  1.7804 -1.7891
  119OSM   H17T12541   3.450   2.078   7.885  1.0217 -0.1577 -0.0430
  119OSM   C18S12542   3.293   2.114   7.742  0.7292 -0.5781  0.3517
  119OSM   H18S12543   3.285   2.181   7.654  0.9993 -0.4268  0.4400
  119OSM   H18T12544   3.206   2.123   7.810  0.4797  2.2416 -0.2234
  119OSM   H18U12545   3.311   2.010   7.705 -1.0860 -1.2015  1.1228
  119OSM    C1F12546   3.810   1.766   6.439  0.0005 -0.9749 -0.0880
  119OSM     OF12547   3.906   1.729   6.368  0.2664  0.1752 -0.0543
  119OSM    C2F12548   3.760   1.679   6.554 -1.0491 -0.1605 -0.0737
  119OSM    H2F12549   3.663   1.633   6.524 -0.8739  0.2012 -1.2289
  119OSM    H2G12550   3.748   1.738   6.648 -2.8978 -0.7662  0.1191
  119OSM    C3F12551   3.866   1.560   6.580  0.1053  0.1063  0.1202
  119OSM    H3F12552   3.962   1.612   6.601 -1.3162  2.9924 -0.0732
  119OSM    H3G12553   3.885   1.496   6.490 -0.3628 -0.2805  0.2925
  119OSM    C4F12554   3.836   1.463   6.703 -0.8912 -0.3071  0.7702
  119OSM    H4F12555   3.744   1.402   6.695 -0.7087 -0.5508  0.5248
  119OSM    H4G12556   3.830   1.517   6.801  0.0197 -0.8724  1.1566
  119OSM    C5F12557   3.948   1.358   6.735  0.5566 -0.6589  0.3550
  119OSM    H5F12558   4.049   1.405   6.736 -0.6934  2.2836  1.0668
  119OSM    H5G12559   3.958   1.286   6.651  2.0251  0.3755 -0.4032
  119OSM    C6F12560   3.920   1.265   6.855 -0.4215  0.1108 -1.0747
  119OSM    H6F12561   3.979   1.173   6.838  1.3493  1.1316 -0.6214
  119OSM    H6G12562   3.814   1.231   6.849 -0.4530  0.2765 -1.4597
  119OSM    C7F12563   3.963   1.327   6.992 -0.0810  0.8558  0.2956
  119OSM    H7F12564   3.880   1.398   7.008 -0.6463  0.5654 -1.1779
  119OSM    H7G12565   4.052   1.394   6.992  1.2200 -0.7488 -1.2942
  119OSM    C8F12566   3.976   1.245   7.118  0.5612 -0.1192 -0.0791
  119OSM    H8F12567   3.891   1.174   7.130  0.0967  0.3776 -0.4077
  119OSM    H8G12568   3.980   1.310   7.208  0.3042 -0.2773  0.0464
  119OSM    C9F12569   4.098   1.162   7.108 -0.3107 -0.1375 -0.1412
  119OSM    H9F12570   4.127   1.138   7.004 -0.6801  0.7896 -0.4658
  119OSM   C10F12571   4.164   1.109   7.219  0.0507 -0.7152  0.5170
  119OSM   H10F12572   4.262   1.060   7.209  1.1982  1.3901  0.6810
  119OSM   C11F12573   4.123   1.125   7.361  1.0011  1.3718 -0.4302
  119OSM   H11F12574   4.152   1.035   7.418 -1.7771  0.7649  0.2032
  119OSM   H11G12575   4.012   1.129   7.372  0.8617 -0.2201 -1.0365
  119OSM   C12F12576   4.175   1.249   7.441 -0.0386 -0.6033 -1.1264
  119OSM   H12F12577   4.161   1.344   7.385 -0.0547  0.3095  0.3900
  119OSM   H12G12578   4.279   1.230   7.475 -0.5704  0.6983  1.4698
  119OSM   C13F12579   4.104   1.274   7.575 -0.1506  0.3485 -0.1491
  119OSM   H13F12580   3.994   1.269   7.558  0.3137 -1.1269 -3.2434
  119OSM   H13G12581   4.135   1.370   7.623  0.0340 -0.0777  0.6013
  119OSM   C14F12582   4.137   1.167   7.685  0.0421 -0.1091  0.2647
  119OSM   H14F12583   4.247   1.170   7.701  0.3019  1.4241 -1.5096
  119OSM   H14G12584   4.105   1.068   7.645 -0.2283  0.3530 -0.6911
  119OSM   C15F12585   4.063   1.185   7.812  0.9163 -0.1206 -0.1540
  119OSM   H15F12586   3.955   1.173   7.788  0.6227  1.2265  0.3784
  119OSM   H15G12587   4.078   1.289   7.850  0.6202  0.0140 -0.3961
  119OSM   C16F12588   4.095   1.081   7.917 -0.7506  0.1796 -0.7573
  119OSM   H16F12589   4.107   0.983   7.865 -3.0425 -0.6651  0.1698
  119OSM   H16G12590   4.009   1.062   7.985  0.2570 -1.1003  0.2171
  119OSM   C17F12591   4.212   1.134   8.005 -0.3648  0.0701 -0.3465
  119OSM   H17F12592   4.164   1.219   8.057  1.7513  0.4851  1.0325
  119OSM   H17G12593   4.292   1.180   7.943 -0.6254  0.9003 -0.0734
  119OSM   C18F12594   4.260   1.024   8.101 -0.8058  0.4309 -0.9384
  119OSM   H18F12595   4.290   0.945   8.029 -3.3383  0.1586 -1.8077
  119OSM   H18G12596   4.177   0.993   8.168 -1.1910  2.2617 -0.5251
  119OSM   H18H12597   4.343   1.045   8.172 -1.2531  3.2056 -1.1514
  120OSM      N12598   6.163   0.120   5.892  0.2740 -0.3315 -0.0450
  120OSM    C1512599   6.136   0.201   5.765 -0.4201 -0.2554 -0.7982
  120OSM   H15A12600   6.106   0.303   5.780  1.6840  0.8803 -3.3466
  120OSM   H15B12601   6.068   0.164   5.689 -1.2207  0.1415 -0.2814
  120OSM   H15C12602   6.228   0.206   5.709  0.1422 -0.6048  0.0707
  120OSM    C1412603   6.228  -0.004   5.855  1.1782 -0.1343 -0.1140
  120OSM   H14A12604   6.203  -0.030   5.753  0.2530  0.7814 -0.1364
  120OSM   H14B12605   6.195  -0.082   5.922  0.3718 -0.6261 -1.0447
  120OSM   H14C12606   6.336  -0.001   5.855  1.1687  3.3053  0.3308
  120OSM    C1312607   6.252   0.203   5.980 -0.4849 -0.0181 -0.6027
  120OSM   H13A12608   6.211   0.303   5.994 -3.3450 -1.4458  3.1860
  120OSM   H13B12609   6.351   0.201   5.937  0.0869 -0.0759  0.6770
  120OSM   H13C12610   6.256   0.159   6.079  2.1381 -0.0371 -0.6598
  120OSM    C1212611   6.022   0.093   5.950  0.0801 -0.3699 -0.0756
  120OSM   H12A12612   5.961   0.050   5.871  0.7697  1.7509 -1.8752
  120OSM   H12B12613   5.971   0.186   5.968  1.8994  1.0886 -1.9979
  120OSM    C1112614   6.019   0.003   6.075 -0.0566 -0.9683  0.2194
  120OSM   H11A12615   6.075  -0.084   6.035 -1.9325 -0.8694 -2.9791
  120OSM   H11B12616   5.916  -0.038   6.084 -0.0549 -0.7418  1.5223
  120OSM      P12617   6.147  -0.013   6.292  0.0634  0.2211 -0.8365
  120OSM    O1312618   6.058  -0.012   6.418 -0.5901  0.2700  0.8569
  120OSM    O1412619   6.202  -0.143   6.247 -0.2706 -0.1726  0.1710
  120OSM    O1112620   6.266   0.081   6.314  0.1182 -0.1499  0.0614
  120OSM    O1212621   6.064   0.067   6.190 -0.1238 -0.3860 -0.2220
  120OSM    C1S12622   6.259   0.228   6.325  0.6618 -0.3781  0.4826
  120OSM    H1S12623   6.171   0.266   6.270 -0.9756 -1.2317  2.3995
  120OSM    H1T12624   6.356   0.278   6.305 -0.3131  1.1664 -0.6150
  120OSM     NF12625   6.206   0.416   6.489 -1.0424 -0.2259 -0.6153
  120OSM    HNF12626   6.280   0.481   6.508 -0.2553 -1.7652  2.2842
  120OSM    C2S12627   6.247   0.276   6.476 -0.3138 -0.7343  0.2644
  120OSM    H2S12628   6.168   0.215   6.524 -3.0725  1.5282 -1.1194
  120OSM    C3S12629   6.378   0.249   6.548  0.1032 -0.0684  0.1824
  120OSM    H3S12630   6.452   0.318   6.502 -0.2253  1.6505  2.0936
  120OSM     O312631   6.421   0.115   6.539 -0.1643  0.3677  0.3342
  120OSM    HO312632   6.387   0.088   6.453  0.1499 -2.7828  1.1007
  120OSM    C4S12633   6.371   0.298   6.687  0.3364 -0.0840 -0.6032
  120OSM    H4S12634   6.413   0.399   6.695  0.2685 -0.1931  1.8038
  120OSM    C5S12635   6.327   0.231   6.794  0.4837  0.4738 -0.8036
  120OSM    H5S12636   6.303   0.124   6.780 -0.2622  0.6006 -0.5484
  120OSM    C6S12637   6.324   0.281   6.932  0.0093  0.4673 -0.3830
  120OSM    H6S12638   6.380   0.376   6.941  2.7609 -1.2411  1.9711
  120OSM    H6T12639   6.378   0.211   6.999 -1.3346 -1.4624 -1.1777
  120OSM    C7S12640   6.173   0.300   6.972 -0.1571  0.7868 -0.3985
  120OSM    H7S12641   6.114   0.206   6.983 -0.3118  1.0508  1.2962
  120OSM    H7T12642   6.125   0.364   6.895  1.1874  1.3109 -0.8353
  120OSM    C8S12643   6.170   0.379   7.105  0.1898  0.5177  0.2488
  120OSM    H8S12644   6.063   0.405   7.121  0.3559  0.9941  0.6303
  120OSM    H8T12645   6.219   0.475   7.078  1.8906 -1.5160 -5.4338
  120OSM    C9S12646   6.231   0.307   7.223  0.4117  0.2982 -0.2526
  120OSM    H9S12647   6.338   0.284   7.206  0.5444  0.3678  0.4547
  120OSM    H9T12648   6.184   0.207   7.236 -2.6084  1.8353  1.9601
  120OSM   C10S12649   6.231   0.390   7.356  0.1383 -0.2728 -0.2343
  120OSM   H10S12650   6.136   0.444   7.371  0.9403  2.0026 -2.5243
  120OSM   H10T12651   6.306   0.471   7.345  0.0942 -0.1864  0.1093
  120OSM   C11S12652   6.284   0.312   7.477 -0.4096  0.6165 -0.2160
  120OSM   H11S12653   6.392   0.286   7.463 -0.2598  1.7231 -1.2387
  120OSM   H11T12654   6.235   0.212   7.479  1.2787 -0.3133  3.0599
  120OSM   C12S12655   6.265   0.386   7.612  0.2514  0.0948  0.2141
  120OSM   H12S12656   6.158   0.382   7.640  0.2099 -3.2817  0.0064
  120OSM   H12T12657   6.297   0.491   7.596 -0.5247  0.3276  0.1692
  120OSM   C13S12658   6.344   0.335   7.737 -0.0537  0.3175  0.1262
  120OSM   H13S12659   6.452   0.344   7.713 -0.5617  2.2092 -1.7276
  120OSM   H13T12660   6.316   0.229   7.752 -1.5637  0.3659 -2.0243
  120OSM   C14S12661   6.300   0.409   7.867 -0.0561 -0.4203 -0.2181
  120OSM   H14S12662   6.192   0.400   7.888 -0.1490 -0.4294 -0.6867
  120OSM   H14T12663   6.316   0.519   7.860 -1.7720 -0.1998 -1.0864
  120OSM   C15S12664   6.376   0.370   7.995 -0.0313  0.1888 -0.0659
  120OSM   H15S12665   6.476   0.418   7.983 -0.1382 -0.0956 -2.6826
  120OSM   H15T12666   6.396   0.261   7.982  0.3266  0.4697 -2.2709
  120OSM   C16S12667   6.303   0.413   8.114 -0.1810 -0.4049  0.3659
  120OSM   H16S12668   6.217   0.343   8.107 -2.7635  2.4126  1.7871
  120OSM   H16T12669   6.260   0.515   8.104 -0.5494 -0.3649  2.0916
  120OSM   C17S12670   6.378   0.397   8.243 -0.1076  0.3416  0.2801
  120OSM   H17S12671   6.422   0.295   8.247  2.2339  1.1654 -1.9241
  120OSM   H17T12672   6.312   0.410   8.332 -3.8472 -0.1418 -2.2324
  120OSM   C18S12673   6.502   0.492   8.254 -0.4821  0.8847 -0.4892
  120OSM   H18S12674   6.556   0.469   8.348 -0.5725 -0.2292 -0.6887
  120OSM   H18T12675   6.467   0.597   8.250 -1.7758  0.4424 -2.8512
  120OSM   H18U12676   6.578   0.481   8.174 -0.3441  0.9026 -0.3608
  120OSM    C1F12677   6.083   0.456   6.455  0.3382  0.4038  0.2534
  120OSM     OF12678   6.010   0.362   6.421  0.1020 -0.1557 -0.5060
  120OSM    C2F12679   6.052   0.605   6.451  0.5136  0.5301 -0.2121
  120OSM    H2F12680   6.031   0.639   6.348 -0.8886  2.8765  0.7641
  120OSM    H2G12681   6.135   0.673   6.478  0.2630  1.1591 -0.9828
  120OSM    C3F12682   5.929   0.641   6.523 -0.2231 -0.0817 -0.4163
  120OSM    H3F12683   5.847   0.571   6.494 -0.0276 -1.6334  2.4003
  120OSM    H3G12684   5.911   0.748   6.500 -0.8195  0.1611  1.0562
  120OSM    C4F12685   5.929   0.622   6.678 -0.2016  0.4685 -0.5833
  120OSM    H4F12686   5.942   0.521   6.722 -3.6271  0.0988 -0.1589
  120OSM    H4G12687   5.837   0.665   6.723 -0.1576  0.4080 -0.4345
  120OSM    C5F12688   6.042   0.703   6.741  0.0599 -0.2024  0.0134
  120OSM    H5F12689   6.041   0.808   6.704 -2.4438 -0.3066 -0.3883
  120OSM    H5G12690   6.138   0.650   6.724  0.8313  1.0688  0.2246
  120OSM    C6F12691   6.042   0.702   6.891 -0.4908 -0.1720  0.8337
  120OSM    H6F12692   6.135   0.751   6.928 -1.4241  1.1291  1.5485
  120OSM    H6G12693   6.058   0.595   6.914  1.1629 -0.0626  0.3534
  120OSM    C7F12694   5.935   0.773   6.977 -0.6392 -0.1197  0.4767
  120OSM    H7F12695   5.839   0.718   6.983 -0.5167 -0.4415 -0.4260
  120OSM    H7G12696   5.915   0.869   6.926  0.8871  0.9213  1.7134
  120OSM    C8F12697   5.984   0.811   7.117 -0.3714 -0.5815  0.1044
  120OSM    H8F12698   5.915   0.889   7.157 -0.3043  0.6833 -2.0586
  120OSM    H8G12699   6.083   0.862   7.111 -0.2250 -0.4153  2.6210
  120OSM    C9F12700   5.984   0.711   7.230 -0.5213 -0.3207  0.5034
  120OSM    H9F12701   5.976   0.606   7.197  0.1526  0.3533 -2.0595
  120OSM   C10F12702   6.009   0.736   7.361  0.1044 -0.1178  0.2821
  120OSM   H10F12703   6.003   0.648   7.425 -3.1446  0.1617  0.5723
  120OSM   C11F12704   6.032   0.867   7.434  0.3934 -0.4735 -0.3793
  120OSM   H11F12705   5.933   0.900   7.473  0.8604  0.6880 -0.1190
  120OSM   H11G12706   6.055   0.953   7.367 -0.2973  1.2149  1.4347
  120OSM   C12F12707   6.132   0.847   7.544 -0.2758  0.0059 -0.0675
  120OSM   H12F12708   6.225   0.797   7.510  0.7374  2.7668 -1.6531
  120OSM   H12G12709   6.078   0.786   7.620 -0.5260 -2.2141 -1.9226
  120OSM   C13F12710   6.171   0.981   7.618  0.0723  0.1659 -0.7428
  120OSM   H13F12711   6.090   1.016   7.686  1.3377  0.0184  0.9112
  120OSM   H13G12712   6.203   1.059   7.546 -1.0300  2.1693  0.8546
  120OSM   C14F12713   6.295   0.969   7.705  0.8457 -0.2284  0.5316
  120OSM   H14F12714   6.320   1.067   7.750  0.3417 -0.6129  1.6795
  120OSM   H14G12715   6.381   0.943   7.639  0.2349 -0.9457  0.0036
  120OSM   C15F12716   6.286   0.869   7.820  0.7336  0.1528 -0.1294
  120OSM   H15F12717   6.367   0.870   7.897  0.7791 -0.6941 -0.1543
  120OSM   H15G12718   6.286   0.767   7.776 -0.6765 -0.1598  0.5511
  120OSM   C16F12719   6.161   0.892   7.913 -0.1503 -0.5563 -0.4311
  120OSM   H16F12720   6.069   0.870   7.856 -0.5403 -0.5932  0.2059
  120OSM   H16G12721   6.154   0.994   7.956  2.3208 -1.3880  2.2859
  120OSM   C17F12722   6.155   0.792   8.030  0.5784 -0.0973 -0.1061
  120OSM   H17F12723   6.258   0.782   8.071  1.7408  3.6715 -1.6424
  120OSM   H17G12724   6.128   0.691   7.995 -0.5340  0.2727 -0.3292
  120OSM   C18F12725   6.065   0.838   8.149 -0.4590 -0.0621  0.0944
  120OSM   H18F12726   6.057   0.949   8.158  0.9726  0.3474 -2.6851
  120OSM   H18G12727   6.101   0.784   8.239 -0.9473 -0.0426  0.3046
  120OSM   H18H12728   5.957   0.813   8.141 -0.8732  1.8129 -0.6422
  121OSM      N12729   3.202   2.000   5.794 -0.2089  0.1763 -0.1049
  121OSM    C1512730   3.268   2.043   5.667 -0.6565 -0.0229 -0.1273
  121OSM   H15A12731   3.356   1.983   5.647  0.8166  1.6108  1.0799
  121OSM   H15B12732   3.321   2.136   5.681 -1.5851  0.5800 -0.5643
  121OSM   H15C12733   3.210   2.048   5.576 -0.8840 -0.2488  0.0027
  121OSM    C1412734   3.064   2.055   5.798  0.4216 -0.1499 -0.1556
  121OSM   H14A12735   3.004   2.015   5.717  0.4715 -0.6669  0.0604
  121OSM   H14B12736   3.058   2.162   5.784 -2.0166 -0.3880 -1.4804
  121OSM   H14C12737   3.010   2.034   5.889 -0.3873  0.1257 -0.5678
  121OSM    C1312738   3.183   1.847   5.785 -0.3146 -0.2447 -0.3214
  121OSM   H13A12739   3.126   1.823   5.696  0.3095 -0.7977 -0.5791
  121OSM   H13B12740   3.128   1.800   5.865  0.8101 -2.9120 -0.9989
  121OSM   H13C12741   3.277   1.794   5.781 -0.7592 -1.1714  0.8778
  121OSM    C1212742   3.273   2.035   5.923 -0.3011 -0.4813  0.3763
  121OSM   H12A12743   3.228   1.991   6.010  0.2623  0.3572  1.1083
  121OSM   H12B12744   3.272   2.143   5.928 -0.6453 -0.3656 -1.4875
  121OSM    C1112745   3.428   1.990   5.936  0.3430 -0.3265 -0.0073
  121OSM   H11A12746   3.478   2.035   6.024 -2.3882  1.5444  0.7030
  121OSM   H11B12747   3.474   2.031   5.843 -1.1256 -1.1298 -1.1447
  121OSM      P12748   3.418   1.760   6.064 -0.5196 -0.2701 -0.0909
  121OSM    O1312749   3.295   1.680   6.050  0.1690  0.2867 -0.7000
  121OSM    O1412750   3.532   1.681   6.099 -0.8315  0.7332 -0.8684
  121OSM    O1112751   3.405   1.866   6.173  0.7333  0.6029 -0.7362
  121OSM    O1212752   3.437   1.854   5.935 -0.6003  0.7226  1.3929
  121OSM    C1S12753   3.364   1.815   6.304 -0.0938 -0.3680 -0.4063
  121OSM    H1S12754   3.443   1.752   6.351 -2.2940 -0.2076  3.9756
  121OSM    H1T12755   3.266   1.762   6.298 -0.4175  0.3814 -2.4879
  121OSM     NF12756   3.304   1.889   6.536  0.3856  0.1307 -0.6369
  121OSM    HNF12757   3.208   1.888   6.566  1.0619 -1.1238  1.7558
  121OSM    C2S12758   3.338   1.931   6.407 -0.3186 -0.5071  0.3579
  121OSM    H2S12759   3.433   1.990   6.411 -0.4490 -0.2827  0.1864
  121OSM    C3S12760   3.223   2.021   6.345 -0.3870 -0.3202  0.5066
  121OSM    H3S12761   3.129   1.965   6.322  0.1460 -0.9507 -0.2007
  121OSM     O312762   3.256   2.087   6.216 -0.3449 -0.3874 -0.0469
  121OSM    HO312763   3.348   2.064   6.202  0.0767  1.8594 -1.5535
  121OSM    C4S12764   3.190   2.132   6.448 -0.0914  0.0672  0.4909
  121OSM    H4S12765   3.109   2.109   6.518  0.0021  1.7914  1.2022
  121OSM    C5S12766   3.260   2.252   6.465  0.1659  0.0796  0.2969
  121OSM    H5S12767   3.344   2.274   6.396  1.6038  0.0658  1.9726
  121OSM    C6S12768   3.232   2.348   6.576 -0.4755 -0.7517  0.5090
  121OSM    H6S12769   3.179   2.434   6.531 -0.6941  0.2660  2.5953
  121OSM    H6T12770   3.329   2.386   6.616 -1.3642 -1.0861  3.1899
  121OSM    C7S12771   3.141   2.309   6.689  0.2690 -0.3118 -0.5016
  121OSM    H7S12772   3.196   2.243   6.758  1.6555 -0.1772 -1.4406
  121OSM    H7T12773   3.054   2.251   6.653  0.3124 -0.2273 -0.7430
  121OSM    C8S12774   3.094   2.438   6.771 -0.4289  0.2897 -0.4701
  121OSM    H8S12775   3.030   2.499   6.704 -0.5659  1.5474  0.7668
  121OSM    H8T12776   3.181   2.506   6.781 -1.1470  1.4281 -1.5760
  121OSM    C9S12777   3.023   2.397   6.901 -0.3479  0.2730 -0.6942
  121OSM    H9S12778   2.944   2.320   6.888  0.2471 -0.3316 -0.8241
  121OSM    H9T12779   2.971   2.481   6.951 -2.8326 -1.4631 -0.1777
  121OSM   C10S12780   3.129   2.341   6.996  0.9609 -0.1561 -0.3949
  121OSM   H10S12781   3.226   2.392   6.978  0.4868  0.5809 -0.9454
  121OSM   H10T12782   3.131   2.234   6.967  1.6176 -0.0565 -0.7183
  121OSM   C11S12783   3.102   2.370   7.142  0.4494  0.0233 -0.3605
  121OSM   H11S12784   3.004   2.329   7.175  0.7774 -0.2888  0.2493
  121OSM   H11T12785   3.096   2.481   7.153 -0.9123 -0.1441  1.2068
  121OSM   C12S12786   3.205   2.306   7.229  0.1789  0.4833 -0.3067
  121OSM   H12S12787   3.302   2.361   7.229 -0.0510  1.0905  3.1280
  121OSM   H12T12788   3.233   2.201   7.208  0.5505  0.3329  0.8886
  121OSM   C13S12789   3.166   2.311   7.378  0.3606  0.8028  0.1966
  121OSM   H13S12790   3.246   2.259   7.436  0.6673  0.4736 -0.5112
  121OSM   H13T12791   3.074   2.252   7.397  0.7665  0.3847  0.9152
  121OSM   C14S12792   3.150   2.453   7.426  0.4219  0.0209  0.9473
  121OSM   H14S12793   3.054   2.490   7.384  0.0417 -3.1936 -1.4686
  121OSM   H14T12794   3.228   2.522   7.388 -0.9243  0.6549 -0.8076
  121OSM   C15S12795   3.150   2.465   7.585 -0.0257  0.2711  0.2853
  121OSM   H15S12796   3.126   2.572   7.606 -1.5721  0.1451 -0.6538
  121OSM   H15T12797   3.249   2.437   7.627  0.3759 -0.1592 -0.8965
  121OSM   C16S12798   3.034   2.378   7.653 -0.8293  1.0154  0.3112
  121OSM   H16S12799   3.084   2.278   7.646 -0.9734  0.9591  0.0924
  121OSM   H16T12800   2.939   2.392   7.597 -1.1356 -0.4249  0.4257
  121OSM   C17S12801   3.019   2.415   7.806 -0.0131 -0.0278  0.5597
  121OSM   H17S12802   3.008   2.525   7.819 -1.6302 -0.4355  3.3739
  121OSM   H17T12803   3.113   2.375   7.849  0.1851  1.1410  1.2343
  121OSM   C18S12804   2.899   2.341   7.865 -0.1719  0.0394  0.4967
  121OSM   H18S12805   2.900   2.340   7.977  0.4102  0.8747  0.5084
  121OSM   H18T12806   2.897   2.233   7.838 -0.1444  0.6924 -2.4307
  121OSM   H18U12807   2.806   2.397   7.840  0.3675  0.4905 -0.5446
  121OSM    C1F12808   3.398   1.861   6.626 -0.1009  0.1283  0.4039
  121OSM     OF12809   3.514   1.888   6.596  0.4531  0.0827  0.4528
  121OSM    C2F12810   3.359   1.794   6.750  0.0828 -0.1269 -0.5269
  121OSM    H2F12811   3.265   1.738   6.731 -1.2002  1.5016  0.6815
  121OSM    H2G12812   3.347   1.866   6.833 -0.3416 -1.4416  0.5803
  121OSM    C3F12813   3.466   1.689   6.792  0.1202  0.5336  1.0515
  121OSM    H3F12814   3.562   1.740   6.816  0.4544 -0.0011  0.8805
  121OSM    H3G12815   3.472   1.617   6.707 -0.1544  1.0684  0.5724
  121OSM    C4F12816   3.415   1.611   6.916  0.0845  0.1002  0.3826
  121OSM    H4F12817   3.310   1.575   6.919 -0.0680  0.4757 -0.2684
  121OSM    H4G12818   3.413   1.687   6.997 -2.9709 -1.6354  2.1446
  121OSM    C5F12819   3.516   1.494   6.940 -0.9225 -0.4464  0.2766
  121OSM    H5F12820   3.620   1.524   6.919 -1.6798  0.5190 -2.5791
  121OSM    H5G12821   3.493   1.418   6.862  0.2813 -0.1421 -0.3960
  121OSM    C6F12822   3.499   1.432   7.082 -0.4084 -0.9421  0.2465
  121OSM    H6F12823   3.389   1.412   7.076 -0.3375 -1.1585 -0.3867
  121OSM    H6G12824   3.502   1.505   7.166 -0.3074 -0.1406 -0.4489
  121OSM    C7F12825   3.570   1.300   7.114 -0.3860 -0.4888  0.0582
  121OSM    H7F12826   3.663   1.326   7.169 -1.2334  2.2335  0.3584
  121OSM    H7G12827   3.577   1.256   7.013  1.7477 -0.0530 -0.0451
  121OSM    C8F12828   3.488   1.208   7.198 -0.3896 -0.1687 -0.1727
  121OSM    H8F12829   3.393   1.181   7.148 -0.3334 -1.1138  0.2021
  121OSM    H8G12830   3.459   1.262   7.291  1.1410  1.5909 -0.6513
  121OSM    C9F12831   3.550   1.076   7.230 -0.2015 -0.5823 -0.1721
  121OSM    H9F12832   3.634   1.045   7.166 -0.1281 -1.3373  0.2868
  121OSM   C10F12833   3.530   1.003   7.344 -0.2307  0.5844 -0.3836
  121OSM   H10F12834   3.593   0.915   7.362 -1.1085 -0.1546 -0.8456
  121OSM   C11F12835   3.441   1.046   7.461  0.8659  0.3011 -0.5569
  121OSM   H11F12836   3.336   1.027   7.432  0.9381 -0.9884 -0.0190
  121OSM   H11G12837   3.437   1.157   7.464 -0.3685  0.2665 -0.1646
  121OSM   C12F12838   3.474   0.978   7.591  0.0004 -0.1116  0.5419
  121OSM   H12F12839   3.582   0.965   7.613  0.3391  0.6983 -0.5681
  121OSM   H12G12840   3.434   0.875   7.590 -0.2239 -0.0406 -1.3126
  121OSM   C13F12841   3.414   1.043   7.720  0.5608  0.5295  0.1339
  121OSM   H13F12842   3.435   0.972   7.803 -0.3155  0.8253  0.6151
  121OSM   H13G12843   3.304   1.049   7.707  0.5011 -0.2395  0.2384
  121OSM   C14F12844   3.473   1.182   7.750 -0.3079 -1.0601  0.0944
  121OSM   H14F12845   3.436   1.250   7.670  1.4242 -1.6419 -1.2886
  121OSM   H14G12846   3.583   1.167   7.744 -0.3114 -1.3444  0.6995
  121OSM   C15F12847   3.428   1.246   7.875  0.3148 -0.1450  0.3462
  121OSM   H15F12848   3.326   1.285   7.855  1.7825  2.1242 -3.8635
  121OSM   H15G12849   3.477   1.344   7.892  1.1720 -0.2644 -1.2632
  121OSM   C16F12850   3.448   1.164   8.003  0.1285 -0.2856  0.2873
  121OSM   H16F12851   3.369   1.086   8.005 -1.1469  0.8345 -1.8639
  121OSM   H16G12852   3.422   1.230   8.088 -0.2716 -2.1306  1.6540
  121OSM   C17F12853   3.589   1.113   8.012  0.6106  0.1729 -0.1987
  121OSM   H17F12854   3.627   1.055   7.925  0.5868  0.8228 -0.6577
  121OSM   H17G12855   3.590   1.041   8.096  1.1988  0.2256 -0.1544
  121OSM   C18F12856   3.698   1.223   8.037 -0.1587 -0.2559  0.4678
  121OSM   H18F12857   3.790   1.173   8.071 -0.3519 -0.1905  1.0970
  121OSM   H18G12858   3.665   1.285   8.123  2.2743  1.3358  0.3575
  121OSM   H18H12859   3.712   1.299   7.957  1.6352 -0.2192  0.7958
  122OSM      N12860   2.799   4.522   5.875 -0.1502 -0.5574  0.1758
  122OSM    C1512861   2.879   4.404   5.820  0.3189  0.0841 -0.0493
  122OSM   H15A12862   2.973   4.383   5.868  0.5208  0.8860 -0.0759
  122OSM   H15B12863   2.904   4.416   5.716 -1.4863  0.9433 -0.4339
  122OSM   H15C12864   2.820   4.313   5.819 -0.2733  0.3457  3.0158
  122OSM    C1412865   2.774   4.493   6.024 -0.3652 -0.5690  0.0198
  122OSM   H14A12866   2.755   4.386   6.024 -1.6352 -0.3555 -0.6544
  122OSM   H14B12867   2.697   4.549   6.073  1.8459  1.6670  1.1607
  122OSM   H14C12868   2.858   4.484   6.091  0.5393  0.4792 -0.9264
  122OSM    C1312869   2.895   4.634   5.860  0.0430 -0.4611 -0.5467
  122OSM   H13A12870   2.854   4.729   5.893 -0.5699 -0.9669  0.1818
  122OSM   H13B12871   2.928   4.649   5.758  2.2325 -0.1650  0.1487
  122OSM   H13C12872   2.985   4.612   5.915  0.1652 -2.3840 -1.4502
  122OSM    C1212873   2.674   4.546   5.797 -0.1392 -0.1256 -0.0355
  122OSM   H12A12874   2.622   4.453   5.781  0.7207 -0.4527 -1.0137
  122OSM   H12B12875   2.680   4.575   5.694 -1.3903 -1.2919 -0.4667
  122OSM    C1112876   2.572   4.641   5.865  0.7379 -0.4773 -0.4727
  122OSM   H11A12877   2.560   4.602   5.968  1.3387 -1.0881 -0.6247
  122OSM   H11B12878   2.473   4.632   5.815  1.4008 -1.0555 -1.7281
  122OSM      P12879   2.534   4.898   5.922 -0.5674 -0.1811 -0.2729
  122OSM    O1312880   2.633   5.006   5.920 -0.1029 -0.1238  0.2512
  122OSM    O1412881   2.406   4.902   5.850  0.4416 -0.1701  0.7612
  122OSM    O1112882   2.515   4.845   6.064  0.3334  0.7275 -0.3353
  122OSM    O1212883   2.617   4.779   5.857  0.3467  0.6099  0.3842
  122OSM    C1S12884   2.624   4.863   6.158  0.2717  0.1683  0.0253
  122OSM    H1S12885   2.659   4.968   6.154  1.5362 -0.2349 -0.0489
  122OSM    H1T12886   2.712   4.801   6.129 -0.6037 -1.9214  1.5826
  122OSM     NF12887   2.670   4.904   6.391  0.0517 -0.3968 -0.0308
  122OSM    HNF12888   2.753   4.854   6.413  1.6479  2.5103  1.0689
  122OSM    C2S12889   2.587   4.825   6.301  0.4759 -0.1367 -0.1204
  122OSM    H2S12890   2.487   4.870   6.319  1.0895  0.9537  0.6868
  122OSM    C3S12891   2.584   4.675   6.316 -0.5477 -0.4225 -0.2664
  122OSM    H3S12892   2.687   4.635   6.304  0.1457  1.4156 -0.7620
  122OSM     O312893   2.491   4.619   6.228 -0.2415 -0.3325  0.6919
  122OSM    HO312894   2.478   4.684   6.159  1.4424 -0.7897 -0.1210
  122OSM    C4S12895   2.548   4.638   6.455  0.4334  0.7462 -0.2156
  122OSM    H4S12896   2.628   4.608   6.525  0.2776 -2.7235 -1.3337
  122OSM    C5S12897   2.427   4.637   6.509 -0.5123 -0.3142 -0.0747
  122OSM    H5S12898   2.336   4.664   6.454 -0.6661 -1.2528 -0.2962
  122OSM    C6S12899   2.402   4.601   6.657 -0.0729 -0.5462  0.3340
  122OSM    H6S12900   2.468   4.527   6.707 -2.6291 -2.2702  1.4227
  122OSM    H6T12901   2.299   4.560   6.664 -0.9526  1.7314  2.0513
  122OSM    C7S12902   2.399   4.723   6.743  0.6451  0.4495  0.0467
  122OSM    H7S12903   2.318   4.795   6.717  1.0957  0.1490 -2.4174
  122OSM    H7T12904   2.498   4.772   6.735  1.2987  0.0133  3.6885
  122OSM    C8S12905   2.381   4.692   6.892  0.1793  0.1693 -0.8057
  122OSM    H8S12906   2.470   4.641   6.934 -0.3170  0.4033  0.5976
  122OSM    H8T12907   2.295   4.625   6.916  0.7725 -1.0231 -1.8803
  122OSM    C9S12908   2.359   4.816   6.981 -0.4690 -0.6632 -0.0696
  122OSM    H9S12909   2.321   4.885   6.903  2.0201  0.1676 -0.6194
  122OSM    H9T12910   2.458   4.859   7.008 -0.3761 -1.2030  0.4558
  122OSM   C10S12911   2.261   4.801   7.088 -0.3275 -0.1351 -0.4934
  122OSM   H10S12912   2.166   4.758   7.049 -1.7407  0.7325  1.7605
  122OSM   H10T12913   2.231   4.905   7.115  2.9315  0.4410  1.4899
  122OSM   C11S12914   2.305   4.728   7.221  0.2645  0.8394 -0.3838
  122OSM   H11S12915   2.406   4.763   7.251  0.8967  0.2049 -1.6704
  122OSM   H11T12916   2.310   4.617   7.219 -0.1489  0.8264 -1.3784
  122OSM   C12S12917   2.191   4.761   7.330 -0.0184  0.7482 -1.0727
  122OSM   H12S12918   2.216   4.687   7.409  0.5585  0.3307 -1.6303
  122OSM   H12T12919   2.089   4.733   7.296 -0.8565 -0.1668  1.8846
  122OSM   C13S12920   2.171   4.897   7.399 -0.0827 -1.1732 -0.2875
  122OSM   H13S12921   2.112   4.955   7.325 -0.4246  0.4151  1.1432
  122OSM   H13T12922   2.266   4.949   7.425 -0.8442 -0.6662  1.7080
  122OSM   C14S12923   2.082   4.896   7.528  0.4654 -0.1413 -0.4297
  122OSM   H14S12924   2.000   4.825   7.506 -1.2729  1.6488  0.0561
  122OSM   H14T12925   2.044   4.999   7.543  0.6717 -0.2458  0.9328
  122OSM   C15S12926   2.163   4.862   7.652  0.1436 -0.0568  0.0501
  122OSM   H15S12927   2.251   4.926   7.672  0.2241 -0.6893  1.9582
  122OSM   H15T12928   2.200   4.757   7.641 -0.0795 -0.5698  3.2854
  122OSM   C16S12929   2.076   4.863   7.772 -0.5449 -0.2342 -0.2906
  122OSM   H16S12930   2.011   4.773   7.778 -2.1315  0.8701 -0.1446
  122OSM   H16T12931   2.020   4.959   7.777 -2.9339 -1.5650 -0.0540
  122OSM   C17S12932   2.164   4.853   7.898  0.4116 -0.3798  0.0776
  122OSM   H17S12933   2.251   4.919   7.877  1.4549 -2.4830 -3.0745
  122OSM   H17T12934   2.210   4.754   7.919  3.2857  0.7250 -0.4969
  122OSM   C18S12935   2.083   4.898   8.020  0.0517  0.1136 -0.3777
  122OSM   H18S12936   2.151   4.904   8.107  1.0646 -0.3997 -1.1155
  122OSM   H18T12937   2.009   4.818   8.042  0.9636  0.0599  3.0461
  122OSM   H18U12938   2.035   4.995   7.995 -1.1200  0.3368  2.4294
  122OSM    C1F12939   2.667   5.030   6.396 -0.2304  0.7371  0.5020
  122OSM     OF12940   2.580   5.095   6.335 -0.0594 -0.0642  0.0958
  122OSM    C2F12941   2.774   5.098   6.475  0.2503  0.0581 -0.3600
  122OSM    H2F12942   2.860   5.111   6.407 -0.8936  2.2531 -1.5058
  122OSM    H2G12943   2.802   5.039   6.565 -0.8229  2.9609  2.0369
  122OSM    C3F12944   2.730   5.231   6.545 -0.3551  0.1189  0.3440
  122OSM    H3F12945   2.684   5.304   6.475  1.6163  1.3322  0.2139
  122OSM    H3G12946   2.822   5.290   6.568 -0.6662  2.1168 -2.9007
  122OSM    C4F12947   2.640   5.211   6.658  0.2087 -0.4549  0.2681
  122OSM    H4F12948   2.681   5.140   6.734  0.5035 -1.1016 -0.4845
  122OSM    H4G12949   2.540   5.167   6.635  0.1307 -1.7929  2.7565
  122OSM    C5F12950   2.594   5.336   6.745  0.1793 -0.4757 -0.2878
  122OSM    H5F12951   2.536   5.302   6.833 -1.1547  2.6732  0.2004
  122OSM    H5G12952   2.521   5.387   6.678  0.4967 -0.8369 -0.9198
  122OSM    C6F12953   2.703   5.433   6.793  0.1177 -0.2408  0.5611
  122OSM    H6F12954   2.667   5.532   6.827 -0.4006 -0.4079  0.5082
  122OSM    H6G12955   2.764   5.456   6.704 -5.0604  2.6067 -2.7795
  122OSM    C7F12956   2.793   5.375   6.903 -0.1419 -0.4840 -0.5187
  122OSM    H7F12957   2.890   5.429   6.900 -0.2030 -0.2777  0.7742
  122OSM    H7G12958   2.828   5.274   6.870  1.4708  0.3463 -1.5110
  122OSM    C8F12959   2.729   5.383   7.045 -0.8793  0.5133 -0.1464
  122OSM    H8F12960   2.799   5.330   7.112 -2.1250 -0.4196  0.4500
  122OSM    H8G12961   2.637   5.321   7.050 -0.9683  0.4029 -2.1428
  122OSM    C9F12962   2.701   5.519   7.097  0.3449 -0.4865  0.2470
  122OSM    H9F12963   2.723   5.600   7.026  2.0342  2.1040  3.5040
  122OSM   C10F12964   2.647   5.554   7.217 -0.3032  0.4308 -0.0532
  122OSM   H10F12965   2.629   5.658   7.246 -3.2883  0.2653 -0.8973
  122OSM   C11F12966   2.611   5.446   7.322  0.0565 -0.0226 -0.6920
  122OSM   H11F12967   2.563   5.355   7.280  0.1928 -0.4829  0.1217
  122OSM   H11G12968   2.543   5.496   7.394  1.0920  2.1649 -1.1496
  122OSM   C12F12969   2.736   5.400   7.401  0.1064  0.5822  0.0013
  122OSM   H12F12970   2.794   5.491   7.425 -0.0123  1.5617 -3.0241
  122OSM   H12G12971   2.796   5.340   7.330  0.0690  0.8193 -0.2316
  122OSM   C13F12972   2.694   5.303   7.520  0.4647  0.8159 -0.5127
  122OSM   H13F12973   2.784   5.252   7.561 -0.7655 -0.0461  1.2371
  122OSM   H13G12974   2.636   5.221   7.472  2.7517 -0.3819 -1.3656
  122OSM   C14F12975   2.619   5.367   7.632 -0.0960  0.0725 -0.3741
  122OSM   H14F12976   2.588   5.467   7.594  1.8763  0.5183 -0.9479
  122OSM   H14G12977   2.692   5.378   7.715  0.1238 -1.7940 -0.2898
  122OSM   C15F12978   2.494   5.294   7.692  0.2685  0.0635  0.3811
  122OSM   H15F12979   2.516   5.190   7.723  3.9822  0.7023  0.3984
  122OSM   H15G12980   2.410   5.287   7.620  1.4010 -1.8681 -0.8447
  122OSM   C16F12981   2.441   5.366   7.815  0.2375  0.1964 -0.2398
  122OSM   H16F12982   2.379   5.454   7.789  0.2258  0.1825 -0.2601
  122OSM   H16G12983   2.529   5.416   7.860  0.7448 -0.0643 -0.9196
  122OSM   C17F12984   2.379   5.285   7.924  0.4867  0.0437  0.1582
  122OSM   H17F12985   2.423   5.185   7.946 -1.0524 -1.0175 -1.3385
  122OSM   H17G12986   2.278   5.257   7.886  0.4505  0.3081  0.0608
  122OSM   C18F12987   2.368   5.362   8.056 -0.2686 -0.3487 -0.3192
  122OSM   H18F12988   2.315   5.459   8.040  0.9518  0.7763  1.9203
  122OSM   H18G12989   2.471   5.390   8.086 -0.1432 -2.0783  1.0048
  122OSM   H18H12990   2.316   5.293   8.126  0.4636 -0.7381 -0.1541
  123OSM      N12991   6.120   6.417   6.563  0.0115 -0.3522 -0.2845
  123OSM    C1512992   5.989   6.474   6.592  1.2545 -0.4294 -0.0780
  123OSM   H15A12993   5.925   6.454   6.507 -0.6110  1.5507  0.7626
  123OSM   H15B12994   5.997   6.578   6.617  2.4896  0.2185 -2.8066
  123OSM   H15C12995   5.952   6.430   6.683  1.5283  1.1856  0.8472
  123OSM    C1412996   6.182   6.483   6.442  0.5362  0.2145 -0.3493
  123OSM   H14A12997   6.285   6.456   6.426  0.7135  0.2851  0.5682
  123OSM   H14B12998   6.176   6.591   6.450  1.1130  0.2564 -0.5267
  123OSM   H14C12999   6.120   6.454   6.359  0.5558 -1.7392  0.2628
  123OSM    C1313000   6.208   6.451   6.681 -0.0064  0.8938  0.2553
  123OSM   H13A13001   6.226   6.557   6.696  0.5853  0.8446 -0.0835
  123OSM   H13B13002   6.304   6.403   6.681 -0.8769 -0.9552  1.4983
  123OSM   H13C13003   6.153   6.421   6.769 -1.2455  0.5924 -0.5894
  123OSM    C1213004   6.107   6.271   6.535  0.0994 -0.1293  0.2029
  123OSM   H12A13005   6.044   6.220   6.606  1.4506 -0.3102  1.3245
  123OSM   H12B13006   6.204   6.222   6.540 -0.3133 -1.3068 -1.7680
  123OSM    C1113007   6.046   6.226   6.398 -0.6771 -1.1059 -0.4239
  123OSM   H11A13008   6.044   6.116   6.384 -0.9493 -1.2993  0.9291
  123OSM   H11B13009   6.117   6.268   6.324 -2.7896  1.0898 -1.3603
  123OSM      P13010   5.787   6.234   6.412  0.1862 -0.2520 -0.2274
  123OSM    O1313011   5.687   6.338   6.396  1.5273  0.5629 -0.0581
  123OSM    O1413012   5.764   6.112   6.336  0.0056 -0.2020  0.3013
  123OSM    O1113013   5.817   6.211   6.564 -0.1537  0.1185 -0.0443
  123OSM    O1213014   5.930   6.298   6.370  0.7308  0.5501  0.5217
  123OSM    C1S13015   5.785   6.094   6.632  0.0837 -0.4056  0.3484
  123OSM    H1S13016   5.870   6.023   6.620 -0.6594 -1.1673 -0.6404
  123OSM    H1T13017   5.692   6.052   6.589 -0.2581  2.0167 -1.4403
  123OSM     NF13018   5.784   5.993   6.854 -0.4405 -0.3931  0.5689
  123OSM    HNF13019   5.707   5.939   6.886 -0.4356 -1.0280 -0.4524
  123OSM    C2S13020   5.752   6.118   6.785 -0.0875  0.3645  0.3818
  123OSM    H2S13021   5.815   6.206   6.811 -0.6408  0.7679  0.3737
  123OSM    C3S13022   5.613   6.162   6.809  0.5431 -0.4776  1.0535
  123OSM    H3S13023   5.544   6.081   6.776  0.1973  0.9972 -2.2848
  123OSM     O313024   5.576   6.279   6.738  0.0679 -0.2797 -0.3154
  123OSM    HO313025   5.644   6.299   6.673 -1.3428  1.6301 -1.2965
  123OSM    C4S13026   5.587   6.183   6.952  0.0650 -0.2777 -0.1198
  123OSM    H4S13027   5.545   6.092   6.996  2.1613 -1.9939 -1.4698
  123OSM    C5S13028   5.605   6.293   7.025  0.0698  0.5537 -0.6535
  123OSM    H5S13029   5.638   6.382   6.969  0.1483 -0.4512 -2.2443
  123OSM    C6S13030   5.574   6.313   7.171  0.4796  0.9467 -0.3126
  123OSM    H6S13031   5.514   6.406   7.165  0.7213  1.0327 -1.8476
  123OSM    H6T13032   5.674   6.338   7.212  1.6004 -1.5533 -1.2803
  123OSM    C7S13033   5.525   6.191   7.245  0.2051 -0.2568  0.3323
  123OSM    H7S13034   5.588   6.100   7.247  0.2817 -0.2003  2.4615
  123OSM    H7T13035   5.422   6.161   7.217 -0.2291  1.5012 -0.1286
  123OSM    C8S13036   5.521   6.227   7.395 -0.0074  0.5416  0.1181
  123OSM    H8S13037   5.444   6.306   7.408  0.2184  1.2263 -2.2328
  123OSM    H8T13038   5.623   6.259   7.426  0.5158 -0.9288  0.0100
  123OSM    C9S13039   5.487   6.098   7.484 -0.6734 -0.7788 -0.5390
  123OSM    H9S13040   5.580   6.038   7.485 -0.2880 -0.2243 -1.6606
  123OSM    H9T13041   5.398   6.044   7.444 -1.7597  1.3878 -1.2146
  123OSM   C10S13042   5.430   6.153   7.624 -0.0206 -0.4253 -0.2241
  123OSM   H10S13043   5.505   6.225   7.663 -1.5900  1.2406 -0.1541
  123OSM   H10T13044   5.431   6.062   7.688 -0.6442 -0.7546 -0.6783
  123OSM   C11S13045   5.295   6.221   7.630  0.1717  0.4047  0.2635
  123OSM   H11S13046   5.209   6.154   7.607  1.0820 -1.1863  1.3484
  123OSM   H11T13047   5.304   6.297   7.550 -0.2804 -1.0291 -1.2002
  123OSM   C12S13048   5.253   6.311   7.755 -0.7112 -0.3624  0.4262
  123OSM   H12S13049   5.173   6.381   7.723 -1.9786 -1.8460  0.2308
  123OSM   H12T13050   5.343   6.370   7.782  0.9572 -3.5485  2.4745
  123OSM   C13S13051   5.199   6.229   7.863  0.1506 -0.4218 -0.7946
  123OSM   H13S13052   5.280   6.164   7.902 -0.6681 -0.8679  0.2253
  123OSM   H13T13053   5.118   6.170   7.815 -0.2883 -0.4281 -0.0635
  123OSM   C14S13054   5.154   6.310   7.993  0.1240 -0.0772  0.6312
  123OSM   H14S13055   5.056   6.357   7.971  0.3787  1.2025  2.0954
  123OSM   H14T13056   5.231   6.383   8.024  1.0113 -1.2751  1.3260
  123OSM   C15S13057   5.139   6.224   8.117  0.1440  0.2465 -0.3361
  123OSM   H15S13058   5.232   6.208   8.176 -0.3823  1.4164  0.8477
  123OSM   H15T13059   5.105   6.126   8.077 -2.6422  0.4827  1.1931
  123OSM   C16S13060   5.029   6.258   8.215  0.6260  0.7279 -0.2088
  123OSM   H16S13061   4.937   6.279   8.157  0.8074  0.7523 -0.4946
  123OSM   H16T13062   5.057   6.354   8.263  1.0184  0.4837  0.0580
  123OSM   C17S13063   5.012   6.148   8.320  0.7644 -0.8485  0.3474
  123OSM   H17S13064   5.113   6.120   8.359  0.5093 -1.9220  0.2643
  123OSM   H17T13065   4.973   6.051   8.282  0.9218 -1.0891  0.7834
  123OSM   C18S13066   4.931   6.190   8.438 -0.9727 -0.2170  0.4440
  123OSM   H18S13067   4.899   6.098   8.493  0.4950 -1.0731 -0.0947
  123OSM   H18T13068   4.848   6.254   8.400  0.5957  2.0866  0.7000
  123OSM   H18U13069   4.994   6.256   8.502 -0.4840  0.9757 -1.2156
  123OSM    C1F13070   5.909   5.961   6.886 -0.1462 -0.2207 -0.2994
  123OSM     OF13071   6.002   6.041   6.860  0.1126 -0.1965  0.5987
  123OSM    C2F13072   5.927   5.837   6.970 -0.4774 -0.3355  0.0162
  123OSM    H2F13073   5.991   5.764   6.915 -1.5049 -0.9684 -0.3892
  123OSM    H2G13074   5.828   5.786   6.982 -0.7695 -0.5086 -2.4719
  123OSM    C3F13075   5.993   5.865   7.105 -0.0672  0.0647 -0.6789
  123OSM    H3F13076   6.100   5.885   7.087 -0.8474  3.5980 -2.2862
  123OSM    H3G13077   5.996   5.768   7.159  0.8571  0.3225 -0.2547
  123OSM    C4F13078   5.920   5.977   7.182 -0.1007  0.4024  0.3451
  123OSM    H4F13079   5.809   5.968   7.193  0.0950 -2.4139  0.7564
  123OSM    H4G13080   5.932   6.078   7.137  0.9544 -0.3285 -1.0722
  123OSM    C5F13081   5.970   5.999   7.327 -0.1875 -0.4086  0.3218
  123OSM    H5F13082   6.056   6.069   7.314 -1.8483  1.4775 -0.9673
  123OSM    H5G13083   6.001   5.902   7.373 -2.0658 -0.8436  0.7622
  123OSM    C6F13084   5.875   6.063   7.429 -0.3711 -0.2817 -0.1210
  123OSM    H6F13085   5.802   5.980   7.442  2.1308 -2.5043  0.5751
  123OSM    H6G13086   5.816   6.152   7.398 -0.1643 -0.1305 -0.0815
  123OSM    C7F13087   5.947   6.098   7.558 -0.5267  0.5221 -0.3267
  123OSM    H7F13088   6.027   6.172   7.537  0.6955  0.2752  2.7970
  123OSM    H7G13089   6.003   6.005   7.583 -0.2017  0.6003 -0.7463
  123OSM    C8F13090   5.850   6.151   7.661  0.1993 -0.0557  0.0021
  123OSM    H8F13091   5.774   6.076   7.691 -1.0038 -0.1489 -2.8971
  123OSM    H8G13092   5.801   6.237   7.609  0.1312 -0.1061 -0.0174
  123OSM    C9F13093   5.937   6.184   7.781 -0.0208  0.1006 -0.0057
  123OSM    H9F13094   6.038   6.141   7.783 -0.3672 -0.6908  1.1174
  123OSM   C10F13095   5.901   6.259   7.888  0.8377  0.1990  0.5188
  123OSM   H10F13096   5.964   6.265   7.979 -0.8774  1.6387  1.7000
  123OSM   C11F13097   5.774   6.340   7.906  0.0764  0.5916  0.0700
  123OSM   H11F13098   5.744   6.380   7.807  1.5079  1.3734 -0.0672
  123OSM   H11G13099   5.801   6.422   7.975  1.8006 -0.1151  0.2737
  123OSM   C12F13100   5.673   6.247   7.985  0.3879  0.3664  0.3026
  123OSM   H12F13101   5.736   6.196   8.061  1.0208  2.1990  1.0694
  123OSM   H12G13102   5.646   6.164   7.916  1.8583 -1.6859  2.0582
  123OSM   C13F13103   5.548   6.309   8.055 -0.7548  0.5061  1.1523
  123OSM   H13F13104   5.490   6.224   8.097 -0.7041 -0.3335 -0.3963
  123OSM   H13G13105   5.484   6.369   7.986  0.3077 -0.2414 -0.5729
  123OSM   C14F13106   5.590   6.402   8.179 -0.3533 -0.1313  0.6581
  123OSM   H14F13107   5.661   6.480   8.142 -1.2742 -0.0829 -1.1438
  123OSM   H14G13108   5.652   6.342   8.249  2.3356  2.0455  0.3530
  123OSM   C15F13109   5.474   6.466   8.252  0.4620  0.3286 -0.1390
  123OSM   H15F13110   5.387   6.474   8.183  0.2112  0.0779  0.1464
  123OSM   H15G13111   5.506   6.570   8.278  0.0715  0.3476  0.2753
  123OSM   C16F13112   5.428   6.403   8.384  0.5110 -0.5380  0.2785
  123OSM   H16F13113   5.515   6.380   8.449  0.5002 -0.6656  0.2471
  123OSM   H16G13114   5.380   6.311   8.345  0.7575  0.0701 -1.5221
  123OSM   C17F13115   5.333   6.489   8.464 -0.6526 -0.0322  0.6226
  123OSM   H17F13116   5.252   6.520   8.395  1.6110  1.2057 -1.6221
  123OSM   H17G13117   5.379   6.584   8.499 -0.2309 -1.2701  3.8258
  123OSM   C18F13118   5.279   6.412   8.584  0.6587 -0.4910  0.2280
  123OSM   H18F13119   5.245   6.313   8.546 -0.4575  0.4090 -1.2507
  123OSM   H18G13120   5.199   6.472   8.631 -1.0256 -0.3119 -2.6451
  123OSM   H18H13121   5.357   6.398   8.662  1.1587 -0.7476 -0.3029
  124OSM      N13122   1.170   3.778   5.901  0.1433 -0.1678 -0.3751
  124OSM    C1513123   1.307   3.736   5.854 -0.4004 -0.1528 -0.4353
  124OSM   H15A13124   1.349   3.815   5.794 -0.5324  1.0407  0.9676
  124OSM   H15B13125   1.317   3.637   5.813  0.0479  0.0595 -0.8513
  124OSM   H15C13126   1.361   3.732   5.947 -0.2014 -1.8018 -0.6034
  124OSM    C1413127   1.178   3.924   5.938  0.0216  0.1860  0.1202
  124OSM   H14A13128   1.203   3.969   5.843  2.6539 -0.5765  0.3855
  124OSM   H14B13129   1.258   3.948   6.005  0.3791  1.4257 -0.7059
  124OSM   H14C13130   1.083   3.959   5.977 -0.2769 -0.3623 -0.0941
  124OSM    C1313131   1.073   3.760   5.783  0.4521 -0.0402 -0.1777
  124OSM   H13A13132   0.972   3.787   5.810  1.3386  2.1714  1.1598
  124OSM   H13B13133   1.078   3.655   5.758 -1.4359 -0.1803 -0.1510
  124OSM   H13C13134   1.101   3.812   5.693  0.2010 -0.4040 -0.4717
  124OSM    C1213135   1.136   3.691   6.023 -0.2197 -0.0432 -0.0096
  124OSM   H12A13136   1.139   3.584   6.007 -0.8335  0.1639 -1.8647
  124OSM   H12B13137   1.033   3.716   6.045 -0.3157 -0.2225 -0.2498
  124OSM    C1113138   1.221   3.721   6.148 -0.3982  0.4311 -0.5403
  124OSM   H11A13139   1.167   3.668   6.229 -0.2762 -1.7480 -1.7947
  124OSM   H11B13140   1.234   3.829   6.171  0.9986 -0.3002  2.6528
  124OSM      P13141   1.380   3.515   6.163 -0.1592 -0.0918  0.1736
  124OSM    O1313142   1.327   3.468   6.290  0.4835  0.1001  0.0329
  124OSM    O1413143   1.347   3.433   6.046  0.4221 -0.3643  0.3804
  124OSM    O1113144   1.534   3.525   6.173 -0.7393  0.0383 -0.2183
  124OSM    O1213145   1.341   3.661   6.124  0.1613  0.2979 -0.0499
  124OSM    C1S13146   1.601   3.594   6.284  0.9421  0.0809 -0.1034
  124OSM    H1S13147   1.533   3.658   6.344  0.7947 -0.1674  0.0003
  124OSM    H1T13148   1.687   3.652   6.246  0.2377  1.3871  0.2467
  124OSM     NF13149   1.725   3.546   6.492  0.3334 -0.3784  0.7693
  124OSM    HNF13150   1.821   3.566   6.473  0.2298 -2.3989 -2.8891
  124OSM    C2S13151   1.663   3.484   6.385  0.3965  0.3512 -0.2340
  124OSM    H2S13152   1.576   3.431   6.428 -0.7188  3.5859  1.8728
  124OSM    C3S13153   1.761   3.383   6.310  0.0036  0.2551 -0.5922
  124OSM    H3S13154   1.855   3.438   6.289  0.2825  0.9209  1.9691
  124OSM     O313155   1.725   3.343   6.177 -0.0348  0.2105 -0.2372
  124OSM    HO313156   1.654   3.405   6.158 -0.3340  0.3798  1.3591
  124OSM    C4S13157   1.789   3.256   6.391 -0.2835  0.3204  0.3082
  124OSM    H4S13158   1.701   3.191   6.405 -0.7757  1.1431  1.0949
  124OSM    C5S13159   1.913   3.229   6.437 -0.1861 -0.1945  0.1289
  124OSM    H5S13160   1.999   3.298   6.433 -0.2914 -0.0222  0.7578
  124OSM    C6S13161   1.940   3.103   6.512  0.1310 -0.1053  0.3992
  124OSM    H6S13162   2.047   3.077   6.503  0.1046  0.1396 -0.7486
  124OSM    H6T13163   1.886   3.014   6.474  3.3208 -2.2830  0.6439
  124OSM    C7S13164   1.896   3.104   6.663  0.0879  0.0477  1.0546
  124OSM    H7S13165   1.788   3.126   6.677  0.5030  2.7030  0.6571
  124OSM    H7T13166   1.946   3.196   6.700 -1.1746  1.2921 -0.2180
  124OSM    C8S13167   1.941   2.986   6.744  0.6390  0.3720  0.0824
  124OSM    H8S13168   2.049   2.971   6.721  0.1723 -1.1057 -1.3837
  124OSM    H8T13169   1.901   2.896   6.692 -0.4631  0.7124  0.3266
  124OSM    C9S13170   1.901   2.971   6.883 -0.3254 -0.6368  0.1027
  124OSM    H9S13171   1.962   2.904   6.948  1.2767  1.2972  0.7129
  124OSM    H9T13172   1.802   2.922   6.892 -0.0913 -1.2544 -0.5876
  124OSM   C10S13173   1.910   3.105   6.961 -0.4763 -0.2410 -0.3087
  124OSM   H10S13174   1.824   3.161   6.920 -0.7113 -1.7660 -2.0231
  124OSM   H10T13175   1.996   3.164   6.923 -0.4610 -1.6988 -2.7588
  124OSM   C11S13176   1.914   3.097   7.118 -0.0590 -0.1130  0.3077
  124OSM   H11S13177   1.909   3.202   7.154 -0.2546 -0.1850  0.4939
  124OSM   H11T13178   2.014   3.058   7.144  1.0452  0.5729 -2.5785
  124OSM   C12S13179   1.810   3.003   7.181  0.0570 -0.2369  0.1187
  124OSM   H12S13180   1.825   2.898   7.146 -1.0033 -0.3598 -0.0103
  124OSM   H12T13181   1.708   3.039   7.155 -0.0221 -0.6752 -0.2075
  124OSM   C13S13182   1.814   3.013   7.329  0.5667  0.2660  0.5643
  124OSM   H13S13183   1.834   3.116   7.364  1.2790  0.4803 -0.4190
  124OSM   H13T13184   1.902   2.952   7.359  0.1940  0.2548  1.6432
  124OSM   C14S13185   1.693   2.973   7.404 -0.5883 -0.1203  0.4086
  124OSM   H14S13186   1.658   2.880   7.353  1.7842 -0.3088 -1.0294
  124OSM   H14T13187   1.619   3.055   7.396  1.0876  1.3673 -0.4336
  124OSM   C15S13188   1.716   2.948   7.549  0.0066  0.0378  0.3214
  124OSM   H15S13189   1.635   2.991   7.612 -2.3067  1.1015 -3.0912
  124OSM   H15T13190   1.810   3.001   7.576 -0.2254 -0.2976  1.8222
  124OSM   C16S13191   1.740   2.802   7.584  0.5241  0.1304  0.0399
  124OSM   H16S13192   1.838   2.774   7.539  1.1090  2.4207 -0.2336
  124OSM   H16T13193   1.658   2.744   7.536 -0.9390  0.9375  1.4713
  124OSM   C17S13194   1.746   2.784   7.739  0.4566  0.1979 -0.1591
  124OSM   H17S13195   1.638   2.763   7.759  0.3401  0.0087 -0.9618
  124OSM   H17T13196   1.789   2.877   7.782  0.2779  1.2595 -2.1314
  124OSM   C18S13197   1.815   2.658   7.784  0.1706  0.8346 -0.3201
  124OSM   H18S13198   1.917   2.667   7.826 -0.2543 -1.5168  1.4244
  124OSM   H18T13199   1.815   2.590   7.696 -2.3726  0.5947 -0.2169
  124OSM   H18U13200   1.759   2.604   7.863  2.5999 -1.1116  0.1840
  124OSM    C1F13201   1.654   3.604   6.591  0.9240  0.1605  0.2538
  124OSM     OF13202   1.536   3.572   6.608  0.0348  1.4313  0.0298
  124OSM    C2F13203   1.729   3.711   6.668  0.0250 -0.1511 -0.0316
  124OSM    H2F13204   1.648   3.774   6.711 -0.2843 -0.2786 -0.4183
  124OSM    H2G13205   1.804   3.768   6.610  1.1319  0.9903  2.3956
  124OSM    C3F13206   1.811   3.645   6.779 -0.0719  0.1292 -0.0407
  124OSM    H3F13207   1.852   3.730   6.837 -0.8380 -0.0667  0.8290
  124OSM    H3G13208   1.895   3.582   6.745 -1.1515 -0.9267 -0.8475
  124OSM    C4F13209   1.732   3.555   6.883  0.2771 -0.5661 -0.0151
  124OSM    H4F13210   1.689   3.458   6.847  0.3453 -0.8102  0.5480
  124OSM    H4G13211   1.645   3.621   6.904  0.6446  1.8682 -4.7711
  124OSM    C5F13212   1.800   3.522   7.018 -0.4617  0.6888 -0.3542
  124OSM    H5F13213   1.822   3.621   7.063  0.1286 -0.2318  1.4838
  124OSM    H5G13214   1.895   3.466   7.002 -0.7851 -0.6318  1.8897
  124OSM    C6F13215   1.712   3.450   7.120 -0.3018  0.0368 -0.2158
  124OSM    H6F13216   1.710   3.342   7.096 -2.9063 -0.4320  1.7144
  124OSM    H6G13217   1.603   3.470   7.109 -1.0239 -3.5643 -0.6755
  124OSM    C7F13218   1.762   3.488   7.257  0.1858 -0.2699 -0.7508
  124OSM    H7F13219   1.743   3.595   7.279  0.5015 -0.6809  1.7482
  124OSM    H7G13220   1.871   3.475   7.243  0.4728 -0.2663  1.3141
  124OSM    C8F13221   1.705   3.387   7.364 -0.4409  0.2925  0.1218
  124OSM    H8F13222   1.693   3.299   7.297  1.0385 -0.7956  1.1913
  124OSM    H8G13223   1.604   3.411   7.403 -0.5727  1.0712 -0.6693
  124OSM    C9F13224   1.797   3.350   7.476 -0.5349 -0.6952 -0.2266
  124OSM    H9F13225   1.906   3.359   7.461 -0.1213  0.6129  2.8455
  124OSM   C10F13226   1.763   3.315   7.597 -0.0567  0.4904  0.1455
  124OSM   H10F13227   1.844   3.288   7.666  1.6420  0.1181 -1.8958
  124OSM   C11F13228   1.620   3.310   7.645  0.2083 -0.2983 -0.0274
  124OSM   H11F13229   1.567   3.232   7.586  0.4457  0.2297 -0.9625
  124OSM   H11G13230   1.566   3.401   7.612 -0.7813 -0.6255  0.6547
  124OSM   C12F13231   1.599   3.289   7.789  0.6056  0.2870  0.3793
  124OSM   H12F13232   1.669   3.208   7.819  0.8475  0.2749 -0.2204
  124OSM   H12G13233   1.496   3.258   7.821  1.0186 -1.2388  0.3352
  124OSM   C13F13234   1.630   3.405   7.886  0.6545 -0.8321 -0.6555
  124OSM   H13F13235   1.568   3.494   7.863  1.8062  0.3830  0.7242
  124OSM   H13G13236   1.734   3.438   7.870 -0.1087  1.2710 -1.6176
  124OSM   C14F13237   1.604   3.377   8.038  0.3373  0.6059  0.6331
  124OSM   H14F13238   1.657   3.285   8.069  1.2992  0.9831  0.1564
  124OSM   H14G13239   1.496   3.357   8.051 -0.2316  3.1628  0.3665
  124OSM   C15F13240   1.637   3.508   8.123 -0.6053  0.0573  0.1814
  124OSM   H15F13241   1.579   3.593   8.083 -1.1862  0.4650  1.8217
  124OSM   H15G13242   1.743   3.532   8.099 -0.9416  1.0660 -0.3511
  124OSM   C16F13243   1.600   3.489   8.276  0.2815 -0.7822  0.7027
  124OSM   H16F13244   1.630   3.391   8.318  0.8814 -1.0588 -0.3399
  124OSM   H16G13245   1.493   3.503   8.303  0.5498  0.6598  1.0528
  124OSM   C17F13246   1.669   3.593   8.362 -0.3241  0.2763  0.4925
  124OSM   H17F13247   1.639   3.691   8.319 -0.9066 -0.5175 -0.9795
  124OSM   H17G13248   1.779   3.582   8.355 -0.5731 -0.9997 -2.8499
  124OSM   C18F13249   1.642   3.577   8.509  0.2450  0.1241  0.5523
  124OSM   H18F13250   1.656   3.469   8.530  2.9383  0.0774 -0.9880
  124OSM   H18G13251   1.533   3.593   8.524 -0.6037 -0.6349 -3.5331
  124OSM   H18H13252   1.712   3.632   8.574 -0.6630  1.8075  0.1563
  125OSM      N13253   3.355   0.339   6.187  0.2214  0.3826  0.6158
  125OSM    C1513254   3.489   0.371   6.243  0.4647 -0.2465  0.6297
  125OSM   H15A13255   3.559   0.405   6.168  0.6298  1.0113  1.3376
  125OSM   H15B13256   3.532   0.275   6.271  0.8620  0.0049  0.8834
  125OSM   H15C13257   3.488   0.436   6.328 -4.2729  1.3319 -0.3633
  125OSM    C1413258   3.288   0.464   6.128 -0.0446 -0.3805 -0.2029
  125OSM   H14A13259   3.294   0.550   6.193  3.3073 -0.7471  0.1584
  125OSM   H14B13260   3.181   0.452   6.113 -0.2578  0.8877  0.1333
  125OSM   H14C13261   3.335   0.506   6.040 -0.7950  1.6228  0.2894
  125OSM    C1313262   3.368   0.241   6.076  0.0098  0.1734  0.4233
  125OSM   H13A13263   3.272   0.217   6.033 -1.4320  3.9577  1.0628
  125OSM   H13B13264   3.401   0.146   6.115 -0.8046 -0.8528 -1.2968
  125OSM   H13C13265   3.429   0.277   5.994 -0.5127 -0.4739 -0.2544
  125OSM    C1213266   3.264   0.282   6.299 -0.1016 -0.1450 -0.3156
  125OSM   H12A13267   3.245   0.358   6.374  0.4988 -1.3345  1.1004
  125OSM   H12B13268   3.316   0.205   6.354 -0.5481 -0.2824 -0.0790
  125OSM    C1113269   3.125   0.226   6.257  0.5646  0.0930 -0.2779
  125OSM   H11A13270   3.075   0.195   6.351  2.2096 -2.9709 -0.2847
  125OSM   H11B13271   3.134   0.135   6.193  1.2307 -0.1861  0.2045
  125OSM      P13272   2.903   0.362   6.233 -0.1288 -0.0249  0.7275
  125OSM    O1313273   2.867   0.480   6.150 -0.4144 -0.5429  0.8531
  125OSM    O1413274   2.808   0.247   6.214  0.0930  0.1195  0.0627
  125OSM    O1113275   2.919   0.394   6.381  0.1130 -0.1617  0.3728
  125OSM    O1213276   3.048   0.320   6.179  0.0124  0.0645  0.3216
  125OSM    C1S13277   2.967   0.530   6.419 -0.6978  0.2761 -0.0612
  125OSM    H1S13278   2.923   0.614   6.361  0.4111  1.0538  0.2088
  125OSM    H1T13279   3.077   0.522   6.407 -0.5968  2.7987 -1.5271
  125OSM     NF13280   2.964   0.704   6.591 -0.1956  0.3277  0.5238
  125OSM    HNF13281   3.052   0.721   6.636  0.6809 -1.3545 -0.4545
  125OSM    C2S13282   2.946   0.561   6.562  0.7270 -0.1403 -0.2249
  125OSM    H2S13283   2.840   0.545   6.592  1.4098  1.0850  3.3462
  125OSM    C3S13284   3.037   0.466   6.646 -0.2147  0.5237 -0.7131
  125OSM    H3S13285   3.142   0.497   6.630 -0.2574  0.3095 -1.4280
  125OSM     O313286   3.026   0.331   6.608  0.3975  0.6974  0.1851
  125OSM    HO313287   2.963   0.321   6.537 -0.5692  0.3040  1.0631
  125OSM    C4S13288   3.020   0.479   6.795 -0.5082 -0.3225 -1.0276
  125OSM    H4S13289   3.093   0.547   6.842 -1.6532 -0.1353  0.5407
  125OSM    C5S13290   2.939   0.430   6.890 -0.1531  0.7717  0.1985
  125OSM    H5S13291   2.863   0.358   6.856  0.9315  0.1133 -0.9135
  125OSM    C6S13292   2.938   0.488   7.030 -0.1867 -0.1523 -0.1071
  125OSM    H6S13293   2.864   0.570   7.042 -1.3993 -1.3715  1.1690
  125OSM    H6T13294   3.036   0.540   7.037 -0.1541  0.7325 -4.5956
  125OSM    C7S13295   2.913   0.382   7.141  0.1156  0.2931  0.4725
  125OSM    H7S13296   2.989   0.301   7.144  1.4103  1.4473 -0.1645
  125OSM    H7T13297   2.815   0.332   7.125  0.3201 -0.1827  0.6977
  125OSM    C8S13298   2.910   0.441   7.281  0.1940  0.2250 -0.2914
  125OSM    H8S13299   2.808   0.483   7.296  0.3892  0.8561 -0.7181
  125OSM    H8T13300   2.984   0.524   7.286  1.0492 -0.5653  0.9098
  125OSM    C9S13301   2.938   0.323   7.374 -0.3246 -0.0327  0.1869
  125OSM    H9S13302   3.037   0.276   7.355  0.4625  1.5025  0.3340
  125OSM    H9T13303   2.857   0.250   7.352 -1.0860  0.1605  2.1236
  125OSM   C10S13304   2.938   0.372   7.519 -0.0985 -0.5584 -0.0570
  125OSM   H10S13305   2.848   0.432   7.543  0.4862  0.3974 -0.2145
  125OSM   H10T13306   3.027   0.437   7.532  0.3174 -1.2239  0.5822
  125OSM   C11S13307   2.963   0.253   7.613 -0.0628  1.0996 -0.4151
  125OSM   H11S13308   3.046   0.185   7.587 -1.0994 -0.5401  0.3817
  125OSM   H11T13309   2.867   0.196   7.613 -0.2826  1.4673 -0.3320
  125OSM   C12S13310   3.004   0.308   7.753 -0.3183 -0.1488  0.0056
  125OSM   H12S13311   2.926   0.379   7.787 -0.4771 -0.0102 -0.6403
  125OSM   H12T13312   3.102   0.359   7.748 -0.5488  0.1883 -1.6029
  125OSM   C13S13313   2.996   0.191   7.837 -0.3133 -0.2789  0.1871
  125OSM   H13S13314   3.062   0.114   7.792 -0.1370  0.1424 -0.2990
  125OSM   H13T13315   2.896   0.144   7.843 -1.6797  2.4588  0.6367
  125OSM   C14S13316   3.062   0.213   7.968 -0.1522 -0.5842  0.4633
  125OSM   H14S13317   3.037   0.315   8.006  0.1389 -1.2898  2.6965
  125OSM   H14T13318   3.172   0.205   7.970 -0.0847  0.3017  1.1645
  125OSM   C15S13319   3.014   0.103   8.065 -0.6338 -0.7428 -0.5404
  125OSM   H15S13320   3.090   0.094   8.145 -1.0105 -0.2338 -0.1207
  125OSM   H15T13321   3.022   0.011   8.004 -1.8431 -0.6254 -0.9088
  125OSM   C16S13322   2.872   0.124   8.119 -0.1496  0.3412 -0.3392
  125OSM   H16S13323   2.804   0.064   8.055 -0.8206  1.2911 -0.5422
  125OSM   H16T13324   2.846   0.232   8.109 -1.4867  0.0850  0.1849
  125OSM   C17S13325   2.858   0.088   8.271 -0.3053  0.1425  0.2975
  125OSM   H17S13326   2.939   0.127   8.336  0.8364 -1.6949  0.0403
  125OSM   H17T13327   2.878  -0.021   8.259 -1.1143 -0.0981  1.0525
  125OSM   C18S13328   2.714   0.095   8.323  0.3050  0.0173 -0.7233
  125OSM   H18S13329   2.657   0.181   8.282  1.3974  0.7927 -0.6520
  125OSM   H18T13330   2.722   0.103   8.433  0.4855  1.1529 -0.8110
  125OSM   H18U13331   2.668  -0.003   8.298  1.3461 -0.0403 -2.6115
  125OSM    C1F13332   2.870   0.797   6.562  0.0561  0.0261 -0.0475
  125OSM     OF13333   2.771   0.772   6.495  0.3641  0.8574 -0.3425
  125OSM    C2F13334   2.896   0.936   6.615 -0.9235  0.1363  0.6385
  125OSM    H2F13335   2.920   0.997   6.525 -1.0233 -2.6580 -1.4237
  125OSM    H2G13336   2.973   0.939   6.696  0.2601 -0.7108 -0.4227
  125OSM    C3F13337   2.768   1.010   6.662 -0.7603 -0.4299 -0.5774
  125OSM    H3F13338   2.673   0.984   6.610 -0.4516 -1.1512 -0.8022
  125OSM    H3G13339   2.782   1.119   6.649 -2.9724 -0.0777 -0.4279
  125OSM    C4F13340   2.735   0.988   6.809 -0.2424 -0.2086 -0.4056
  125OSM    H4F13341   2.688   0.887   6.818 -0.2196 -0.0851  1.6889
  125OSM    H4G13342   2.663   1.066   6.842  1.5518  1.3806 -0.1438
  125OSM    C5F13343   2.849   0.982   6.912  0.1834 -0.7567  0.4189
  125OSM    H5F13344   2.901   1.080   6.905  0.0867 -0.8209 -2.0979
  125OSM    H5G13345   2.923   0.904   6.886  0.7387  0.4568 -1.9176
  125OSM    C6F13346   2.795   0.960   7.056 -0.9105 -0.6639  0.4521
  125OSM    H6F13347   2.782   0.851   7.075 -0.9708 -0.7416 -0.0358
  125OSM    H6G13348   2.696   1.011   7.057 -1.1599 -1.1018 -0.6032
  125OSM    C7F13349   2.885   1.027   7.164  0.5339  0.1113  1.0380
  125OSM    H7F13350   2.891   1.134   7.134  1.7586 -0.2413 -0.0993
  125OSM    H7G13351   2.985   0.979   7.150  0.8279  0.4083  2.0462
  125OSM    C8F13352   2.841   1.003   7.313  0.1985 -0.5456  0.2162
  125OSM    H8F13353   2.940   1.006   7.362  0.1272 -0.6192  0.3651
  125OSM    H8G13354   2.801   0.903   7.338 -1.1298 -0.6631 -2.0210
  125OSM    C9F13355   2.747   1.110   7.361 -0.2809 -0.0597  0.3142
  125OSM    H9F13356   2.693   1.163   7.281 -2.1745 -1.7927  0.3705
  125OSM   C10F13357   2.719   1.133   7.484 -0.3116 -0.2732 -0.3340
  125OSM   H10F13358   2.650   1.215   7.510 -0.4137  0.1077 -1.6971
  125OSM   C11F13359   2.788   1.061   7.596 -0.0757 -0.5162 -0.0059
  125OSM   H11F13360   2.869   0.991   7.568  0.4733 -0.0350  0.3681
  125OSM   H11G13361   2.716   1.006   7.661  0.0465 -2.6561 -1.5785
  125OSM   C12F13362   2.851   1.172   7.677 -0.0140 -0.5488  0.5788
  125OSM   H12F13363   2.777   1.241   7.724 -0.7175 -1.6736  1.1658
  125OSM   H12G13364   2.920   1.238   7.619  0.2014 -1.3508 -0.0918
  125OSM   C13F13365   2.926   1.116   7.798 -0.4091 -0.2963  0.0077
  125OSM   H13F13366   3.002   1.040   7.771 -0.3862 -0.4444  0.4800
  125OSM   H13G13367   2.847   1.065   7.857 -2.6100  0.5128 -2.0872
  125OSM   C14F13368   3.002   1.221   7.884 -0.3096 -0.6050  0.2241
  125OSM   H14F13369   2.927   1.293   7.924  0.9293  0.3699  0.8721
  125OSM   H14G13370   3.073   1.283   7.825 -1.2326  0.3107  0.0406
  125OSM   C15F13371   3.087   1.160   7.991 -0.1885  0.4771  0.4225
  125OSM   H15F13372   3.167   1.236   8.005  0.5940 -0.0353 -1.0621
  125OSM   H15G13373   3.127   1.063   7.955 -0.7763 -1.1517  3.8152
  125OSM   C16F13374   3.007   1.151   8.131  0.3279  0.1641  0.3283
  125OSM   H16F13375   2.915   1.091   8.112 -1.2976  2.4443  0.5138
  125OSM   H16G13376   2.981   1.254   8.166  2.9787  0.5590  1.3749
  125OSM   C17F13377   3.104   1.099   8.237  0.6873 -0.4607  0.0167
  125OSM   H17F13378   3.193   1.164   8.245 -1.0931  2.0052  1.1210
  125OSM   H17G13379   3.146   1.001   8.207 -0.6619  0.0959 -4.4119
  125OSM   C18F13380   3.021   1.098   8.372 -0.1617 -0.1838  0.4419
  125OSM   H18F13381   2.973   1.198   8.381 -0.8079 -0.4846  0.3531
  125OSM   H18G13382   3.098   1.098   8.453  1.6925 -2.7159 -1.1813
  125OSM   H18H13383   2.942   1.020   8.371  0.5408 -0.9110 -0.9397
  126OSM      N13384   0.301   5.040   6.693  0.2894 -0.4982 -0.7036
  126OSM    C1513385   0.419   5.108   6.773  0.8490 -0.6033  0.4031
  126OSM   H15A13386   0.489   5.151   6.702 -2.5653  1.5634 -1.9928
  126OSM   H15B13387   0.469   5.038   6.837  1.0293 -1.8588 -1.0549
  126OSM   H15C13388   0.380   5.192   6.829  0.2309 -0.9629  0.5172
  126OSM    C1413389   0.353   4.907   6.643 -0.4603  0.5284 -0.2995
  126OSM   H14A13390   0.277   4.853   6.590 -0.1017 -0.2823 -0.0018
  126OSM   H14B13391   0.373   4.855   6.736 -2.8258  0.2476  0.1098
  126OSM   H14C13392   0.440   4.926   6.582  0.4729  0.3552  0.9321
  126OSM    C1313393   0.196   5.008   6.793  0.1045  0.1852  0.0462
  126OSM   H13A13394   0.101   4.992   6.745  0.2178  0.6721 -0.3413
  126OSM   H13B13395   0.180   5.093   6.857  0.0848 -0.3160  0.7119
  126OSM   H13C13396   0.216   4.932   6.867  0.6775  0.1214 -0.1655
  126OSM    C1213397   0.250   5.133   6.586  0.1163 -0.2399 -0.0417
  126OSM   H12A13398   0.336   5.157   6.526  1.5280  1.5678  2.4985
  126OSM   H12B13399   0.225   5.231   6.623 -0.1246 -0.3807  0.1775
  126OSM    C1113400   0.131   5.080   6.494 -0.3372 -0.6873 -0.1185
  126OSM   H11A13401   0.162   4.975   6.473  0.0734 -1.8389  5.0201
  126OSM   H11B13402   0.131   5.150   6.407  1.9273  2.0611  1.9417
  126OSM      P13403  -0.108   5.173   6.559  0.0673 -0.3357 -0.2903
  126OSM    O1313404  -0.068   5.295   6.479  0.1514  0.8305  0.2200
  126OSM    O1413405  -0.224   5.096   6.503 -0.2191  0.1318 -0.8392
  126OSM    O1113406  -0.138   5.209   6.709  0.6662 -0.2141 -0.5749
  126OSM    O1213407   0.010   5.064   6.569  0.0779 -0.4493  0.7597
  126OSM    C1S13408  -0.230   5.127   6.791 -0.2868  0.1992  0.1019
  126OSM    H1S13409  -0.218   5.021   6.761 -2.7550 -0.1254  0.0453
  126OSM    H1T13410  -0.333   5.145   6.755  0.2236 -0.9831 -2.1861
  126OSM     NF13411  -0.273   5.058   7.025  0.2939  0.0915  0.2166
  126OSM    HNF13412  -0.354   5.091   7.073 -1.2266  1.0487 -2.7222
  126OSM    C2S13413  -0.211   5.153   6.938 -1.4997 -0.4667 -0.1738
  126OSM    H2S13414  -0.102   5.147   6.960 -1.3678  0.6828 -0.3990
  126OSM    C3S13415  -0.253   5.300   6.975 -0.0594 -0.0547  0.2225
  126OSM    H3S13416  -0.361   5.302   6.953 -0.4514 -3.9498  0.9417
  126OSM     O313417  -0.203   5.391   6.878  0.0388  0.1442  0.0076
  126OSM    HO313418  -0.177   5.336   6.804 -0.5949  0.3383 -0.3701
  126OSM    C4S13419  -0.224   5.344   7.120  0.2410  0.7334  0.0062
  126OSM    H4S13420  -0.290   5.296   7.193 -0.7150 -1.5514 -2.2211
  126OSM    C5S13421  -0.135   5.427   7.168 -0.3839 -0.1163 -0.2192
  126OSM    H5S13422  -0.063   5.471   7.097 -0.2183 -1.6833 -1.0748
  126OSM    C6S13423  -0.121   5.467   7.310  0.3456  0.1448 -0.5851
  126OSM    H6S13424  -0.115   5.578   7.309 -0.0819  0.1738 -0.0274
  126OSM    H6T13425  -0.026   5.427   7.351 -0.4107 -0.0472  1.0712
  126OSM    C7S13426  -0.230   5.421   7.400  0.1074  1.1384  0.1206
  126OSM    H7S13427  -0.245   5.312   7.390 -0.0843  1.2206 -0.5464
  126OSM    H7T13428  -0.331   5.463   7.377 -0.1766 -0.4201 -1.7296
  126OSM    C8S13429  -0.199   5.456   7.547  0.7187 -0.2516 -0.9696
  126OSM    H8S13430  -0.198   5.566   7.561  0.6927 -0.3904  0.2716
  126OSM    H8T13431  -0.093   5.430   7.568  0.3958 -0.6287  0.2934
  126OSM    C9S13432  -0.282   5.384   7.653  0.0656  0.1901  0.5979
  126OSM    H9S13433  -0.266   5.275   7.667  0.7196  0.4624  2.2886
  126OSM    H9T13434  -0.384   5.384   7.611 -0.0425 -4.4600  0.2857
  126OSM   C10S13435  -0.243   5.437   7.790 -0.1709 -0.2901 -0.6937
  126OSM   H10S13436  -0.248   5.548   7.788  3.7329  0.0052 -1.3763
  126OSM   H10T13437  -0.138   5.414   7.817 -1.0299 -0.6027  2.8599
  126OSM   C11S13438  -0.330   5.386   7.910  0.3484  0.2467 -0.1061
  126OSM   H11S13439  -0.320   5.275   7.914 -0.5151  0.1728  0.3104
  126OSM   H11T13440  -0.436   5.401   7.879  0.2409  4.0579  1.5845
  126OSM   C12S13441  -0.320   5.452   8.050 -0.4337  0.2870 -0.2936
  126OSM   H12S13442  -0.354   5.557   8.046 -3.0981 -0.4069  1.4909
  126OSM   H12T13443  -0.214   5.444   8.085  0.0109  1.1783 -1.3714
  126OSM   C13S13444  -0.388   5.389   8.170 -0.4060 -0.0593 -0.7199
  126OSM   H13S13445  -0.364   5.282   8.188  0.5410  0.3942  0.9216
  126OSM   H13T13446  -0.497   5.403   8.154 -0.3915  0.5574 -0.3335
  126OSM   C14S13447  -0.343   5.466   8.296 -0.1692  0.5516  0.0844
  126OSM   H14S13448  -0.363   5.575   8.287 -1.1895  0.3124 -0.7516
  126OSM   H14T13449  -0.238   5.442   8.323 -0.1201  0.7705  0.0905
  126OSM   C15S13450  -0.423   5.431   8.428  0.1296 -0.2290 -0.2113
  126OSM   H15S13451  -0.377   5.493   8.508 -1.1326 -0.1526  0.4868
  126OSM   H15T13452  -0.417   5.322   8.449 -0.9660 -0.0642  1.0729
  126OSM   C16S13453  -0.569   5.473   8.428  0.2185 -0.8396 -0.4034
  126OSM   H16S13454  -0.630   5.436   8.343 -0.9310 -0.2580  0.1378
  126OSM   H16T13455  -0.574   5.582   8.407 -1.1636 -0.6801  0.6212
  126OSM   C17S13456  -0.628   5.434   8.564  0.1483  0.4935 -0.0084
  126OSM   H17S13457  -0.568   5.487   8.641 -1.5250 -0.6136  2.1614
  126OSM   H17T13458  -0.607   5.325   8.571  0.8134  0.7284  2.1503
  126OSM   C18S13459  -0.778   5.474   8.570 -0.2250  0.2311 -0.2111
  126OSM   H18S13460  -0.831   5.409   8.642  0.6359 -0.6350 -0.3429
  126OSM   H18T13461  -0.815   5.449   8.468 -0.5677  1.6203 -0.4582
  126OSM   H18U13462  -0.799   5.583   8.582 -1.0253  0.1251 -0.5905
  126OSM    C1F13463  -0.222   4.933   7.035  0.8849 -0.4210 -0.5787
  126OSM     OF13464  -0.125   4.890   6.967 -0.0138 -0.2660  0.0971
  126OSM    C2F13465  -0.295   4.855   7.144 -0.4486  0.5881 -0.5560
  126OSM    H2F13466  -0.397   4.835   7.105 -0.9930  0.5557  0.8367
  126OSM    H2G13467  -0.300   4.914   7.238  0.5286 -1.5277  0.8897
  126OSM    C3F13468  -0.224   4.723   7.195 -0.0600 -0.3962 -0.0937
  126OSM    H3F13469  -0.127   4.755   7.238 -0.1733 -2.4561  1.8678
  126OSM    H3G13470  -0.188   4.667   7.106  1.7079  2.0157 -1.0036
  126OSM    C4F13471  -0.305   4.634   7.296 -0.4549  0.1414  0.0753
  126OSM    H4F13472  -0.242   4.555   7.341 -1.3508 -0.3445  0.5063
  126OSM    H4G13473  -0.383   4.582   7.237 -0.0756 -1.0971  0.6336
  126OSM    C5F13474  -0.377   4.719   7.402 -1.1255  0.2873  0.3864
  126OSM    H5F13475  -0.451   4.788   7.356 -2.0638  0.0095  1.4014
  126OSM    H5G13476  -0.310   4.794   7.450 -0.7880  0.4118 -0.2700
  126OSM    C6F13477  -0.444   4.621   7.495 -0.0809 -0.1593  0.6026
  126OSM    H6F13478  -0.369   4.545   7.524  0.1771 -0.4406 -0.7215
  126OSM    H6G13479  -0.519   4.564   7.436  0.9230  1.0027 -1.9683
  126OSM    C7F13480  -0.526   4.694   7.607  0.0308  0.6116 -0.2066
  126OSM    H7F13481  -0.596   4.756   7.547  1.5918  1.8740 -0.8224
  126OSM    H7G13482  -0.456   4.768   7.653  3.3056 -0.9238 -2.3168
  126OSM    C8F13483  -0.603   4.608   7.704 -0.2842  0.2225 -0.3085
  126OSM    H8F13484  -0.659   4.525   7.656  0.4741 -0.2110 -0.4747
  126OSM    H8G13485  -0.673   4.673   7.760  0.5732 -0.2974  1.4282
  126OSM    C9F13486  -0.494   4.552   7.798 -0.3219  0.0914 -0.2285
  126OSM    H9F13487  -0.428   4.478   7.750 -1.1547 -0.6221 -0.2839
  126OSM   C10F13488  -0.473   4.582   7.929  0.1415  0.6643  0.2938
  126OSM   H10F13489  -0.393   4.525   7.978 -1.2555 -0.7841  0.9915
  126OSM   C11F13490  -0.544   4.672   8.019  0.0412 -0.1932  0.1490
  126OSM   H11F13491  -0.647   4.693   7.985  0.0615  1.9572  1.2676
  126OSM   H11G13492  -0.489   4.769   8.019  0.3116 -0.2917 -2.0747
  126OSM   C12F13493  -0.557   4.613   8.158  1.5734  0.1525 -0.5516
  126OSM   H12F13494  -0.585   4.506   8.157 -0.4766  0.5975  1.0580
  126OSM   H12G13495  -0.646   4.652   8.213  0.7834 -0.0678 -1.6553
  126OSM   C13F13496  -0.427   4.634   8.237  0.1057 -0.7965 -0.3311
  126OSM   H13F13497  -0.404   4.743   8.231  0.7783 -0.8195  1.3593
  126OSM   H13G13498  -0.342   4.578   8.192 -0.0433 -1.0083 -0.3493
  126OSM   C14F13499  -0.435   4.611   8.389 -0.0736 -0.0530 -0.0421
  126OSM   H14F13500  -0.450   4.505   8.419  0.2311  0.5185  2.3924
  126OSM   H14G13501  -0.519   4.669   8.433 -1.0053 -1.0155 -0.4936
  126OSM   C15F13502  -0.311   4.661   8.475 -0.3989  0.0997 -0.6809
  126OSM   H15F13503  -0.282   4.764   8.444  3.3211 -1.0024 -1.4437
  126OSM   H15G13504  -0.224   4.596   8.450 -0.3248  0.4072 -1.2496
  126OSM   C16F13505  -0.344   4.659   8.628 -0.5621  0.1036 -0.4441
  126OSM   H16F13506  -0.288   4.578   8.679 -0.2891  0.6803  0.1857
  126OSM   H16G13507  -0.452   4.637   8.639 -1.1802  1.8228 -2.4594
  126OSM   C17F13508  -0.316   4.788   8.704  0.3265  0.4977 -0.0975
  126OSM   H17F13509  -0.207   4.806   8.700  0.3023  0.4911 -0.8040
  126OSM   H17G13510  -0.356   4.785   8.808 -0.1342 -0.7588 -0.2966
  126OSM   C18F13511  -0.383   4.917   8.641  0.3144  0.4492  0.3070
  126OSM   H18F13512  -0.397   4.995   8.719 -1.0526 -1.1023  1.6956
  126OSM   H18G13513  -0.489   4.897   8.615  0.8059 -0.2641 -1.3107
  126OSM   H18H13514  -0.345   4.952   8.542  2.0305 -1.1711  0.3313
  127OSM      N13515   3.993   6.578   6.117  0.1106 -0.7815  0.2052
  127OSM    C1513516   3.963   6.730   6.120  0.1925 -0.4861 -0.5103
  127OSM   H15A13517   4.049   6.790   6.096 -0.4987  1.5313  1.7556
  127OSM   H15B13518   3.919   6.756   6.215  1.0980  0.8263 -0.4253
  127OSM   H15C13519   3.887   6.758   6.048 -0.8323  1.8790  1.3638
  127OSM    C1413520   3.863   6.508   6.092  0.1298 -0.1471  0.1639
  127OSM   H14A13521   3.891   6.404   6.095  0.7647  0.0261  0.3892
  127OSM   H14B13522   3.823   6.538   5.997  2.5203  2.2665 -0.1897
  127OSM   H14C13523   3.792   6.517   6.174  0.6658  1.0186  0.5263
  127OSM    C1313524   4.079   6.546   6.005  0.5515  0.3706  0.0169
  127OSM   H13A13525   4.167   6.608   6.015 -0.7853  2.3010  0.3697
  127OSM   H13B13526   4.032   6.572   5.911  1.9388 -1.1424 -1.1550
  127OSM   H13C13527   4.098   6.440   6.000  2.9154  0.7904 -0.8671
  127OSM    C1213528   4.067   6.520   6.236 -0.3696 -0.1275 -0.1705
  127OSM   H12A13529   4.172   6.547   6.232 -0.8260  1.9007  0.5054
  127OSM   H12B13530   4.067   6.413   6.221  0.6053 -0.5103  2.0666
  127OSM    C1113531   4.012   6.553   6.379 -0.7185 -0.4151  0.1573
  127OSM   H11A13532   4.010   6.664   6.389  0.7196 -0.4950  1.7389
  127OSM   H11B13533   4.084   6.521   6.457  0.5719  1.9832  0.0401
  127OSM      P13534   3.883   6.341   6.419 -0.1011  0.1450  0.1921
  127OSM    O1313535   3.744   6.289   6.386  0.5923  0.1105  0.1190
  127OSM    O1413536   3.993   6.265   6.351 -0.3541  0.1067 -0.2170
  127OSM    O1113537   3.902   6.338   6.571 -0.2015  0.8782 -0.7504
  127OSM    O1213538   3.885   6.494   6.400  0.4783 -0.1721  0.0721
  127OSM    C1S13539   3.880   6.211   6.638 -0.4526 -0.1296 -0.4331
  127OSM    H1S13540   3.944   6.127   6.605 -0.0899 -0.2666  0.5745
  127OSM    H1T13541   3.776   6.174   6.631  0.0581 -1.6445 -0.4267
  127OSM     NF13542   3.916   6.081   6.849 -0.5932 -0.2876 -0.3473
  127OSM    HNF13543   3.852   6.061   6.923  0.8436  0.4189  1.1559
  127OSM    C2S13544   3.912   6.221   6.791 -0.6317 -0.1961 -0.3106
  127OSM    H2S13545   4.017   6.255   6.799  0.5852 -2.3795 -4.1247
  127OSM    C3S13546   3.820   6.323   6.868  0.2756  0.1974 -0.3544
  127OSM    H3S13547   3.720   6.275   6.879 -0.6510  1.9712 -0.6810
  127OSM     O313548   3.801   6.449   6.806 -0.0389 -0.2950  0.2811
  127OSM    HO313549   3.819   6.420   6.716 -0.5174  0.7519 -0.1744
  127OSM    C4S13550   3.880   6.354   7.005  0.0762  0.3723  0.9938
  127OSM    H4S13551   3.954   6.435   7.001  1.2571 -0.6834  1.1469
  127OSM    C5S13552   3.835   6.311   7.123  0.6314 -0.1907 -0.0292
  127OSM    H5S13553   3.743   6.250   7.129  1.1093 -1.0413 -1.0911
  127OSM    C6S13554   3.894   6.350   7.258 -0.0438 -0.9429 -0.4285
  127OSM    H6S13555   3.972   6.427   7.246 -1.2681  0.4174  0.0418
  127OSM    H6T13556   3.947   6.260   7.296  2.6987  1.4700  1.8062
  127OSM    C7S13557   3.786   6.402   7.356  0.5049  0.3757  0.9007
  127OSM    H7S13558   3.705   6.458   7.306  0.6946  1.0832  1.3788
  127OSM    H7T13559   3.825   6.464   7.439  0.9177  0.4515  0.6504
  127OSM    C8S13560   3.712   6.293   7.424 -0.4928  0.8710  0.3752
  127OSM    H8S13561   3.783   6.208   7.434  2.6035  3.0575 -1.3573
  127OSM    H8T13562   3.643   6.244   7.352  0.1304 -0.8009  0.8644
  127OSM    C9S13563   3.613   6.329   7.537  0.3289 -0.3789  1.0105
  127OSM    H9S13564   3.509   6.294   7.520  0.3526  0.2710 -0.6464
  127OSM    H9T13565   3.607   6.440   7.544 -0.5273 -0.3149 -0.5067
  127OSM   C10S13566   3.656   6.279   7.675 -0.0759  0.5558 -1.2343
  127OSM   H10S13567   3.747   6.326   7.718 -0.1331 -1.1001  0.8503
  127OSM   H10T13568   3.688   6.173   7.674  0.9043  0.7926  1.0062
  127OSM   C11S13569   3.550   6.300   7.788 -0.2727 -0.0745  0.6510
  127OSM   H11S13570   3.450   6.268   7.754 -0.0844  0.9901 -1.0252
  127OSM   H11T13571   3.541   6.409   7.809 -0.5350  0.6236 -2.5563
  127OSM   C12S13572   3.579   6.208   7.905 -0.1488  0.1073  0.0537
  127OSM   H12S13573   3.681   6.221   7.946  0.3691  0.4888 -1.2929
  127OSM   H12T13574   3.571   6.100   7.877  1.6003  0.0301 -0.3025
  127OSM   C13S13575   3.481   6.247   8.012  0.2194  0.6089 -0.7353
  127OSM   H13S13576   3.378   6.224   7.976 -1.2350 -1.7527  4.0110
  127OSM   H13T13577   3.492   6.356   8.030 -2.4277  1.2694 -2.4434
  127OSM   C14S13578   3.496   6.156   8.135 -0.3353  0.3725  0.5071
  127OSM   H14S13579   3.464   6.219   8.220  1.2297  0.7764  0.8303
  127OSM   H14T13580   3.602   6.125   8.147 -1.4899 -4.1960  0.7765
  127OSM   C15S13581   3.410   6.029   8.131 -0.3565  0.2466  0.8514
  127OSM   H15S13582   3.451   5.975   8.043 -1.6121 -0.2597  0.5458
  127OSM   H15T13583   3.307   6.062   8.106 -0.3859 -1.1652 -1.1124
  127OSM   C16S13584   3.434   5.952   8.259  0.6573  0.0200  1.2809
  127OSM   H16S13585   3.407   6.016   8.345 -2.6520  1.5338 -0.7041
  127OSM   H16T13586   3.538   5.912   8.264  1.5713  2.1608  0.4527
  127OSM   C17S13587   3.332   5.834   8.280  0.0138 -0.2685  0.5171
  127OSM   H17S13588   3.340   5.765   8.193  1.5762  0.0039  0.4139
  127OSM   H17T13589   3.234   5.886   8.272  0.0116 -0.5152 -1.7600
  127OSM   C18S13590   3.347   5.751   8.406 -0.3244  0.7282  0.1380
  127OSM   H18S13591   3.424   5.671   8.401 -0.8231  0.3303 -2.0985
  127OSM   H18T13592   3.249   5.701   8.417 -0.2687  0.3902 -0.8371
  127OSM   H18U13593   3.367   5.826   8.486  0.8467  2.2348 -1.4918
  127OSM    C1F13594   4.029   6.003   6.828  0.3641  0.0513  0.3337
  127OSM     OF13595   4.126   6.049   6.769  0.6468 -0.5733  0.4290
  127OSM    C2F13596   4.021   5.860   6.877  0.3543 -0.0486 -0.3668
  127OSM    H2F13597   4.003   5.792   6.791  0.8154  2.3768 -2.5104
  127OSM    H2G13598   3.941   5.849   6.953  0.1290 -0.0377 -0.6032
  127OSM    C3F13599   4.142   5.809   6.951 -0.1542 -0.2478  0.3828
  127OSM    H3F13600   4.230   5.822   6.884 -0.3866  1.8080  0.4230
  127OSM    H3G13601   4.133   5.699   6.958 -0.5731 -0.2682 -0.3973
  127OSM    C4F13602   4.197   5.867   7.083 -0.4084 -0.5777 -0.2612
  127OSM    H4F13603   4.231   5.971   7.064  0.5001 -1.1068 -1.6796
  127OSM    H4G13604   4.277   5.798   7.118  0.4211 -0.6591 -2.2090
  127OSM    C5F13605   4.087   5.888   7.190  0.2013 -0.7439 -0.2029
  127OSM    H5F13606   4.047   5.788   7.217 -1.9197  0.2334  0.4660
  127OSM    H5G13607   4.004   5.936   7.135  0.9856 -0.1827 -0.9293
  127OSM    C6F13608   4.124   5.966   7.314  0.3818  0.5590 -0.6755
  127OSM    H6F13609   4.149   6.067   7.275  1.0641  0.5284 -0.3430
  127OSM    H6G13610   4.216   5.927   7.363  0.9782  1.6362 -0.9119
  127OSM    C7F13611   4.010   5.977   7.408 -0.6423  0.0913 -0.1426
  127OSM    H7F13612   3.980   5.871   7.424 -1.1143  0.2152 -0.1863
  127OSM    H7G13613   3.927   6.025   7.353  0.7184  1.8507 -0.7457
  127OSM    C8F13614   4.026   6.047   7.544 -0.0128 -0.1454 -0.5558
  127OSM    H8F13615   3.925   6.047   7.590  0.1219 -0.6526 -0.2487
  127OSM    H8G13616   4.037   6.156   7.525  2.8923  0.0114  1.2246
  127OSM    C9F13617   4.150   6.005   7.622  0.6884  0.1409  0.0574
  127OSM    H9F13618   4.246   6.033   7.577  0.4786  0.9128  0.0644
  127OSM   C10F13619   4.145   5.945   7.740 -1.6234 -0.4239 -0.0017
  127OSM   H10F13620   4.243   5.945   7.791 -0.1652 -0.6106 -2.6280
  127OSM   C11F13621   4.024   5.896   7.826  0.3594 -0.0633 -0.9730
  127OSM   H11F13622   4.047   5.790   7.849 -0.1994  0.2407  1.1608
  127OSM   H11G13623   3.929   5.898   7.768 -1.7220  0.0397  2.1945
  127OSM   C12F13624   3.998   5.972   7.962 -0.5854  0.6012 -1.1595
  127OSM   H12F13625   3.962   6.076   7.947 -1.3671  0.3766 -0.9021
  127OSM   H12G13626   4.091   5.966   8.023 -0.7234  1.8452 -0.8077
  127OSM   C13F13627   3.893   5.887   8.037 -0.5287  0.2801  0.4433
  127OSM   H13F13628   3.939   5.788   8.058 -1.4891 -0.4483 -0.7911
  127OSM   H13G13629   3.797   5.875   7.982  0.3169  0.8251 -1.2158
  127OSM   C14F13630   3.851   5.944   8.169 -0.0013 -0.3209 -0.8317
  127OSM   H14F13631   3.755   5.998   8.153 -0.8148 -1.8752 -1.3188
  127OSM   H14G13632   3.931   6.007   8.213 -1.2692 -1.1122  2.9858
  127OSM   C15F13633   3.813   5.839   8.281 -0.4263 -0.4263  0.4087
  127OSM   H15F13634   3.885   5.754   8.284  1.4533  1.1138  1.5442
  127OSM   H15G13635   3.710   5.809   8.253 -0.9327  2.3307 -1.0315
  127OSM   C16F13636   3.821   5.887   8.422  0.1575  0.0242 -0.6339
  127OSM   H16F13637   3.773   5.988   8.428  0.2801  0.1835 -2.0508
  127OSM   H16G13638   3.924   5.906   8.460 -0.0268  0.9691 -0.5755
  127OSM   C17F13639   3.751   5.791   8.520 -0.2818  0.2694 -0.6861
  127OSM   H17F13640   3.789   5.687   8.513 -1.0210 -0.2781  2.2643
  127OSM   H17G13641   3.650   5.793   8.473 -0.1974 -1.6369 -0.9954
  127OSM   C18F13642   3.755   5.832   8.670  0.0149  0.4360  0.2805
  127OSM   H18F13643   3.685   5.918   8.672 -0.9705 -0.3373  0.2448
  127OSM   H18G13644   3.860   5.843   8.704 -0.9051  2.9779  2.7552
  127OSM   H18H13645   3.705   5.756   8.735 -2.7897  1.2183 -0.8014
  128OSM      N13646   6.296   2.013   6.039 -0.1394  0.1217 -0.6597
  128OSM    C1513647   6.275   1.875   6.089 -0.7191 -0.3522 -0.6749
  128OSM   H15A13648   6.233   1.858   6.187 -0.4911  0.0992 -0.4949
  128OSM   H15B13649   6.369   1.822   6.095 -0.2754  0.3225 -1.4252
  128OSM   H15C13650   6.219   1.807   6.025 -0.9488 -1.1695  0.3650
  128OSM    C1413651   6.334   2.028   5.899 -0.3808 -0.9986  0.3161
  128OSM   H14A13652   6.421   1.965   5.891  0.1570 -0.9942  4.3355
  128OSM   H14B13653   6.356   2.131   5.874 -1.6431 -0.0165  2.9115
  128OSM   H14C13654   6.252   1.993   5.838 -1.0348 -0.7154  1.0193
  128OSM    C1313655   6.155   2.077   6.051 -0.1490 -0.0863  0.4575
  128OSM   H13A13656   6.165   2.184   6.058  1.6400 -0.1043 -1.0790
  128OSM   H13B13657   6.105   2.041   6.140  0.5581  0.7824  1.2321
  128OSM   H13C13658   6.090   2.053   5.968 -1.8235 -0.0332  1.7056
  128OSM    C1213659   6.393   2.074   6.135  0.4217  0.5040  0.6460
  128OSM   H12A13660   6.432   2.168   6.099  1.8467  0.1763  1.2886
  128OSM   H12B13661   6.490   2.031   6.117  0.7040  1.5207 -0.4722
  128OSM    C1113662   6.352   2.091   6.276  0.2215  0.1585  0.5423
  128OSM   H11A13663   6.441   2.109   6.340  2.6059  0.1572 -2.5769
  128OSM   H11B13664   6.313   1.991   6.306 -0.7971  0.0404 -1.0634
  128OSM      P13665   6.292   2.333   6.296  0.1532 -0.0903 -0.4563
  128OSM    O1313666   6.351   2.345   6.162  0.0435 -0.5691  0.1889
  128OSM    O1413667   6.183   2.432   6.329  0.2506  0.1966  0.0492
  128OSM    O1113668   6.394   2.355   6.415 -0.1226  0.4409  0.1309
  128OSM    O1213669   6.249   2.189   6.305 -0.1820  0.5187  0.3462
  128OSM    C1S13670   6.350   2.299   6.544  0.0272 -0.3666  0.2479
  128OSM    H1S13671   6.366   2.190   6.534  1.0566 -0.2254  0.2559
  128OSM    H1T13672   6.243   2.326   6.557 -0.4325 -1.5852 -0.8605
  128OSM     NF13673   6.407   2.293   6.786  0.1640 -0.0092 -0.2825
  128OSM    HNF13674   6.338   2.348   6.833  0.5903  3.5021 -3.2965
  128OSM    C2S13675   6.444   2.349   6.658  0.4914  0.1095 -0.2885
  128OSM    H2S13676   6.542   2.315   6.619  0.4152  1.9510 -2.2628
  128OSM    C3S13677   6.445   2.501   6.664  0.0218 -0.4963 -0.2917
  128OSM    H3S13678   6.345   2.542   6.684  0.6294  0.6560  0.4443
  128OSM     O313679   6.469   2.565   6.539  0.0032 -0.0884  0.2099
  128OSM    HO313680   6.465   2.494   6.474  0.1134 -1.0851  1.2732
  128OSM    C4S13681   6.541   2.556   6.765 -0.3825 -0.6521  0.0207
  128OSM    H4S13682   6.644   2.550   6.728 -0.5947  1.7557 -1.2191
  128OSM    C5S13683   6.507   2.616   6.884  0.0961 -0.0846  0.5208
  128OSM    H5S13684   6.406   2.602   6.924 -0.3784  0.5096 -0.4343
  128OSM    C6S13685   6.611   2.674   6.979 -0.2875 -0.3596 -0.5114
  128OSM    H6S13686   6.587   2.783   6.982 -1.8594 -0.6891  1.9918
  128OSM    H6T13687   6.716   2.661   6.947 -0.1065 -3.4786  0.9720
  128OSM    C7S13688   6.612   2.616   7.127  0.5246  0.1884  0.4701
  128OSM    H7S13689   6.705   2.649   7.178  0.2090  2.7091 -0.4578
  128OSM    H7T13690   6.618   2.506   7.115  0.0595  0.4231 -3.2662
  128OSM    C8S13691   6.489   2.657   7.211  0.4024 -0.8240  0.0442
  128OSM    H8S13692   6.407   2.588   7.182  1.1819 -1.4845 -0.6355
  128OSM    H8T13693   6.463   2.761   7.184  2.0997 -0.2606  0.4542
  128OSM    C9S13694   6.495   2.655   7.364 -0.2286  0.4652  0.0480
  128OSM    H9S13695   6.544   2.564   7.405 -0.3188  0.7280  0.7434
  128OSM    H9T13696   6.391   2.646   7.403  0.2542 -3.8714  0.8222
  128OSM   C10S13697   6.556   2.773   7.439 -0.7572  0.1096  0.4393
  128OSM   H10S13698   6.519   2.868   7.396  2.8863  0.5240 -2.2476
  128OSM   H10T13699   6.665   2.769   7.416 -1.0618 -0.9358 -0.9715
  128OSM   C11S13700   6.540   2.770   7.591  0.2223  0.3297  0.0130
  128OSM   H11S13701   6.584   2.672   7.619  1.1444  1.0378  1.1191
  128OSM   H11T13702   6.433   2.774   7.617  0.3329 -0.1368  0.5536
  128OSM   C12S13703   6.619   2.879   7.659 -0.7058 -0.3718 -0.6858
  128OSM   H12S13704   6.599   2.984   7.632  2.3701  0.5929  0.3710
  128OSM   H12T13705   6.727   2.861   7.643 -0.5677 -0.0339 -0.1291
  128OSM   C13S13706   6.609   2.884   7.811 -0.1963 -0.6408 -0.2108
  128OSM   H13S13707   6.640   2.786   7.853  1.7847 -0.7885 -1.8492
  128OSM   H13T13708   6.499   2.889   7.828 -0.2607 -3.0058  0.4136
  128OSM   C14S13709   6.686   2.990   7.884 -0.3849  0.1279  0.0941
  128OSM   H14S13710   6.633   3.086   7.868  1.3451  1.0930 -0.0860
  128OSM   H14T13711   6.790   2.999   7.845  0.3187 -2.1855  1.2331
  128OSM   C15S13712   6.695   2.970   8.033  0.5783 -0.4189 -1.3026
  128OSM   H15S13713   6.725   2.865   8.053 -0.0485 -0.2522  0.8527
  128OSM   H15T13714   6.592   2.974   8.075  1.0674 -0.7243  0.0000
  128OSM   C16S13715   6.779   3.079   8.102  0.2079  0.0200 -1.6432
  128OSM   H16S13716   6.748   3.181   8.070  1.4628  1.4284  1.2421
  128OSM   H16T13717   6.883   3.060   8.068  0.3077 -1.7229 -0.4776
  128OSM   C17S13718   6.780   3.077   8.257 -0.2468  0.0397 -0.2888
  128OSM   H17S13719   6.829   2.984   8.293 -0.0358  0.0861 -0.4548
  128OSM   H17T13720   6.679   3.092   8.302  1.2583  2.3167  2.6757
  128OSM   C18S13721   6.867   3.187   8.303  0.0086  0.0019 -0.0776
  128OSM   H18S13722   6.821   3.280   8.261 -0.9122 -0.3747  0.0679
  128OSM   H18T13723   6.972   3.188   8.268 -0.2694  3.5724 -1.2296
  128OSM   H18U13724   6.861   3.190   8.414 -1.2925  0.4462 -0.1359
  128OSM    C1F13725   6.436   2.155   6.800  0.1521 -0.6227 -0.7154
  128OSM     OF13726   6.515   2.105   6.729 -0.5658  0.2782  0.0962
  128OSM    C2F13727   6.361   2.081   6.907 -0.2895 -0.5431 -0.0708
  128OSM    H2F13728   6.265   2.134   6.918  1.1889  2.4514 -0.6227
  128OSM    H2G13729   6.419   2.093   7.001 -0.2971  0.3436 -0.1784
  128OSM    C3F13730   6.349   1.925   6.883  0.3081 -0.7334  0.6311
  128OSM    H3F13731   6.450   1.886   6.861 -0.2852 -1.3372 -1.2711
  128OSM    H3G13732   6.273   1.912   6.802  2.1149 -0.1987 -1.2426
  128OSM    C4F13733   6.288   1.857   7.004  0.5179 -0.2700 -0.0910
  128OSM    H4F13734   6.278   1.750   6.976  0.2757 -0.5312  0.9424
  128OSM    H4G13735   6.183   1.892   7.018  0.1292 -1.9080  1.5151
  128OSM    C5F13736   6.382   1.858   7.125  0.6654  0.0376  0.8511
  128OSM    H5F13737   6.400   1.964   7.155  0.5364  0.6007 -0.9543
  128OSM    H5G13738   6.472   1.801   7.095  1.9159  1.5211  1.5991
  128OSM    C6F13739   6.300   1.792   7.235  0.3924 -0.5107 -0.1538
  128OSM    H6F13740   6.291   1.685   7.208 -0.0619 -0.3993 -0.4561
  128OSM    H6G13741   6.201   1.840   7.250  1.4641  1.2830  1.9477
  128OSM    C7F13742   6.355   1.809   7.379 -0.0040  0.0736 -0.3794
  128OSM    H7F13743   6.378   1.911   7.414  0.6900 -0.5141  0.9457
  128OSM    H7G13744   6.449   1.750   7.379 -0.9814 -1.5419 -0.3797
  128OSM    C8F13745   6.265   1.748   7.487 -1.0847  0.1324 -0.0654
  128OSM    H8F13746   6.241   1.647   7.449 -0.7521  0.0741 -0.1198
  128OSM    H8G13747   6.173   1.810   7.499 -1.4993 -0.2249 -1.2924
  128OSM    C9F13748   6.335   1.744   7.623 -0.0695 -0.1916 -0.2802
  128OSM    H9F13749   6.351   1.837   7.679 -1.1078 -0.0218 -0.2384
  128OSM   C10F13750   6.381   1.638   7.684  0.3582  0.1260  0.0824
  128OSM   H10F13751   6.428   1.645   7.783 -0.1745  1.7956  0.2488
  128OSM   C11F13752   6.379   1.497   7.633  0.1529 -0.1052  0.3043
  128OSM   H11F13753   6.479   1.453   7.651  0.2649 -1.1218 -2.3159
  128OSM   H11G13754   6.357   1.492   7.524  0.7674  1.2616  0.1073
  128OSM   C12F13755   6.287   1.409   7.727  0.3611  0.3780  0.6873
  128OSM   H12F13756   6.314   1.301   7.725  3.3780  1.0654  0.7750
  128OSM   H12G13757   6.180   1.425   7.699 -0.0362  0.0122  1.9359
  128OSM   C13F13758   6.289   1.451   7.869  0.9705  1.0309 -0.6787
  128OSM   H13F13759   6.238   1.548   7.885 -1.0327 -0.3179  2.0017
  128OSM   H13G13760   6.395   1.459   7.900  0.4196  2.8388  0.9338
  128OSM   C14F13761   6.213   1.352   7.964 -0.5493 -0.7095 -0.2315
  128OSM   H14F13762   6.248   1.249   7.944  1.9830  0.1563 -0.6053
  128OSM   H14G13763   6.108   1.382   7.940  0.1999  0.5765 -2.1773
  128OSM   C15F13764   6.229   1.374   8.116  0.3663  0.3305  0.4902
  128OSM   H15F13765   6.192   1.478   8.128  2.1018  1.1359 -0.6873
  128OSM   H15G13766   6.337   1.380   8.143  0.7499 -2.2929 -0.2189
  128OSM   C16F13767   6.159   1.265   8.204 -0.6608 -0.0823 -0.0783
  128OSM   H16F13768   6.195   1.162   8.186  0.0431  0.2564 -0.6534
  128OSM   H16G13769   6.051   1.278   8.182 -0.2469  2.1740 -1.0986
  128OSM   C17F13770   6.183   1.297   8.353  0.2239 -0.1257 -0.1302
  128OSM   H17F13771   6.137   1.394   8.382  0.5740  0.4205 -1.3523
  128OSM   H17G13772   6.290   1.323   8.369 -0.3557  0.8118  2.7849
  128OSM   C18F13773   6.123   1.200   8.457 -0.7564  0.9498 -0.6561
  128OSM   H18F13774   6.016   1.190   8.428 -0.6607  1.6043 -1.2617
  128OSM   H18G13775   6.130   1.254   8.553 -0.5800 -0.8228  0.3699
  128OSM   H18H13776   6.167   1.099   8.476 -0.8133  0.4593 -2.8569
  129OSM      N13777   4.639   5.030   6.500 -0.7570  0.2429 -0.9754
  129OSM    C1513778   4.672   5.050   6.356 -0.1709  0.1156  0.6263
  129OSM   H15A13779   4.706   4.952   6.326 -3.3202 -0.8042 -0.2686
  129OSM   H15B13780   4.756   5.117   6.344  1.2746 -1.8999 -1.1095
  129OSM   H15C13781   4.591   5.081   6.292 -0.5546  1.0856  1.5548
  129OSM    C1413782   4.772   4.998   6.561  0.0588 -0.3818  0.1914
  129OSM   H14A13783   4.764   4.984   6.668 -0.1306  2.5189  0.6230
  129OSM   H14B13784   4.840   5.074   6.525 -0.6335 -0.4403 -1.3088
  129OSM   H14C13785   4.798   4.907   6.509 -1.3675 -1.1948  0.8556
  129OSM    C1313786   4.576   5.157   6.554 -0.9110 -0.5532 -0.0391
  129OSM   H13A13787   4.476   5.178   6.517 -0.9818  1.1393  1.0297
  129OSM   H13B13788   4.633   5.245   6.528  0.3023 -1.1477  0.5670
  129OSM   H13C13789   4.582   5.144   6.661  2.4004  1.7326  0.1911
  129OSM    C1213790   4.542   4.912   6.513 -0.8086 -0.3518 -0.6025
  129OSM   H12A13791   4.455   4.946   6.460  0.0446  0.8887 -1.2396
  129OSM   H12B13792   4.512   4.913   6.617  0.4279 -3.0965 -0.1177
  129OSM    C1113793   4.589   4.770   6.473 -0.4613  0.2181  0.0108
  129OSM   H11A13794   4.510   4.693   6.466 -0.9982  0.8782 -1.8750
  129OSM   H11B13795   4.666   4.733   6.543 -1.5034 -2.7699 -0.2767
  129OSM      P13796   4.766   4.652   6.312  0.1502  0.0751 -0.0915
  129OSM    O1313797   4.746   4.600   6.173  0.1238 -0.6296 -0.6047
  129OSM    O1413798   4.897   4.710   6.325 -0.1928 -0.2881 -0.4216
  129OSM    O1113799   4.737   4.531   6.407  0.2260 -0.0055 -0.3864
  129OSM    O1213800   4.653   4.764   6.340  0.0669  0.1285 -0.5570
  129OSM    C1S13801   4.810   4.507   6.529  0.5950  0.6915  0.5518
  129OSM    H1S13802   4.813   4.599   6.591  0.3570  1.1333 -0.0813
  129OSM    H1T13803   4.918   4.492   6.508  0.7877  1.0733  1.2429
  129OSM     NF13804   4.838   4.347   6.724  0.2906 -0.2120 -0.2728
  129OSM    HNF13805   4.885   4.259   6.724  2.7219  1.0210 -0.6527
  129OSM    C2S13806   4.749   4.380   6.610  0.4334 -0.3579 -0.3099
  129OSM    H2S13807   4.651   4.414   6.651  0.8902  0.4518  0.1235
  129OSM    C3S13808   4.721   4.260   6.511 -0.5742  0.3938 -0.5383
  129OSM    H3S13809   4.819   4.236   6.465 -1.5686 -0.6980 -2.2136
  129OSM     O313810   4.635   4.288   6.402 -0.3373 -0.4007  0.0996
  129OSM    HO313811   4.636   4.384   6.404 -1.7803 -0.3730  1.0044
  129OSM    C4S13812   4.674   4.139   6.586 -0.5282 -0.9985 -0.4233
  129OSM    H4S13813   4.758   4.072   6.611 -0.2512  0.1027  1.7988
  129OSM    C5S13814   4.553   4.099   6.622 -0.1421  0.2004 -0.2446
  129OSM    H5S13815   4.467   4.156   6.587 -0.0782  0.0098 -0.7198
  129OSM    C6S13816   4.529   3.969   6.699  0.8572  0.1947 -0.2774
  129OSM    H6S13817   4.618   3.903   6.689  1.4383  1.0686 -1.1752
  129OSM    H6T13818   4.443   3.913   6.658 -0.3946  0.2352  2.1582
  129OSM    C7S13819   4.501   4.006   6.852  0.4365 -0.1269  0.2471
  129OSM    H7S13820   4.479   3.907   6.898 -0.5677  0.6370  1.4914
  129OSM    H7T13821   4.401   4.055   6.848 -0.2403 -1.4786  0.0485
  129OSM    C8S13822   4.605   4.094   6.921 -0.1049  0.5297 -0.3174
  129OSM    H8S13823   4.590   4.204   6.915 -2.0643  0.3443  0.2739
  129OSM    H8T13824   4.706   4.065   6.885  0.6583  0.7439  1.5130
  129OSM    C9S13825   4.614   4.047   7.070 -0.2961  0.4527  0.2749
  129OSM    H9S13826   4.645   3.941   7.058 -3.0972 -0.1695 -2.6627
  129OSM    H9T13827   4.512   4.032   7.110 -0.1405 -1.1049  0.1580
  129OSM   C10S13828   4.692   4.126   7.163  0.4385  0.3198  0.2067
  129OSM   H10S13829   4.664   4.231   7.140  1.1555  0.4928  0.0833
  129OSM   H10T13830   4.802   4.116   7.148  0.4798 -0.6481  1.0980
  129OSM   C11S13831   4.657   4.100   7.310  0.1284  0.1383  0.1280
  129OSM   H11S13832   4.712   4.006   7.335 -2.0103 -1.5365 -1.1107
  129OSM   H11T13833   4.549   4.075   7.313 -0.0383  0.4025 -2.0583
  129OSM   C12S13834   4.695   4.231   7.377 -0.3491  1.0559 -0.4759
  129OSM   H12S13835   4.639   4.321   7.347 -3.8147 -0.3262  1.2634
  129OSM   H12T13836   4.799   4.249   7.343 -1.2686  1.4479 -3.2642
  129OSM   C13S13837   4.715   4.209   7.524  0.4584  0.3359  0.6921
  129OSM   H13S13838   4.795   4.136   7.548 -0.4465  0.0851  3.2492
  129OSM   H13T13839   4.622   4.163   7.565  1.2839  0.9192  3.4367
  129OSM   C14S13840   4.730   4.337   7.604 -0.2344 -0.2236 -0.9990
  129OSM   H14S13841   4.643   4.345   7.673  0.7434  0.6987  0.1769
  129OSM   H14T13842   4.721   4.425   7.537 -1.1717 -0.0831 -0.7046
  129OSM   C15S13843   4.862   4.347   7.684  0.0879 -0.2864 -0.2541
  129OSM   H15S13844   4.936   4.380   7.608 -0.0354  2.1196  0.6041
  129OSM   H15T13845   4.888   4.249   7.729 -1.8331 -1.4951 -1.5850
  129OSM   C16S13846   4.859   4.463   7.786  0.4981 -0.3722  0.2901
  129OSM   H16S13847   4.786   4.430   7.863  0.6325 -1.4256 -0.0209
  129OSM   H16T13848   4.826   4.565   7.754 -0.0955 -0.8869 -0.8108
  129OSM   C17S13849   5.001   4.491   7.848 -0.2097  0.9414  0.6438
  129OSM   H17S13850   5.048   4.393   7.871 -1.2482 -0.0737 -1.2705
  129OSM   H17T13851   4.974   4.539   7.944 -2.1712  0.6600  0.2832
  129OSM   C18S13852   5.099   4.572   7.760  0.1212  0.1382 -0.3323
  129OSM   H18S13853   5.068   4.678   7.755  1.7695  0.6655  0.1556
  129OSM   H18T13854   5.106   4.534   7.656 -1.1155 -0.2042 -0.3061
  129OSM   H18U13855   5.202   4.569   7.801 -0.0499  2.4680  0.3755
  129OSM    C1F13856   4.861   4.435   6.830 -0.0881  0.1994  0.6931
  129OSM     OF13857   4.810   4.549   6.828  0.2767 -0.4587  0.9809
  129OSM    C2F13858   4.937   4.378   6.944 -0.0628  0.3027 -0.1564
  129OSM    H2F13859   5.015   4.306   6.911 -0.0590 -1.5001  3.3250
  129OSM    H2G13860   4.861   4.312   6.993 -1.7111  0.1771 -2.7151
  129OSM    C3F13861   4.987   4.473   7.043 -0.8269 -0.0825 -0.1944
  129OSM    H3F13862   4.913   4.549   7.076  2.4333  1.9541  3.2849
  129OSM    H3G13863   5.073   4.536   7.014 -0.8426  0.0793  0.0982
  129OSM    C4F13864   5.023   4.393   7.171  0.2653  0.0711  0.1711
  129OSM    H4F13865   5.098   4.315   7.144  1.8985  2.0044 -1.2273
  129OSM    H4G13866   4.929   4.347   7.206 -0.0381  0.8448  0.3761
  129OSM    C5F13867   5.093   4.471   7.275  0.4547 -0.6085 -0.4227
  129OSM    H5F13868   5.172   4.534   7.228 -0.5666  1.6753  0.7309
  129OSM    H5G13869   5.146   4.410   7.351  1.1635  2.7901  2.0908
  129OSM    C6F13870   5.002   4.574   7.351  0.3949 -0.2171 -0.5678
  129OSM    H6F13871   5.004   4.548   7.459  0.2133 -0.7174 -0.6825
  129OSM    H6G13872   4.906   4.558   7.299  0.7602  0.4960 -1.4876
  129OSM    C7F13873   5.043   4.725   7.343  0.5424 -0.0787 -0.7369
  129OSM    H7F13874   5.080   4.738   7.239  1.8301  0.2070 -0.2625
  129OSM    H7G13875   5.113   4.755   7.424  0.0477 -1.1982  0.1366
  129OSM    C8F13876   4.918   4.817   7.353  0.4103  0.1337  0.4678
  129OSM    H8F13877   4.959   4.919   7.362  0.1778  0.2110  0.6831
  129OSM    H8G13878   4.871   4.792   7.451 -0.6466 -0.3129 -0.1342
  129OSM    C9F13879   4.807   4.810   7.255 -0.5507  0.8602  0.0516
  129OSM    H9F13880   4.832   4.852   7.157 -1.9812  0.7821 -0.3564
  129OSM   C10F13881   4.684   4.751   7.272  0.3776 -0.4280 -0.2035
  129OSM   H10F13882   4.613   4.753   7.189  0.4937  0.4600 -0.2896
  129OSM   C11F13883   4.635   4.680   7.398  0.2565  0.1382 -0.6633
  129OSM   H11F13884   4.724   4.674   7.464  0.2512 -0.5582 -0.7052
  129OSM   H11G13885   4.606   4.574   7.382 -1.8034 -0.2533  4.1687
  129OSM   C12F13886   4.511   4.735   7.480  0.7193  0.6177  0.4532
  129OSM   H12F13887   4.421   4.739   7.416  0.9414  2.1997  0.2063
  129OSM   H12G13888   4.532   4.840   7.511 -1.9102  0.7583  2.0387
  129OSM   C13F13889   4.487   4.658   7.612 -0.5546 -0.3274 -0.0269
  129OSM   H13F13890   4.589   4.637   7.649 -0.0450  1.4767 -0.3116
  129OSM   H13G13891   4.425   4.570   7.585 -2.2140  0.6451  0.4215
  129OSM   C14F13892   4.422   4.743   7.718 -0.0675 -0.6266 -0.0875
  129OSM   H14F13893   4.313   4.754   7.699  0.4678  1.8752 -2.2571
  129OSM   H14G13894   4.477   4.839   7.716  2.0078 -1.7466 -0.2200
  129OSM   C15F13895   4.424   4.679   7.860 -0.0656  0.5035 -0.1337
  129OSM   H15F13896   4.394   4.572   7.850  2.1512 -0.3122  1.1572
  129OSM   H15G13897   4.355   4.742   7.920  1.0839  2.3348 -0.6617
  129OSM   C16F13898   4.560   4.690   7.924 -0.3577  0.3212 -0.3548
  129OSM   H16F13899   4.602   4.792   7.919  2.1236 -0.5553  0.9176
  129OSM   H16G13900   4.622   4.631   7.853 -0.9959 -1.2046  0.3117
  129OSM   C17F13901   4.558   4.643   8.068 -0.5895  0.1856  0.2463
  129OSM   H17F13902   4.498   4.551   8.082 -0.3734  0.2620  1.8797
  129OSM   H17G13903   4.507   4.721   8.129 -0.5746 -0.9341  1.7397
  129OSM   C18F13904   4.699   4.626   8.130 -0.1837  0.1272  0.7223
  129OSM   H18F13905   4.762   4.557   8.069  0.1429  1.1616 -0.1370
  129OSM   H18G13906   4.688   4.594   8.236 -4.7233 -2.2884 -0.2227
  129OSM   H18H13907   4.749   4.725   8.119 -0.3530  0.1607  0.2089
  130OSM      N13908   5.798   1.396   5.976 -0.5828  0.1459 -0.5072
  130OSM    C1513909   5.859   1.449   5.845 -0.4094 -0.3990 -0.3707
  130OSM   H15A13910   5.800   1.426   5.758  0.0079 -0.8101 -0.5529
  130OSM   H15B13911   5.963   1.421   5.847 -0.1245  0.4221 -2.2531
  130OSM   H15C13912   5.862   1.556   5.851 -1.3781 -0.4235  1.0165
  130OSM    C1413913   5.676   1.479   6.012  0.6869  0.6397 -0.4806
  130OSM   H14A13914   5.628   1.418   6.087  0.2581 -2.0761 -2.7920
  130OSM   H14B13915   5.610   1.484   5.927 -1.3922 -0.9132  0.9248
  130OSM   H14C13916   5.708   1.576   6.048 -1.2085  1.3421 -0.5890
  130OSM    C1313917   5.762   1.254   5.952  0.4747 -0.7371 -0.1793
  130OSM   H13A13918   5.704   1.216   6.035  0.0521  1.2808  0.4870
  130OSM   H13B13919   5.851   1.194   5.934  0.8355 -0.1447 -0.3884
  130OSM   H13C13920   5.694   1.249   5.868  0.9591  3.2856 -0.9867
  130OSM    C1213921   5.901   1.405   6.086  0.4328 -0.2591  0.1841
  130OSM   H12A13922   5.940   1.504   6.102  0.5347 -0.4580  1.2027
  130OSM   H12B13923   5.976   1.335   6.052 -0.4016 -0.4804 -1.3220
  130OSM    C1113924   5.866   1.352   6.228  0.4370 -0.0238 -0.2665
  130OSM   H11A13925   5.959   1.321   6.280 -0.1750 -0.6296  0.4811
  130OSM   H11B13926   5.805   1.261   6.213 -1.5567  1.1705  0.2106
  130OSM      P13927   5.856   1.576   6.350 -0.4749 -0.1154 -0.0401
  130OSM    O1313928   5.980   1.529   6.408 -0.7151 -0.3391  0.5323
  130OSM    O1413929   5.856   1.680   6.242  0.2164 -0.1669 -0.0251
  130OSM    O1113930   5.749   1.624   6.461 -0.3422  0.4626 -0.3715
  130OSM    O1213931   5.789   1.450   6.296 -0.0564 -0.2441  0.3486
  130OSM    C1S13932   5.680   1.522   6.544  0.5521 -0.0642 -0.3095
  130OSM    H1S13933   5.694   1.417   6.510 -1.9359  0.0970 -2.1725
  130OSM    H1T13934   5.573   1.551   6.531  0.7882  1.3998  0.7859
  130OSM     NF13935   5.642   1.430   6.765  0.3747  0.1137  0.4960
  130OSM    HNF13936   5.580   1.470   6.832 -1.4735 -0.3201 -0.8680
  130OSM    C2S13937   5.722   1.531   6.694  0.2509  0.4316 -0.2427
  130OSM    H2S13938   5.830   1.505   6.695 -0.5190 -3.3469  0.4314
  130OSM    C3S13939   5.707   1.677   6.749  0.6508 -0.1657 -0.1390
  130OSM    H3S13940   5.600   1.706   6.752  0.8698  0.8279 -1.4326
  130OSM     O313941   5.757   1.778   6.659  0.1029 -1.0621  0.6125
  130OSM    HO313942   5.770   1.729   6.577  3.4057  1.6649 -0.6916
  130OSM    C4S13943   5.771   1.694   6.885  0.3966  0.0967  0.3350
  130OSM    H4S13944   5.699   1.693   6.968  0.2363 -0.5278  0.1907
  130OSM    C5S13945   5.897   1.716   6.917 -1.1360 -0.2638 -0.1621
  130OSM    H5S13946   5.967   1.731   6.834 -3.8430  1.1568 -2.3650
  130OSM    C6S13947   5.953   1.728   7.051  0.4877  0.4715  0.1806
  130OSM    H6S13948   5.986   1.833   7.065 -0.6419  1.1431 -1.6795
  130OSM    H6T13949   6.042   1.663   7.053 -0.3906 -0.7532  0.8616
  130OSM    C7S13950   5.874   1.694   7.183  0.3250 -0.1830  0.3064
  130OSM    H7S13951   5.855   1.585   7.185  0.9308 -0.3168 -0.6419
  130OSM    H7T13952   5.778   1.750   7.181  1.1291  1.2414 -0.9455
  130OSM    C8S13953   5.953   1.723   7.314 -0.6555  0.2884  0.5899
  130OSM    H8S13954   5.993   1.826   7.303 -2.8064  1.2784  1.4177
  130OSM    H8T13955   6.033   1.649   7.334 -1.0728 -0.9652 -1.9348
  130OSM    C9S13956   5.863   1.706   7.444 -0.1860 -0.5274  0.0508
  130OSM    H9S13957   5.804   1.613   7.431 -0.3532 -0.3439 -0.5293
  130OSM    H9T13958   5.784   1.784   7.449 -1.7314 -1.9332 -1.1905
  130OSM   C10S13959   5.942   1.680   7.575  0.2455  0.2443 -0.3309
  130OSM   H10S13960   5.993   1.770   7.617  1.0296 -2.2586  4.7119
  130OSM   H10T13961   6.030   1.613   7.568 -1.1452 -1.9906  2.0220
  130OSM   C11S13962   5.838   1.643   7.684  0.0502  0.2371  0.3990
  130OSM   H11S13963   5.784   1.548   7.666  1.5152 -0.7141  0.8446
  130OSM   H11T13964   5.762   1.724   7.687 -2.4113 -1.9858  3.0777
  130OSM   C12S13965   5.906   1.641   7.818 -0.5930 -0.4143  0.2943
  130OSM   H12S13966   5.964   1.733   7.840  1.4979 -1.8760  1.2088
  130OSM   H12T13967   5.968   1.549   7.812  0.7072  0.4696 -0.4679
  130OSM   C13S13968   5.797   1.624   7.933 -0.5454 -0.4888 -0.1352
  130OSM   H13S13969   5.742   1.529   7.918 -1.2951  0.2599 -2.7728
  130OSM   H13T13970   5.721   1.705   7.926 -1.7986 -1.5522  0.8043
  130OSM   C14S13971   5.868   1.634   8.070  0.1960  0.2846  0.5111
  130OSM   H14S13972   5.911   1.736   8.076  0.1761  0.2886  0.5807
  130OSM   H14T13973   5.942   1.552   8.083 -0.3909  0.2337  5.3810
  130OSM   C15S13974   5.772   1.608   8.188 -0.0852 -0.5517 -0.0239
  130OSM   H15S13975   5.754   1.498   8.181  1.1523 -0.6983 -1.4177
  130OSM   H15T13976   5.679   1.669   8.187 -1.5312 -2.5897  1.3022
  130OSM   C16S13977   5.850   1.633   8.316  0.3598 -0.1873  0.4658
  130OSM   H16S13978   5.853   1.743   8.323 -1.0858  0.0784 -1.9891
  130OSM   H16T13979   5.953   1.591   8.311  1.2547  1.9414  0.2737
  130OSM   C17S13980   5.797   1.574   8.445  0.3684 -0.2423 -0.2519
  130OSM   H17S13981   5.781   1.466   8.425  2.5901 -0.7463  0.4655
  130OSM   H17T13982   5.701   1.625   8.468  1.3987  0.8173  1.9590
  130OSM   C18S13983   5.889   1.599   8.564  0.7868  0.4628  0.6014
  130OSM   H18S13984   5.844   1.560   8.658  0.9624  0.3968  0.6564
  130OSM   H18T13985   5.883   1.710   8.562  0.8140  0.4782 -2.1058
  130OSM   H18U13986   5.990   1.554   8.563  1.0704  1.0841  0.2756
  130OSM    C1F13987   5.660   1.301   6.756 -0.2835  0.5268  0.3847
  130OSM     OF13988   5.749   1.245   6.685  0.1472  0.1052  0.6583
  130OSM    C2F13989   5.575   1.214   6.847  0.2693  0.2355 -0.5229
  130OSM    H2F13990   5.536   1.130   6.786 -1.0120 -0.0386  0.6265
  130OSM    H2G13991   5.479   1.268   6.860 -0.0952 -0.5310  0.0588
  130OSM    C3F13992   5.663   1.174   6.971  0.4800 -0.8390  0.1361
  130OSM    H3F13993   5.721   1.257   7.017  1.9076 -2.2896  1.1021
  130OSM    H3G13994   5.735   1.091   6.955  0.1089 -1.3443  0.9752
  130OSM    C4F13995   5.577   1.135   7.096  0.3104  0.2467  0.2569
  130OSM    H4F13996   5.480   1.174   7.057  0.3706 -0.4317 -0.6162
  130OSM    H4G13997   5.605   1.185   7.191  0.0263 -1.1809  1.1235
  130OSM    C5F13998   5.574   0.986   7.122  0.0093 -0.1129  0.0646
  130OSM    H5F13999   5.676   0.960   7.159 -0.4848  0.8086  2.2340
  130OSM    H5G14000   5.564   0.935   7.024  0.4024  1.6321 -0.9258
  130OSM    C6F14001   5.473   0.931   7.221 -0.2532 -0.1504  0.1284
  130OSM    H6F14002   5.473   0.820   7.221  0.4461 -0.1590 -0.0219
  130OSM    H6G14003   5.371   0.968   7.198 -0.8637 -0.7192  1.7704
  130OSM    C7F14004   5.517   0.976   7.360 -0.4093 -0.1834 -0.4364
  130OSM    H7F14005   5.536   1.086   7.358 -0.3459 -0.1085  1.6598
  130OSM    H7G14006   5.613   0.935   7.396 -1.2144 -1.6207  0.1433
  130OSM    C8F14007   5.418   0.944   7.470 -0.0474  0.0100  0.5585
  130OSM    H8F14008   5.422   0.841   7.511  1.5720  0.3971  1.4665
  130OSM    H8G14009   5.319   0.945   7.419  0.7030  0.5043 -0.9480
  130OSM    C9F14010   5.428   1.042   7.585  0.3540 -0.8515 -0.8481
  130OSM    H9F14011   5.500   1.124   7.575 -1.2822  1.0678  1.8632
  130OSM   C10F14012   5.374   1.033   7.711 -0.0902  0.0622 -0.4901
  130OSM   H10F14013   5.397   1.108   7.788  0.5748 -0.0986 -0.5251
  130OSM   C11F14014   5.292   0.910   7.763 -0.1039 -0.3927 -0.4927
  130OSM   H11F14015   5.357   0.859   7.836 -0.3327  0.5021  0.3666
  130OSM   H11G14016   5.286   0.836   7.681  1.1728 -0.8826 -0.1582
  130OSM   C12F14017   5.148   0.932   7.814 -0.4835 -0.6997  0.0457
  130OSM   H12F14018   5.111   0.837   7.858  1.3687 -0.2263  2.9130
  130OSM   H12G14019   5.092   0.957   7.722 -3.8788  0.8876  2.3339
  130OSM   C13F14020   5.117   1.049   7.917 -0.7622 -0.4220  0.1071
  130OSM   H13F14021   5.007   1.058   7.930 -0.8157 -0.5206 -0.2752
  130OSM   H13G14022   5.142   1.143   7.864 -1.3977  0.6764  1.6444
  130OSM   C14F14023   5.187   1.051   8.051 -0.6739  0.2901 -0.2218
  130OSM   H14F14024   5.295   1.063   8.030 -0.6034 -1.1580 -0.7956
  130OSM   H14G14025   5.168   0.953   8.100  0.4840 -0.9976 -2.2088
  130OSM   C15F14026   5.139   1.153   8.146 -0.1100 -0.1220  0.8018
  130OSM   H15F14027   5.038   1.113   8.169  0.3624 -2.1734 -0.3705
  130OSM   H15G14028   5.128   1.244   8.084 -0.0755 -1.2280 -0.9114
  130OSM   C16F14029   5.235   1.164   8.264 -0.4191  0.0516 -0.5673
  130OSM   H16F14030   5.336   1.195   8.230  1.3532 -4.1936  0.1168
  130OSM   H16G14031   5.245   1.059   8.300 -0.8395  0.0083 -0.5703
  130OSM   C17F14032   5.175   1.257   8.368 -0.8792  0.4426 -0.1664
  130OSM   H17F14033   5.069   1.227   8.378 -0.3124 -2.1142 -1.0719
  130OSM   H17G14034   5.160   1.360   8.328  0.7573  0.6251 -0.3925
  130OSM   C18F14035   5.244   1.262   8.504  0.3134  0.0433  0.2893
  130OSM   H18F14036   5.225   1.163   8.551 -0.6924 -1.5535 -3.1834
  130OSM   H18G14037   5.197   1.335   8.575 -0.3686  2.1604 -2.1867
  130OSM   H18H14038   5.354   1.275   8.514  0.6030 -1.8297 -0.2299
  131OSM      N14039   3.143   6.473   6.315  0.1204 -0.6240  0.2555
  131OSM    C1514040   3.094   6.361   6.232 -0.0822 -0.4191 -1.5508
  131OSM   H15A14041   3.039   6.402   6.148 -1.0425  1.3441 -0.1380
  131OSM   H15B14042   3.035   6.301   6.300  2.4182  0.9290  2.1165
  131OSM   H15C14043   3.173   6.295   6.200 -0.2531 -1.0694 -0.6541
  131OSM    C1414044   3.025   6.542   6.372 -0.0339  0.6930 -0.1898
  131OSM   H14A14045   3.050   6.622   6.440  3.5807 -2.1006  2.1748
  131OSM   H14B14046   2.966   6.467   6.423  1.8327 -0.4586  0.3811
  131OSM   H14C14047   2.957   6.572   6.293  0.9233  1.5628 -0.7030
  131OSM    C1314048   3.211   6.414   6.428 -0.9474  0.4553 -0.1011
  131OSM   H13A14049   3.251   6.492   6.491  5.2943 -1.7088 -0.6581
  131OSM   H13B14050   3.302   6.363   6.398 -0.7687  1.1540 -0.7823
  131OSM   H13C14051   3.157   6.341   6.486  0.3750 -1.5677 -1.3071
  131OSM    C1214052   3.231   6.561   6.238 -0.3136  0.1173 -0.3757
  131OSM   H12A14053   3.188   6.578   6.140 -2.9077 -0.7861  0.5163
  131OSM   H12B14054   3.324   6.506   6.229 -1.6711 -2.1563 -1.3872
  131OSM    C1114055   3.262   6.703   6.287 -0.3684 -0.6876  0.1524
  131OSM   H11A14056   3.305   6.708   6.390  0.2018  1.6024 -0.1482
  131OSM   H11B14057   3.169   6.762   6.298  1.4417  2.5008 -0.5447
  131OSM      P14058   3.504   6.717   6.199  0.2880  0.0798  0.2330
  131OSM    O1314059   3.511   6.575   6.167  0.1949  0.4957  0.0198
  131OSM    O1414060   3.588   6.800   6.110 -0.1701  0.3267 -0.0425
  131OSM    O1114061   3.545   6.747   6.354  0.4593 -0.5224 -0.0459
  131OSM    O1214062   3.354   6.763   6.194 -0.0745  1.0666  0.8917
  131OSM    C1S14063   3.649   6.678   6.430 -0.5874  0.3183  0.4510
  131OSM    H1S14064   3.748   6.721   6.404  1.0665 -3.2376  0.1990
  131OSM    H1T14065   3.645   6.569   6.408 -0.9917 -0.1523  2.6588
  131OSM     NF14066   3.778   6.699   6.652 -0.6140  0.3100 -0.8241
  131OSM    HNF14067   3.795   6.619   6.708 -0.3374 -0.1936 -1.6286
  131OSM    C2S14068   3.645   6.708   6.590  0.3852 -0.3530 -0.1221
  131OSM    H2S14069   3.610   6.811   6.609  1.5622  0.0526 -0.0686
  131OSM    C3S14070   3.528   6.625   6.661 -1.0205  0.0181  0.1198
  131OSM    H3S14071   3.561   6.520   6.652 -0.0555  0.2566  0.7230
  131OSM     O314072   3.401   6.625   6.594  0.2886 -0.0262  0.0517
  131OSM    HO314073   3.420   6.641   6.502 -0.2997 -0.2355 -0.1104
  131OSM    C4S14074   3.514   6.664   6.816 -0.6542 -0.4216  0.1452
  131OSM    H4S14075   3.603   6.647   6.877 -1.0035  0.7803  1.0308
  131OSM    C5S14076   3.405   6.730   6.873  0.0289  0.5598  0.4157
  131OSM    H5S14077   3.318   6.757   6.812  0.6274  2.6249  0.4162
  131OSM    C6S14078   3.388   6.774   7.018  0.6358  0.1270  0.0926
  131OSM    H6S14079   3.282   6.755   7.043  0.3675  1.1643 -0.1945
  131OSM    H6T14080   3.409   6.883   7.025 -1.6346  0.6003  0.0729
  131OSM    C7S14081   3.464   6.697   7.122 -0.0630  0.3018  0.2578
  131OSM    H7S14082   3.569   6.695   7.085 -1.1156 -1.0649 -3.0525
  131OSM    H7T14083   3.433   6.590   7.121 -0.8373  0.5167 -0.8993
  131OSM    C8S14084   3.444   6.754   7.261 -0.0390  0.0467 -0.3358
  131OSM    H8S14085   3.385   6.848   7.251 -1.6216 -0.9852 -1.1896
  131OSM    H8T14086   3.548   6.778   7.291 -0.4875  0.6671  0.7637
  131OSM    C9S14087   3.409   6.654   7.365  0.0549  1.1802  0.0427
  131OSM    H9S14088   3.484   6.573   7.378 -0.7747  0.0848 -1.6393
  131OSM    H9T14089   3.312   6.609   7.336  0.2787  0.6024  0.1895
  131OSM   C10S14090   3.389   6.722   7.502  0.4918 -0.0500 -0.1188
  131OSM   H10S14091   3.333   6.818   7.492  1.4150  0.7411  1.7412
  131OSM   H10T14092   3.489   6.747   7.544 -0.4295 -0.5528  2.6123
  131OSM   C11S14093   3.333   6.641   7.613  0.7580  0.1109 -0.0208
  131OSM   H11S14094   3.400   6.556   7.638  1.8657  0.3910 -1.8511
  131OSM   H11T14095   3.236   6.595   7.585  0.2902 -0.3292  2.1564
  131OSM   C12S14096   3.317   6.723   7.741  0.5122 -0.0222 -0.0995
  131OSM   H12S14097   3.221   6.779   7.743  1.3243  1.7666 -3.7128
  131OSM   H12T14098   3.389   6.807   7.745 -1.0828  1.3840  0.4532
  131OSM   C13S14099   3.333   6.648   7.870 -0.4862  0.1623  0.0591
  131OSM   H13S14100   3.426   6.588   7.864 -1.1732 -0.8393 -0.8712
  131OSM   H13T14101   3.256   6.569   7.885  1.9662 -2.4617 -0.3168
  131OSM   C14S14102   3.330   6.739   7.994  1.3223  0.1802  0.0851
  131OSM   H14S14103   3.237   6.800   7.995  0.5509 -0.9424  1.8182
  131OSM   H14T14104   3.418   6.807   7.996  0.6353  1.1007  2.3098
  131OSM   C15S14105   3.316   6.651   8.124 -0.4091  0.0237 -0.6263
  131OSM   H15S14106   3.387   6.566   8.116 -0.0915  0.0793  1.2625
  131OSM   H15T14107   3.210   6.626   8.144 -0.5523  0.1193 -1.2354
  131OSM   C16S14108   3.347   6.743   8.241 -0.0832  0.5652  0.0521
  131OSM   H16S14109   3.311   6.846   8.220 -1.4927 -0.0724 -0.8002
  131OSM   H16T14110   3.458   6.744   8.243 -0.0901  0.8245  1.0736
  131OSM   C17S14111   3.289   6.688   8.370  0.2635  0.0380  0.1803
  131OSM   H17S14112   3.315   6.581   8.381 -0.9381 -0.2990 -0.1928
  131OSM   H17T14113   3.180   6.704   8.380  0.7743  3.8468  1.3133
  131OSM   C18S14114   3.343   6.750   8.497  0.1464  0.2712 -0.6133
  131OSM   H18S14115   3.448   6.724   8.521  0.1186  0.3509 -0.3958
  131OSM   H18T14116   3.285   6.701   8.579  1.8632  0.9715  1.0997
  131OSM   H18U14117   3.341   6.861   8.502 -1.1814  0.2485 -0.0860
  131OSM    C1F14118   3.877   6.781   6.627 -0.0418 -1.0667  0.3793
  131OSM     OF14119   3.863   6.880   6.549  0.1295 -0.3205 -0.4695
  131OSM    C2F14120   4.008   6.756   6.696  0.1476  0.3922  0.4272
  131OSM    H2F14121   4.082   6.788   6.620  1.7312 -0.6884  1.4702
  131OSM    H2G14122   4.033   6.650   6.721  0.6305 -0.0793 -1.7806
  131OSM    C3F14123   4.026   6.855   6.811  0.8254  0.7000  0.1525
  131OSM    H3F14124   4.009   6.960   6.777  2.0787  1.2939  1.2638
  131OSM    H3G14125   4.133   6.859   6.841  1.4842  0.5240 -2.0207
  131OSM    C4F14126   3.936   6.829   6.929 -0.4127  0.3148 -0.1993
  131OSM    H4F14127   3.905   6.722   6.921 -1.9235  0.5901  1.3964
  131OSM    H4G14128   3.847   6.895   6.939  0.6074  1.4506  1.9835
  131OSM    C5F14129   4.006   6.833   7.060 -1.0244 -0.4347 -0.2560
  131OSM    H5F14130   4.044   6.935   7.079  0.7280 -1.1500  0.3028
  131OSM    H5G14131   4.087   6.757   7.061 -1.7340 -1.2480  2.2105
  131OSM    C6F14132   3.907   6.812   7.181  0.8910 -0.2443 -0.4774
  131OSM    H6F14133   3.861   6.712   7.165  1.6818 -0.2965 -2.8315
  131OSM    H6G14134   3.825   6.886   7.189  0.9577 -0.1414 -0.7385
  131OSM    C7F14135   3.980   6.815   7.317  0.6357  0.7635 -0.5971
  131OSM    H7F14136   4.033   6.911   7.335  2.3764 -0.4238  0.9763
  131OSM    H7G14137   4.060   6.738   7.315  0.9894  1.1377 -1.1346
  131OSM    C8F14138   3.893   6.786   7.436 -0.4237  0.2671 -0.6048
  131OSM    H8F14139   3.851   6.683   7.425 -1.2151  0.3877  0.9136
  131OSM    H8G14140   3.810   6.859   7.443  0.2501  0.9447  0.8208
  131OSM    C9F14141   3.973   6.783   7.568  0.0052  1.0694  0.2677
  131OSM    H9F14142   4.080   6.806   7.560  0.9064 -3.0485 -3.4195
  131OSM   C10F14143   3.922   6.746   7.686 -0.9376  0.2408 -0.0460
  131OSM   H10F14144   3.985   6.753   7.776 -0.1474  3.8561 -0.7266
  131OSM   C11F14145   3.778   6.714   7.705 -0.0510 -0.0997 -0.2120
  131OSM   H11F14146   3.750   6.640   7.627  0.4958 -3.2838  2.3798
  131OSM   H11G14147   3.715   6.805   7.713  1.3524  0.9313 -0.4137
  131OSM   C12F14148   3.764   6.644   7.839 -0.4850 -0.6137  0.1614
  131OSM   H12F14149   3.829   6.554   7.848  0.7465  0.1959 -0.3601
  131OSM   H12G14150   3.660   6.606   7.850 -0.5988  0.0815  1.7429
  131OSM   C13F14151   3.789   6.737   7.955 -0.0631  0.2473 -0.6725
  131OSM   H13F14152   3.738   6.833   7.934  0.7028  0.5043 -1.4134
  131OSM   H13G14153   3.899   6.746   7.958 -0.1671  1.5382  0.1000
  131OSM   C14F14154   3.733   6.703   8.102 -0.0726 -0.8437  0.3243
  131OSM   H14F14155   3.623   6.707   8.088  0.2000 -0.4100 -2.2077
  131OSM   H14G14156   3.758   6.782   8.177 -1.2873 -0.1182 -0.0061
  131OSM   C15F14157   3.776   6.569   8.158 -0.3561 -0.0889  0.1267
  131OSM   H15F14158   3.879   6.566   8.198  0.2322  0.7509 -1.2467
  131OSM   H15G14159   3.773   6.487   8.083  0.7223 -0.7720  0.8136
  131OSM   C16F14160   3.680   6.537   8.274  0.4695  0.2410  0.5018
  131OSM   H16F14161   3.578   6.528   8.231  0.9058 -2.1756 -0.1239
  131OSM   H16G14162   3.683   6.617   8.352  2.1511 -0.0924  0.8051
  131OSM   C17F14163   3.706   6.407   8.352  0.4711 -0.4029  0.1492
  131OSM   H17F14164   3.733   6.324   8.283  1.1314  0.4784 -0.6661
  131OSM   H17G14165   3.617   6.382   8.413 -1.0232  0.4133 -1.6225
  131OSM   C18F14166   3.813   6.421   8.458  0.4478 -0.4666  0.3708
  131OSM   H18F14167   3.916   6.434   8.421  0.4935  0.0226  0.6648
  131OSM   H18G14168   3.804   6.339   8.534 -0.6381 -1.5257 -0.8384
  131OSM   H18H14169   3.782   6.509   8.519 -1.5059 -0.8033 -0.0698
  132OSM      N14170   5.659   3.929   6.094  0.0900 -0.5015 -0.4691
  132OSM    C1514171   5.708   3.858   5.969  0.6206 -0.4191  0.2340
  132OSM   H15A14172   5.675   3.920   5.887  0.5282 -0.3136  0.3525
  132OSM   H15B14173   5.668   3.759   5.947  1.6678 -0.7960 -0.0249
  132OSM   H15C14174   5.815   3.854   5.958  0.8221  1.8067  0.8729
  132OSM    C1414175   5.739   4.049   6.121  0.2067 -0.2563 -0.1211
  132OSM   H14A14176   5.845   4.031   6.113  0.5985  1.9621 -0.6436
  132OSM   H14B14177   5.729   4.097   6.217  2.6845 -0.2686  0.2020
  132OSM   H14C14178   5.720   4.124   6.046  0.9803  0.6914  0.5992
  132OSM    C1314179   5.514   3.975   6.088 -0.4814  0.8987 -0.1315
  132OSM   H13A14180   5.506   4.067   6.033  0.8067  1.6900  0.9669
  132OSM   H13B14181   5.495   4.002   6.190 -2.2536 -1.7222  0.3383
  132OSM   H13C14182   5.437   3.904   6.061 -2.0123  1.7001  1.9124
  132OSM    C1214183   5.660   3.834   6.219  0.4583 -0.2861  0.4023
  132OSM   H12A14184   5.615   3.890   6.300 -1.1163 -1.6150  0.4876
  132OSM   H12B14185   5.761   3.818   6.255  0.1133 -2.1804  0.6225
  132OSM    C1114186   5.587   3.697   6.210 -0.6777 -0.5739  0.1141
  132OSM   H11A14187   5.485   3.720   6.172 -0.1048  1.1354 -0.4951
  132OSM   H11B14188   5.579   3.661   6.315  1.4632 -0.3540  0.3828
  132OSM      P14189   5.783   3.537   6.151 -0.3990 -0.2695 -0.0419
  132OSM    O1314190   5.796   3.428   6.057  0.8834 -0.5219  0.1249
  132OSM    O1414191   5.895   3.636   6.161 -0.0068 -0.4992 -0.3267
  132OSM    O1114192   5.752   3.489   6.298  0.1564 -0.1600  0.0450
  132OSM    O1214193   5.645   3.611   6.119  0.4619 -0.2538 -0.4074
  132OSM    C1S14194   5.857   3.408   6.351 -0.3642 -0.2164  0.2903
  132OSM    H1S14195   5.951   3.462   6.328 -0.5741 -0.9635 -2.9048
  132OSM    H1T14196   5.862   3.305   6.309 -0.3273 -1.3176  2.8398
  132OSM     NF14197   5.939   3.332   6.569 -0.2254 -0.0856 -0.3319
  132OSM    HNF14198   5.927   3.237   6.596 -2.3974 -0.0276 -0.9315
  132OSM    C2S14199   5.827   3.393   6.502 -0.1040 -0.4667  0.9568
  132OSM    H2S14200   5.816   3.498   6.539  0.8423  0.5862 -1.5496
  132OSM    C3S14201   5.702   3.314   6.530  0.0365  0.2752  0.0304
  132OSM    H3S14202   5.721   3.205   6.515 -1.7708 -0.3936  2.0188
  132OSM     O314203   5.596   3.348   6.440  0.2627 -0.0697 -0.3556
  132OSM    HO314204   5.643   3.411   6.386  1.5276 -1.1629 -0.5802
  132OSM    C4S14205   5.651   3.326   6.672  0.0634  0.3915 -0.4961
  132OSM    H4S14206   5.588   3.414   6.691 -2.2932 -0.8007 -2.2522
  132OSM    C5S14207   5.659   3.223   6.760 -0.2415  0.3413 -0.1834
  132OSM    H5S14208   5.706   3.129   6.726  0.3741  1.0759 -1.4271
  132OSM    C6S14209   5.603   3.226   6.898 -0.1634  0.4568  0.4248
  132OSM    H6S14210   5.502   3.269   6.912  0.5379  1.8902  1.3414
  132OSM    H6T14211   5.669   3.293   6.957 -0.7426  1.1203  0.3276
  132OSM    C7S14212   5.606   3.082   6.961 -0.4505 -0.0249 -1.0751
  132OSM    H7S14213   5.707   3.034   6.966 -0.4657  0.0206  0.0659
  132OSM    H7T14214   5.546   3.020   6.891  1.1263 -0.1103 -2.4214
  132OSM    C8S14215   5.538   3.065   7.095  0.1495 -0.6014  0.2175
  132OSM    H8S14216   5.434   3.104   7.099  0.2196 -0.4665  0.7016
  132OSM    H8T14217   5.606   3.112   7.168  0.6257  1.1253 -1.2749
  132OSM    C9S14218   5.526   2.920   7.140  0.3940  0.5072 -0.4726
  132OSM    H9S14219   5.630   2.889   7.161  0.7060  2.3664  1.0947
  132OSM    H9T14220   5.486   2.858   7.057 -0.8572  1.8202 -0.8978
  132OSM   C10S14221   5.454   2.910   7.274  0.0595  0.2130 -0.1410
  132OSM   H10S14222   5.440   2.803   7.298  0.5722  0.5521  1.9221
  132OSM   H10T14223   5.351   2.951   7.264  0.2424  0.4583 -1.1282
  132OSM   C11S14224   5.530   2.988   7.389  0.5620 -0.4773  0.9227
  132OSM   H11S14225   5.508   3.096   7.377  3.0658 -0.1711 -2.8973
  132OSM   H11T14226   5.639   2.975   7.369  0.3031 -0.0881 -0.9302
  132OSM   C12S14227   5.497   2.936   7.531 -0.3064 -0.1282  0.2642
  132OSM   H12S14228   5.561   2.849   7.558  0.5072  0.7373  1.1901
  132OSM   H12T14229   5.391   2.907   7.545  0.0781 -0.3570  3.1779
  132OSM   C13S14230   5.507   3.052   7.638  0.9405  0.3694  0.3072
  132OSM   H13S14231   5.424   3.117   7.602  0.6219 -0.6303 -0.7878
  132OSM   H13T14232   5.603   3.107   7.632  1.5076 -0.5060  1.0851
  132OSM   C14S14233   5.485   2.997   7.780  0.3519  0.0111 -0.1555
  132OSM   H14S14234   5.565   2.923   7.801  0.2098  0.2301  1.2590
  132OSM   H14T14235   5.382   2.954   7.782  0.2326  0.2935 -0.1903
  132OSM   C15S14236   5.506   3.103   7.890 -0.3944 -0.3640 -0.0467
  132OSM   H15S14237   5.425   3.179   7.886 -0.5294 -0.4753  0.5261
  132OSM   H15T14238   5.597   3.157   7.857  1.0401 -1.7072  1.5023
  132OSM   C16S14239   5.525   3.054   8.031 -0.2040 -0.0365 -0.3999
  132OSM   H16S14240   5.598   2.971   8.029  0.3716  0.4136  0.6746
  132OSM   H16T14241   5.427   3.016   8.066 -0.5572 -0.5462 -1.8767
  132OSM   C17S14242   5.582   3.157   8.128 -0.0743  0.1997 -0.3807
  132OSM   H17S14243   5.677   3.196   8.085 -1.1720  1.4513 -1.8095
  132OSM   H17T14244   5.614   3.105   8.220  1.4371  2.9648  0.7529
  132OSM   C18S14245   5.499   3.281   8.159  0.2184  0.3779 -0.2243
  132OSM   H18S14246   5.551   3.362   8.214 -0.0699  1.4215 -1.4298
  132OSM   H18T14247   5.413   3.258   8.225 -0.9684  0.6419 -1.6234
  132OSM   H18U14248   5.457   3.314   8.061 -1.1323  1.3057  0.6349
  132OSM    C1F14249   6.065   3.380   6.570 -0.2214  0.4481  0.6207
  132OSM     OF14250   6.101   3.479   6.510  0.2627 -0.3182 -0.8162
  132OSM    C2F14251   6.168   3.299   6.645 -0.4286 -0.0558  0.0076
  132OSM    H2F14252   6.245   3.271   6.570 -0.4900  1.7406 -0.7914
  132OSM    H2G14253   6.114   3.208   6.678  1.2152 -0.9253  0.3955
  132OSM    C3F14254   6.238   3.369   6.761  0.0734 -0.3321 -0.0227
  132OSM    H3F14255   6.294   3.454   6.717 -0.6355  0.3828  0.4182
  132OSM    H3G14256   6.312   3.304   6.810 -1.0558 -0.9326  0.9428
  132OSM    C4F14257   6.145   3.428   6.872  0.1241  0.2208 -0.2420
  132OSM    H4F14258   6.057   3.471   6.820 -0.6538 -2.8510 -1.7505
  132OSM    H4G14259   6.189   3.507   6.936 -0.7219  0.2334  0.3466
  132OSM    C5F14260   6.082   3.319   6.965 -0.2408 -0.5707  1.0280
  132OSM    H5F14261   6.164   3.270   7.021  0.8905  1.2042  0.9854
  132OSM    H5G14262   6.024   3.249   6.901 -1.4627  0.9712  0.3788
  132OSM    C6F14263   5.980   3.392   7.060 -0.3532 -0.2623  0.3572
  132OSM    H6F14264   5.900   3.450   7.009 -0.3174 -0.5267 -0.0072
  132OSM    H6G14265   6.029   3.471   7.120 -0.5541  0.5980 -0.5669
  132OSM    C7F14266   5.931   3.296   7.160 -0.0893  0.0078  0.0254
  132OSM    H7F14267   6.007   3.265   7.234  0.0380  1.2806  0.4397
  132OSM    H7G14268   5.906   3.205   7.101 -0.0517 -0.7813  1.2021
  132OSM    C8F14269   5.811   3.346   7.242  0.0026  0.2389 -0.2378
  132OSM    H8F14270   5.771   3.263   7.305 -2.4322  1.5182  0.0166
  132OSM    H8G14271   5.726   3.363   7.172  0.8429 -3.4516 -2.4535
  132OSM    C9F14272   5.847   3.462   7.334  0.6091  0.6057  0.7505
  132OSM    H9F14273   5.871   3.556   7.282 -0.0724  1.6759  2.2873
  132OSM   C10F14274   5.860   3.463   7.466 -0.0600 -0.1775  0.8157
  132OSM   H10F14275   5.904   3.548   7.519  1.4287 -1.3284  1.4895
  132OSM   C11F14276   5.827   3.342   7.553  0.2422 -0.4198  0.0493
  132OSM   H11F14277   5.920   3.280   7.556  2.5655  2.7761 -1.1145
  132OSM   H11G14278   5.743   3.280   7.516  1.3035 -2.6209  1.1076
  132OSM   C12F14279   5.777   3.391   7.687 -0.3484 -0.4431  0.0265
  132OSM   H12F14280   5.836   3.462   7.750 -0.1912 -1.4606  1.0655
  132OSM   H12G14281   5.761   3.307   7.758  0.5509 -1.3642 -0.8354
  132OSM   C13F14282   5.643   3.461   7.667 -0.0160 -0.6377  0.3420
  132OSM   H13F14283   5.575   3.385   7.622 -0.6719 -2.0368  3.4360
  132OSM   H13G14284   5.646   3.542   7.591 -0.0820 -3.4672 -2.8970
  132OSM   C14F14285   5.574   3.497   7.795  0.5140 -0.2925 -0.2705
  132OSM   H14F14286   5.606   3.601   7.818 -1.3158  1.1585 -3.5957
  132OSM   H14G14287   5.607   3.419   7.867 -1.2360 -1.3349 -0.5260
  132OSM   C15F14288   5.419   3.489   7.791 -0.2737 -0.3882 -0.5062
  132OSM   H15F14289   5.381   3.385   7.784 -2.3911  0.4144 -2.0547
  132OSM   H15G14290   5.392   3.549   7.701 -0.3107 -1.1364 -1.0044
  132OSM   C16F14291   5.348   3.555   7.915  0.6268  0.2545  0.4736
  132OSM   H16F14292   5.409   3.529   8.004 -0.8675 -1.1916  1.1264
  132OSM   H16G14293   5.257   3.491   7.918  0.9089 -0.4294 -2.5784
  132OSM   C17F14294   5.340   3.712   7.895  0.6493  0.3705 -0.4327
  132OSM   H17F14295   5.293   3.754   7.803  3.2192  0.7067 -1.6912
  132OSM   H17G14296   5.446   3.743   7.890  0.5800  0.8207  0.5383
  132OSM   C18F14297   5.279   3.782   8.022 -0.9850 -0.0892 -0.5413
  132OSM   H18F14298   5.274   3.890   7.995  0.4777  0.1907  0.2104
  132OSM   H18G14299   5.358   3.780   8.100  0.5477 -1.1941 -2.0531
  132OSM   H18H14300   5.176   3.753   8.053 -0.7404 -0.5119 -0.1159
  133SAPE     N14301   0.895   1.525  10.817  0.1733 -0.5363 -0.0006
  133SAPE   HN114302   0.949   1.444  10.855 -0.2518 -1.0457 -0.4815
  133SAPE   HN214303   0.820   1.534  10.888 -3.1229  1.3514 -3.3721
  133SAPE   HN314304   0.851   1.484  10.733  0.4036 -0.8207  0.0139
  133SAPE   C1214305   0.973   1.655  10.816 -0.0456 -0.1825 -0.1169
  133SAPE  H12A14306   1.006   1.685  10.918  0.0098 -0.1544 -0.1428
  133SAPE  H12B14307   0.900   1.727  10.773 -0.4723 -0.9005 -0.6046
  133SAPE   C1114308   1.098   1.653  10.729  0.3907 -0.1047  0.9101
  133SAPE  H11A14309   1.066   1.696  10.632  0.0201 -2.0075  0.1491
  133SAPE  H11B14310   1.136   1.550  10.710  0.4918  0.3598 -1.9074
  133SAPE     P14311   1.344   1.752  10.716 -0.3021  0.1191  0.4853
  133SAPE   O1314312   1.376   1.899  10.725 -0.5947  0.2145 -0.0406
  133SAPE   O1414313   1.435   1.655  10.776  0.2628  0.1937  0.1306
  133SAPE   O1214314   1.200   1.732  10.776 -0.1246  0.3206  0.4999
  133SAPE   O1114315   1.323   1.702  10.568  0.8797  0.0149  0.4801
  133SAPE    C114316   1.425   1.739  10.473  0.6466  0.0218 -0.8034
  133SAPE    HA14317   1.470   1.840  10.480 -1.0216  0.7799 -0.5841
  133SAPE    HB14318   1.512   1.675  10.497  2.0534  2.6879  1.8151
  133SAPE    C214319   1.387   1.708  10.335  0.5521  0.0505  0.2092
  133SAPE    HS14320   1.476   1.704  10.269 -0.9624  0.2996 -1.9506
  133SAPE   O2114321   1.292   1.804  10.284 -0.3931 -0.5504  0.0576
  133SAPE   C2114322   1.291   1.815  10.152  0.4876  0.2622 -0.6693
  133SAPE   O2214323   1.366   1.757  10.078 -0.0458  0.3655  0.1983
  133SAPE   C2214324   1.169   1.891  10.113  0.1839 -0.8576 -0.5121
  133SAPE   H2R14325   1.081   1.849  10.167  0.3510 -0.5028  0.0475
  133SAPE   H2S14326   1.180   1.995  10.149  0.0807 -1.1732  0.4753
  133SAPE    C314327   1.319   1.561  10.332 -0.9248 -0.0678  0.4897
  133SAPE    HX14328   1.217   1.578  10.371 -0.4918 -1.9385  2.6117
  133SAPE    HY14329   1.377   1.501  10.405  1.0762 -0.0707 -1.0025
  133SAPE   O3114330   1.331   1.483  10.209  0.6914  0.2853  0.4741
  133SAPE   C3114331   1.207   1.456  10.162  0.2717 -1.0092 -0.7170
  133SAPE   O3214332   1.101   1.464  10.223 -0.5371  0.1898 -0.0107
  133SAPE   C3214333   1.229   1.401  10.023 -0.9508  0.5315  0.0967
  133SAPE   H2X14334   1.250   1.292  10.019 -0.9678  0.4686  1.4794
  133SAPE   H2Y14335   1.313   1.453   9.972 -2.1129  0.1647 -2.3679
  133SAPE   C2314336   1.139   1.909   9.960  0.3031  0.3215  0.3328
  133SAPE   H3R14337   1.109   1.813   9.912 -0.5523  1.0361 -0.5960
  133SAPE   H3S14338   1.234   1.935   9.909  0.5609  0.2405  0.7670
  133SAPE   C2414339   1.033   2.018   9.910  0.3325  0.6395 -0.8171
  133SAPE   H4R14340   1.020   2.010   9.800  1.7189 -0.3829 -0.9299
  133SAPE   H4S14341   1.062   2.124   9.926  1.9351  0.2241 -0.7684
  133SAPE   C2514342   0.901   1.995   9.980 -0.0629 -0.0237  0.4764
  133SAPE   H5R14343   0.877   2.066  10.060 -0.2686  1.5790 -0.9503
  133SAPE   C2614344   0.807   1.906   9.933 -0.3808  0.2918  0.4769
  133SAPE   H6R14345   0.710   1.908   9.984 -1.1075 -0.3010 -0.8407
  133SAPE   C2714346   0.818   1.805   9.821  0.7061  0.9498 -0.8863
  133SAPE   H7R14347   0.806   1.700   9.857  0.2226  0.5415 -2.1746
  133SAPE   H7S14348   0.922   1.798   9.781  0.8529  1.6060 -0.6315
  133SAPE   C2814349   0.721   1.827   9.706 -0.1965  0.2088  0.2012
  133SAPE   H8R14350   0.621   1.786   9.722 -0.5826  1.1395  0.2427
  133SAPE   C2914351   0.745   1.902   9.590  0.1844 -0.3500  0.4615
  133SAPE   H9R14352   0.665   1.907   9.514 -0.5343 -1.5274  1.1055
  133SAPE  C21014353   0.862   1.982   9.550 -0.5362  0.4152  0.3457
  133SAPE  H10R14354   0.895   1.957   9.448  1.2002 -1.5091  1.3164
  133SAPE  H10S14355   0.954   1.960   9.607  0.1781 -2.1593 -1.6337
  133SAPE  C21114356   0.841   2.133   9.557 -0.7406 -0.0293 -0.4320
  133SAPE  H11R14357   0.784   2.174   9.641 -0.9625  1.1606 -1.1412
  133SAPE  C21214358   0.879   2.230   9.467  0.0764  0.5733  0.3580
  133SAPE  H12R14359   0.876   2.336   9.498 -1.2174  0.5232  0.4362
  133SAPE  C21314360   0.950   2.193   9.341 -0.2720  1.2761  0.3248
  133SAPE  H13R14361   1.019   2.107   9.354  0.4297  1.4674 -1.7700
  133SAPE  H13S14362   1.016   2.273   9.302 -1.2675  0.7377 -2.7752
  133SAPE  C21414363   0.858   2.166   9.230  0.4049 -0.5552 -0.0591
  133SAPE  H14R14364   0.771   2.104   9.256 -0.9438  0.6712 -1.4079
  133SAPE  C21514365   0.851   2.223   9.111 -0.7592 -0.0602  0.0047
  133SAPE  H15R14366   0.777   2.178   9.043 -0.4647 -2.5050  1.1789
  133SAPE  C21614367   0.945   2.319   9.043 -0.3512 -0.4673 -0.1471
  133SAPE  H16R14368   1.051   2.300   9.070  0.3699  3.7378  0.6816
  133SAPE  H16S14369   0.928   2.421   9.083 -2.3626 -1.6331  2.2717
  133SAPE  C21714370   0.917   2.320   8.892 -0.6055  0.1818 -0.0835
  133SAPE  H17R14371   0.810   2.340   8.871 -0.8330  2.2026  2.5384
  133SAPE  H17S14372   0.937   2.219   8.850 -0.1256  0.6958 -1.1254
  133SAPE  C21814373   0.989   2.417   8.804 -0.0876 -0.2465 -0.1874
  133SAPE  H18R14374   1.099   2.405   8.795 -0.0362  0.8424 -1.3615
  133SAPE  H18S14375   0.964   2.517   8.846 -0.7414  0.2187 -1.6415
  133SAPE  C21914376   0.943   2.411   8.661  0.3496  0.0156  0.0932
  133SAPE  H19R14377   0.832   2.413   8.656  0.1985  4.4287  0.9563
  133SAPE  H19S14378   0.974   2.323   8.600  0.5239 -0.1755  0.4560
  133SAPE  C22014379   0.964   2.539   8.581 -0.1396  0.5337  0.4495
  133SAPE  H20R14380   0.961   2.519   8.472 -0.3463  0.3036  0.4955
  133SAPE  H20S14381   1.059   2.587   8.613  0.2006  0.9069 -1.0314
  133SAPE  H20T14382   0.890   2.620   8.600  1.1689  2.2232 -1.2208
  133SAPE   C3314383   1.099   1.413   9.934 -0.1023 -0.3588 -0.0925
  133SAPE   H3X14384   1.037   1.498   9.971  1.3356  1.5705 -1.8702
  133SAPE   H3Y14385   1.042   1.318   9.945 -0.6222 -0.3003 -1.9764
  133SAPE   C3414386   1.142   1.432   9.788  0.4372  0.8887 -0.2332
  133SAPE   H4X14387   1.061   1.401   9.718  3.3779 -0.8106 -3.1651
  133SAPE   H4Y14388   1.230   1.372   9.758 -0.7246  0.4608 -3.0837
  133SAPE   C3514389   1.167   1.575   9.751 -1.0357 -0.3498 -0.2404
  133SAPE   H5X14390   1.257   1.598   9.811 -1.1414  0.8518 -0.5210
  133SAPE   H5Y14391   1.077   1.635   9.778 -0.8085 -0.0191 -0.2181
  133SAPE   C3614392   1.215   1.596   9.603  0.4680 -0.0458  0.2140
  133SAPE   H6X14393   1.146   1.542   9.535  0.1058 -0.5230  0.9443
  133SAPE   H6Y14394   1.317   1.556   9.581  0.6633  1.4160 -1.8332
  133SAPE   C3714395   1.230   1.749   9.568  0.1999  1.0359  0.7261
  133SAPE   H7X14396   1.294   1.794   9.646  0.6503  2.2039 -0.2894
  133SAPE   H7Y14397   1.132   1.801   9.571 -0.6819 -0.5418  0.7682
  133SAPE   C3814398   1.301   1.780   9.428 -0.4284 -0.2944 -1.0465
  133SAPE   H8X14399   1.245   1.733   9.344 -1.0845  1.1220 -1.4502
  133SAPE   H8Y14400   1.399   1.728   9.433 -0.7064 -0.9151  4.6187
  133SAPE   C3914401   1.315   1.930   9.394 -0.2554 -0.6946 -0.0073
  133SAPE   H9X14402   1.399   1.965   9.457 -1.4969 -0.5373  1.6050
  133SAPE   H9Y14403   1.224   1.986   9.424  0.0052  0.8306 -1.8694
  133SAPE  C31014404   1.344   1.975   9.255 -0.2886 -0.7368  0.0360
  133SAPE  H10X14405   1.315   2.081   9.237 -2.1174 -1.0795  0.7454
  133SAPE  H10Y14406   1.300   1.903   9.183  0.5001 -0.5522 -0.6550
  133SAPE  C31114407   1.494   1.961   9.237 -0.1487  0.1455 -0.2613
  133SAPE  H11X14408   1.522   1.856   9.259 -0.2321  0.0558 -0.5780
  133SAPE  H11Y14409   1.552   2.020   9.311 -1.0238  1.8641 -0.8764
  133SAPE  C31214410   1.531   1.995   9.092  0.2856  0.0462 -0.1972
  133SAPE  H12X14411   1.518   2.103   9.067  1.5742  1.2621  3.6619
  133SAPE  H12Y14412   1.482   1.928   9.018  1.3865  0.9057 -1.7687
  133SAPE  C31314413   1.681   1.976   9.078 -0.2672 -0.9672  1.0235
  133SAPE  H13X14414   1.702   1.869   9.103  0.1910 -1.1167  0.0376
  133SAPE  H13Y14415   1.736   2.040   9.151  1.9070 -0.2860 -1.0787
  133SAPE  C31414416   1.758   2.002   8.950 -0.6400  0.3965  0.3745
  133SAPE  H14X14417   1.861   1.960   8.950 -0.6655  0.2988  1.8384
  133SAPE  H14Y14418   1.777   2.110   8.932  2.9439 -0.1717 -0.1987
  133SAPE  C31514419   1.689   1.933   8.827 -0.2276  0.4325  0.1512
  133SAPE  H15X14420   1.579   1.953   8.830 -0.4778 -0.9254  0.6060
  133SAPE  H15Y14421   1.694   1.822   8.830  0.0693  0.3986 -1.0113
  133SAPE  C31614422   1.738   1.974   8.684 -0.1525  0.5114  0.4430
  133SAPE  H16X14423   1.844   1.947   8.666 -0.2383  0.5741 -0.1858
  133SAPE  H16Y14424   1.742   2.085   8.679 -2.1404  0.6397  0.5623
  133SAPE  C31714425   1.655   1.920   8.576  0.2828  0.0580 -0.7313
  133SAPE  H17X14426   1.660   1.810   8.583 -0.3289 -0.0664 -1.9384
  133SAPE  H17Y14427   1.701   1.936   8.476  3.1818 -2.3728  0.0555
  133SAPE  C31814428   1.511   1.978   8.581  0.3360 -0.6104  0.6859
  133SAPE  H18X14429   1.509   2.079   8.534  0.1867 -0.5095  0.9055
  133SAPE  H18Y14430   1.470   1.999   8.682  0.4164  0.7736  0.4532
  133SAPE  H18Z14431   1.441   1.910   8.527  0.3257 -1.7266  2.0623
  134SAPE     N14432   3.301   1.903  10.882  0.9822 -0.1559 -0.3586
  134SAPE   HN114433   3.277   1.821  10.941 -0.0726  1.6000  1.7632
  134SAPE   HN214434   3.228   1.953  10.829  0.2352 -0.0641  0.7319
  134SAPE   HN314435   3.366   1.865  10.810  0.9828 -1.5828  0.3671
  134SAPE   C1214436   3.373   1.998  10.970  0.1541  0.5330 -0.7980
  134SAPE  H12A14437   3.405   1.947  11.063  1.7423  0.8154 -1.1642
  134SAPE  H12B14438   3.302   2.082  10.990 -1.1487  0.0405 -3.0172
  134SAPE   C1114439   3.494   2.064  10.899 -0.3432  0.2973 -0.3224
  134SAPE  H11A14440   3.544   2.138  10.965 -0.2891  0.7271 -0.8325
  134SAPE  H11B14441   3.452   2.119  10.812  0.0557 -1.2271 -1.5242
  134SAPE     P14442   3.604   1.888  10.726 -0.3085 -0.3046  0.1773
  134SAPE   O1314443   3.734   1.821  10.720  0.0097 -0.2245  0.1681
  134SAPE   O1414444   3.487   1.799  10.704 -0.3893  0.2039  0.5904
  134SAPE   O1214445   3.595   1.961  10.870  0.5912 -0.2406 -0.7152
  134SAPE   O1114446   3.608   2.001  10.608 -0.0743 -0.5804 -0.4567
  134SAPE    C114447   3.705   2.110  10.622 -0.7701 -0.1174 -0.0246
  134SAPE    HA14448   3.675   2.172  10.710  1.6400 -0.4335  1.1090
  134SAPE    HB14449   3.808   2.070  10.635 -0.2439  0.8428 -1.0644
  134SAPE    C214450   3.699   2.195  10.498  0.1431  0.8837  0.1708
  134SAPE    HS14451   3.596   2.185  10.458 -0.4704  1.8682  1.4503
  134SAPE   O2114452   3.801   2.148  10.406 -0.1542  0.0359 -0.1394
  134SAPE   C2114453   3.770   2.080  10.293 -0.4776 -0.3789 -0.0521
  134SAPE   O2214454   3.666   2.029  10.274  0.1004  0.3041  0.6036
  134SAPE   C2214455   3.882   2.085  10.190 -1.4195  0.9450  0.2646
  134SAPE   H2R14456   3.944   2.178  10.191  1.6300 -0.8220 -2.7165
  134SAPE   H2S14457   3.952   2.002  10.212 -3.3201 -1.2739 -1.6103
  134SAPE    C314458   3.722   2.345  10.531 -0.4743 -0.1808 -0.0586
  134SAPE    HX14459   3.803   2.355  10.606 -0.1045  1.2673 -0.6312
  134SAPE    HY14460   3.635   2.382  10.590  1.6235  2.1943  1.7725
  134SAPE   O3114461   3.739   2.427  10.414 -0.0922  0.0063  0.4305
  134SAPE   C3114462   3.629   2.461  10.347 -0.1525  0.0660  0.5794
  134SAPE   O3214463   3.520   2.461  10.396 -0.4578 -0.1886  0.5069
  134SAPE   C3214464   3.659   2.485  10.199 -0.0829  0.2419  0.4082
  134SAPE   H2X14465   3.610   2.578  10.162  2.7158  1.1817 -1.2233
  134SAPE   H2Y14466   3.621   2.408  10.129 -1.4914  3.5111 -2.7545
  134SAPE   C2314467   3.841   2.066  10.043  0.0281  0.0445  0.1747
  134SAPE   H3R14468   3.780   2.156  10.021 -0.3255 -0.3205 -0.3585
  134SAPE   H3S14469   3.778   1.974  10.041  2.2730 -1.6231  1.1723
  134SAPE   C2414470   3.945   2.035   9.937 -0.5044 -0.8382 -0.4620
  134SAPE   H4R14471   3.894   1.999   9.844  0.0693 -1.1837 -0.6459
  134SAPE   H4S14472   4.006   1.948   9.968  1.7143  0.3084 -1.4110
  134SAPE   C2514473   4.038   2.152   9.911  0.5324 -0.0420  0.6743
  134SAPE   H5R14474   4.111   2.160   9.993  0.4178 -1.7064  0.9825
  134SAPE   C2614475   4.033   2.237   9.807 -0.1665  0.0410 -0.3314
  134SAPE   H6R14476   4.105   2.320   9.801 -1.8018  1.5432 -0.0372
  134SAPE   C2714477   3.933   2.230   9.698 -0.0278 -1.2428 -0.3294
  134SAPE   H7R14478   3.921   2.336   9.670  0.7857 -0.8677  0.6524
  134SAPE   H7S14479   3.835   2.189   9.732 -0.6384  3.1425  4.4982
  134SAPE   C2814480   3.977   2.154   9.581  0.4229  0.1342  1.0947
  134SAPE   H8R14481   3.990   2.046   9.598 -2.0127 -0.8880 -2.4340
  134SAPE   C2914482   4.013   2.188   9.459  0.9789  0.5455  0.7870
  134SAPE   H9R14483   4.044   2.110   9.388  0.2976  0.5119  0.5206
  134SAPE  C21014484   4.012   2.330   9.411  0.6016  0.2243 -0.7729
  134SAPE  H10R14485   4.044   2.399   9.491 -0.7607 -1.6426  1.5022
  134SAPE  H10S14486   3.903   2.342   9.393  0.4540  0.1809  0.0842
  134SAPE  C21114487   4.097   2.351   9.294 -0.2537  0.6680 -0.5623
  134SAPE  H11R14488   4.190   2.292   9.294 -1.0223 -0.5955  0.7438
  134SAPE  C21214489   4.072   2.436   9.191  0.1853  0.1679 -0.0055
  134SAPE  H12R14490   4.150   2.452   9.115  1.2194 -2.8799  0.3000
  134SAPE  C21314491   3.952   2.523   9.168 -0.6679  0.0880 -0.4681
  134SAPE  H13R14492   3.920   2.564   9.266 -4.3100  0.8942 -1.8654
  134SAPE  H13S14493   3.863   2.461   9.145 -2.4329  2.9093 -1.6603
  134SAPE  C21414494   3.973   2.636   9.072  0.6464 -0.7860 -0.0857
  134SAPE  H14R14495   3.981   2.734   9.121 -1.1350 -1.0008  0.7359
  134SAPE  C21514496   3.995   2.642   8.937  0.1375  0.8933  0.5252
  134SAPE  H15R14497   4.002   2.732   8.875  2.1105 -1.9796 -4.0126
  134SAPE  C21614498   4.005   2.512   8.866 -0.9180  0.2500  0.8328
  134SAPE  H16R14499   3.937   2.496   8.779 -1.9021  0.6469  1.5172
  134SAPE  H16S14500   3.979   2.426   8.931 -0.2852 -1.9932 -1.6787
  134SAPE  C21714501   4.154   2.485   8.823  0.2420  0.1878  0.2725
  134SAPE  H17R14502   4.171   2.380   8.792  0.1598  0.2964 -0.1474
  134SAPE  H17S14503   4.212   2.496   8.918 -1.2947  0.3409  1.2283
  134SAPE  C21814504   4.203   2.583   8.715 -0.3733  0.2884 -0.4680
  134SAPE  H18R14505   4.313   2.592   8.733 -0.7112  0.0958  2.1539
  134SAPE  H18S14506   4.159   2.682   8.741  1.7432  0.5148  2.9943
  134SAPE  C21914507   4.159   2.548   8.574  0.3086 -0.1304 -0.0792
  134SAPE  H19R14508   4.048   2.550   8.572  0.2460  0.6157  1.8609
  134SAPE  H19S14509   4.195   2.446   8.549 -0.8238 -0.7780  0.8157
  134SAPE  C22014510   4.215   2.637   8.465  0.4451  0.7253 -0.4826
  134SAPE  H20R14511   4.178   2.593   8.370  0.6992 -0.5461 -0.0069
  134SAPE  H20S14512   4.326   2.636   8.473  0.3516  1.1694  1.2631
  134SAPE  H20T14513   4.171   2.739   8.463 -0.0106  0.5219 -1.3832
  134SAPE   C3314514   3.814   2.493  10.171  0.3631 -0.1058  0.0841
  134SAPE   H3X14515   3.878   2.412  10.212 -0.7301 -0.8342  0.3967
  134SAPE   H3Y14516   3.861   2.584  10.215  1.2856 -0.5244 -0.0074
  134SAPE   C3414517   3.841   2.484  10.020 -0.5449  0.1681 -0.0474
  134SAPE   H4X14518   3.803   2.388   9.979  0.5250 -0.4597  0.3968
  134SAPE   H4Y14519   3.951   2.475  10.011 -0.6584  0.6384 -3.0094
  134SAPE   C3514520   3.779   2.605   9.945 -0.1062 -0.2360 -0.9034
  134SAPE   H5X14521   3.832   2.696   9.980 -1.3401  0.5650 -1.0708
  134SAPE   H5Y14522   3.670   2.623   9.947 -0.0510  0.6951 -3.3365
  134SAPE   C3614523   3.810   2.596   9.797 -0.1948 -0.2406 -0.0772
  134SAPE   H6X14524   3.750   2.510   9.760  0.5512 -1.3350  1.1491
  134SAPE   H6Y14525   3.916   2.567   9.779 -0.7682 -2.2414 -0.4706
  134SAPE   C3714526   3.783   2.716   9.715 -0.1485 -0.4163  0.0092
  134SAPE   H7X14527   3.874   2.780   9.718 -0.2564 -0.2718  3.1225
  134SAPE   H7Y14528   3.701   2.778   9.759 -1.6493 -1.0279 -1.7670
  134SAPE   C3814529   3.749   2.680   9.571 -0.6469 -0.2130  0.4856
  134SAPE   H8X14530   3.661   2.612   9.572 -0.5098 -0.3818  1.4537
  134SAPE   H8Y14531   3.839   2.630   9.529  1.1506  1.8039  1.7563
  134SAPE   C3914532   3.715   2.813   9.496 -0.2260 -0.2935 -0.9951
  134SAPE   H9X14533   3.808   2.873   9.497 -0.5572  0.2280  0.6752
  134SAPE   H9Y14534   3.624   2.859   9.539 -0.1590 -1.8084  0.8920
  134SAPE  C31014535   3.674   2.786   9.347 -0.2611 -1.3517  0.8416
  134SAPE  H10X14536   3.566   2.761   9.345 -0.5743 -0.0582 -0.5240
  134SAPE  H10Y14537   3.749   2.714   9.306  3.5075  1.9125  1.3306
  134SAPE  C31114538   3.687   2.919   9.266  0.1919  0.4528 -0.2201
  134SAPE  H11X14539   3.782   2.972   9.284 -0.9834  2.0917  1.5255
  134SAPE  H11Y14540   3.612   2.995   9.298  1.3812  1.1760  0.9526
  134SAPE  C31214541   3.695   2.892   9.115  0.7893 -0.7140  0.6654
  134SAPE  H12X14542   3.617   2.814   9.102  0.3997 -0.3765  0.9311
  134SAPE  H12Y14543   3.796   2.855   9.089  0.0204 -0.8241 -2.7459
  134SAPE  C31314544   3.653   3.025   9.040 -0.3974 -0.8474  0.2519
  134SAPE  H13X14545   3.742   3.091   9.035 -1.9639  1.2976 -0.8660
  134SAPE  H13Y14546   3.571   3.077   9.093 -0.3026  1.1495 -1.4585
  134SAPE  C31414547   3.628   2.989   8.894 -0.2198  1.1815 -0.1675
  134SAPE  H14X14548   3.564   2.900   8.876  0.5398  0.3818  0.9369
  134SAPE  H14Y14549   3.726   2.949   8.859 -0.1439  0.7204  0.5425
  134SAPE  C31514550   3.580   3.110   8.812 -0.3779  0.5485 -0.0485
  134SAPE  H15X14551   3.497   3.167   8.859 -2.0983  0.1891 -2.4505
  134SAPE  H15Y14552   3.529   3.067   8.723  0.2316 -0.5605  0.1176
  134SAPE  C31614553   3.691   3.196   8.768 -0.4158 -1.1058 -0.0291
  134SAPE  H16X14554   3.768   3.132   8.720 -0.3232 -0.9090 -0.1446
  134SAPE  H16Y14555   3.746   3.244   8.852  1.6415 -3.5224  0.1477
  134SAPE  C31714556   3.639   3.301   8.670 -0.2705  0.6574 -0.2232
  134SAPE  H17X14557   3.595   3.377   8.738 -2.7742 -1.5598  0.8251
  134SAPE  H17Y14558   3.554   3.267   8.607  0.7822 -1.5897 -0.5193
  134SAPE  C31814559   3.743   3.367   8.587 -0.3472  0.1332  0.1361
  134SAPE  H18X14560   3.790   3.284   8.530  0.1993  1.0447 -0.7555
  134SAPE  H18Y14561   3.824   3.429   8.630 -0.4025  1.8904 -2.1433
  134SAPE  H18Z14562   3.696   3.437   8.515  0.2784  0.8711  0.4289
  135SAPE     N14563   2.787   2.116  10.309  0.1513  0.5068  0.1654
  135SAPE   HN114564   2.770   2.039  10.242  1.0275  2.7774 -2.8807
  135SAPE   HN214565   2.701   2.175  10.317  0.5172  1.5146 -2.3885
  135SAPE   HN314566   2.875   2.162  10.277  2.4165 -3.7710 -0.4469
  135SAPE   C1214567   2.809   2.058  10.446 -0.1092  0.6506  0.1976
  135SAPE  H12A14568   2.706   2.038  10.483 -0.2331 -0.6455 -0.7996
  135SAPE  H12B14569   2.861   2.134  10.509  0.9308 -1.2279  1.7006
  135SAPE   C1114570   2.908   1.939  10.442 -0.3327 -0.4010 -0.5021
  135SAPE  H11A14571   2.918   1.894  10.543 -0.9947 -1.9237 -1.0904
  135SAPE  H11B14572   3.011   1.977  10.428  0.1188 -0.5836  1.8727
  135SAPE     P14573   2.764   1.726  10.375  0.3898  0.3205  0.0459
  135SAPE   O1314574   2.715   1.747  10.510  0.2432 -0.0892  0.1060
  135SAPE   O1414575   2.667   1.703  10.260  0.0900  0.3603  0.1511
  135SAPE   O1214576   2.866   1.844  10.347  0.2942 -0.1852  0.0661
  135SAPE   O1114577   2.855   1.598  10.379  0.1722 -0.1738 -0.3617
  135SAPE    C114578   2.985   1.604  10.323 -0.1570  0.4223 -1.2688
  135SAPE    HA14579   3.043   1.680  10.379 -0.7450  2.2029 -2.9624
  135SAPE    HB14580   3.024   1.501  10.335  0.9417  0.9741  0.2329
  135SAPE    C214581   2.989   1.640  10.170  0.0939 -0.7589  0.3195
  135SAPE    HS14582   2.966   1.748  10.161  1.2383 -0.5068  0.2359
  135SAPE   O2114583   2.909   1.545  10.093  0.3124 -0.4182  0.0277
  135SAPE   C2114584   2.849   1.605   9.989 -0.0544  0.3122  0.0484
  135SAPE   O2214585   2.865   1.723   9.962  0.2112 -0.0137  0.1571
  135SAPE   C2214586   2.769   1.501   9.916  0.1964 -0.3314  0.5152
  135SAPE   H2R14587   2.833   1.410   9.913 -0.5166 -0.8331  0.0001
  135SAPE   H2S14588   2.679   1.478   9.977 -0.2642  1.9559  0.7773
  135SAPE    C314589   3.142   1.642  10.118  0.1494  0.4416  0.5030
  135SAPE    HX14590   3.168   1.540  10.083  2.3714  1.4349 -0.9026
  135SAPE    HY14591   3.211   1.670  10.200 -0.0045 -0.2124  0.8640
  135SAPE   O3114592   3.149   1.737  10.013 -0.0417  0.0627  0.1234
  135SAPE   C3114593   3.170   1.693   9.892  0.6240  0.2064 -0.6878
  135SAPE   O3214594   3.166   1.578   9.854 -0.1692  0.0001  0.2118
  135SAPE   C3214595   3.192   1.806   9.789 -0.7118  0.0791 -0.5200
  135SAPE   H2X14596   3.277   1.866   9.829 -2.1563 -0.2417  3.5530
  135SAPE   H2Y14597   3.102   1.872   9.791 -1.8138 -1.3363  2.2049
  135SAPE   C2314598   2.718   1.549   9.778  0.9226  0.1608  0.1109
  135SAPE   H3R14599   2.808   1.555   9.713  1.5559  0.0362  0.9601
  135SAPE   H3S14600   2.676   1.652   9.780  1.8824  0.5447  1.1290
  135SAPE   C2414601   2.603   1.449   9.722  0.6460 -1.0261  0.2788
  135SAPE   H4R14602   2.554   1.500   9.636  4.9802 -2.6395 -3.6126
  135SAPE   H4S14603   2.529   1.409   9.794 -0.5883 -0.4837 -0.6494
  135SAPE   C2514604   2.677   1.331   9.665  0.7317 -0.5876 -0.4343
  135SAPE   H5R14605   2.663   1.239   9.723  0.3910 -0.3919 -0.2036
  135SAPE   C2614606   2.753   1.316   9.553 -1.0188  0.0232  0.0934
  135SAPE   H6R14607   2.795   1.216   9.536 -0.0652  0.0953  1.7773
  135SAPE   C2714608   2.782   1.421   9.454 -0.1989  0.8262 -0.1751
  135SAPE   H7R14609   2.727   1.512   9.490 -2.7235  0.2823 -2.3362
  135SAPE   H7S14610   2.721   1.395   9.365 -1.0973  0.0499  0.6414
  135SAPE   C2814611   2.925   1.448   9.421  0.2288 -0.1753  0.7490
  135SAPE   H8R14612   2.991   1.440   9.509  1.5186 -0.1472 -0.1855
  135SAPE   C2914613   2.978   1.470   9.299  0.5622 -0.0761 -0.0075
  135SAPE   H9R14614   3.087   1.480   9.286  0.3925  0.1875 -1.3977
  135SAPE  C21014615   2.903   1.484   9.168 -0.7859 -0.0342 -0.3251
  135SAPE  H10R14616   2.800   1.517   9.191 -0.6826 -1.6731  3.2320
  135SAPE  H10S14617   2.895   1.385   9.119 -1.8176  0.0135 -0.2633
  135SAPE  C21114618   2.971   1.590   9.077 -0.6269 -0.2749  1.1702
  135SAPE  H11R14619   3.006   1.682   9.126  0.2204 -0.1561  0.3642
  135SAPE  C21214620   2.990   1.584   8.944  0.3974 -0.7929  0.2004
  135SAPE  H12R14621   3.044   1.664   8.890  0.2254 -1.1233 -0.4776
  135SAPE  C21314622   2.933   1.465   8.861  0.5459  0.1359 -0.7258
  135SAPE  H13R14623   2.828   1.443   8.893  0.5302 -0.9065 -1.4366
  135SAPE  H13S14624   2.997   1.378   8.889  0.1825  0.0966  0.0206
  135SAPE  C21414625   2.943   1.485   8.716 -0.5307  0.0602  0.7416
  135SAPE  H14R14626   2.864   1.549   8.674  1.2920  1.7337 -0.3178
  135SAPE  C21514627   3.022   1.424   8.629 -0.4451 -0.0596 -0.0374
  135SAPE  H15R14628   3.014   1.440   8.521 -0.0133 -2.4052 -0.4764
  135SAPE  C21614629   3.127   1.324   8.667 -0.9937  0.8281  0.1531
  135SAPE  H16R14630   3.086   1.223   8.687 -2.1296  0.6618 -2.5082
  135SAPE  H16S14631   3.173   1.364   8.760  2.0101  2.6296 -1.9314
  135SAPE  C21714632   3.247   1.314   8.566  0.0317 -0.3407  0.8396
  135SAPE  H17R14633   3.288   1.416   8.549  1.3334 -1.0608 -0.5599
  135SAPE  H17S14634   3.209   1.286   8.466  1.8313  2.5224 -0.7782
  135SAPE  C21814635   3.357   1.209   8.587 -0.2774 -0.2794  0.5229
  135SAPE  H18R14636   3.308   1.122   8.637  0.5530  0.7305  3.2957
  135SAPE  H18S14637   3.428   1.256   8.659 -2.7135  1.4949  1.9056
  135SAPE  C21914638   3.427   1.165   8.454  0.2538  0.2711 -0.1582
  135SAPE  H19R14639   3.343   1.138   8.387 -0.9119 -0.8378  1.6441
  135SAPE  H19S14640   3.498   1.083   8.476  1.4548  0.9644 -1.2591
  135SAPE  C22014641   3.508   1.284   8.406  0.1552 -1.2062  0.2217
  135SAPE  H20R14642   3.530   1.271   8.298 -1.8718  1.1034 -0.5377
  135SAPE  H20S14643   3.589   1.307   8.479 -0.0863 -0.8380  0.3744
  135SAPE  H20T14644   3.448   1.377   8.408  2.3681  0.2852  0.7744
  135SAPE   C3314645   3.209   1.758   9.645 -0.0554 -0.0794 -0.5146
  135SAPE   H3X14646   3.123   1.690   9.628 -1.1892  1.5445 -1.6080
  135SAPE   H3Y14647   3.301   1.698   9.629 -0.0107  0.1467 -1.1415
  135SAPE   C3414648   3.198   1.876   9.535 -0.6905  0.3230  0.1532
  135SAPE   H4X14649   3.287   1.943   9.535  0.3808 -0.8910 -3.6223
  135SAPE   H4Y14650   3.112   1.945   9.544 -1.3610 -0.3921 -0.6247
  135SAPE   C3514651   3.198   1.829   9.392 -0.0176  0.5195 -0.7922
  135SAPE   H5X14652   3.103   1.782   9.360  0.5138  0.4533 -2.3786
  135SAPE   H5Y14653   3.281   1.755   9.383  0.0618  0.2668  1.4266
  135SAPE   C3614654   3.231   1.943   9.290  0.1420 -0.2220 -0.8209
  135SAPE   H6X14655   3.334   1.979   9.306  0.5451 -0.5813 -2.4893
  135SAPE   H6Y14656   3.179   2.035   9.324  3.0847  1.7844 -1.3841
  135SAPE   C3714657   3.195   1.909   9.144 -1.4281  0.4570 -0.1861
  135SAPE   H7X14658   3.089   1.882   9.125 -0.8026 -0.1856 -3.3321
  135SAPE   H7Y14659   3.263   1.830   9.104 -2.1669 -0.3237  0.0558
  135SAPE   C3814660   3.231   2.032   9.055 -0.2068  0.2703 -0.7452
  135SAPE   H8X14661   3.332   2.066   9.086 -1.3467  2.0958  1.2504
  135SAPE   H8Y14662   3.156   2.110   9.078 -2.1792 -1.5686 -0.7062
  135SAPE   C3914663   3.222   2.020   8.898  0.6871 -0.5484  0.0390
  135SAPE   H9X14664   3.117   2.000   8.869 -0.5821  2.6246  1.8896
  135SAPE   H9Y14665   3.282   1.931   8.870  0.2198 -0.3646 -1.7045
  135SAPE  C31014666   3.279   2.148   8.837  0.1882  0.0074 -0.0433
  135SAPE  H10X14667   3.357   2.201   8.895  1.3302 -2.1870  0.5150
  135SAPE  H10Y14668   3.191   2.215   8.835 -0.4987 -0.8798 -0.7306
  135SAPE  C31114669   3.312   2.122   8.692  0.7179  0.2289 -0.5671
  135SAPE  H11X14670   3.237   2.057   8.642  0.7296 -0.8856  0.7947
  135SAPE  H11Y14671   3.413   2.079   8.678  0.8983  0.8110 -1.0598
  135SAPE  C31214672   3.311   2.254   8.620 -0.3384 -0.5105  0.1947
  135SAPE  H12X14673   3.403   2.309   8.649 -0.6921 -0.3590  1.0714
  135SAPE  H12Y14674   3.212   2.299   8.646 -0.2888  0.4991 -1.2768
  135SAPE  C31314675   3.302   2.237   8.467 -0.0839  0.5459  0.0674
  135SAPE  H13X14676   3.301   2.338   8.422  0.8447  0.6390  0.2338
  135SAPE  H13Y14677   3.199   2.202   8.444  0.0983 -0.0958  0.2030
  135SAPE  C31414678   3.406   2.158   8.400 -0.6504 -0.3044  0.1393
  135SAPE  H14X14679   3.399   2.052   8.434 -0.9575 -0.2059  0.3925
  135SAPE  H14Y14680   3.506   2.184   8.439  0.3081 -1.3900 -1.4839
  135SAPE  C31514681   3.402   2.172   8.243 -0.5583  0.6642 -0.0475
  135SAPE  H15X14682   3.406   2.280   8.219 -1.3204  0.3527 -1.7027
  135SAPE  H15Y14683   3.302   2.141   8.206  0.3774 -1.1718 -1.2168
  135SAPE  C31614684   3.521   2.084   8.176  0.5633 -0.1501  0.3926
  135SAPE  H16X14685   3.492   2.060   8.071  0.9308  2.5013 -0.3922
  135SAPE  H16Y14686   3.527   1.997   8.244  0.2301  0.0055  0.6233
  135SAPE  C31714687   3.665   2.145   8.180  0.7369  0.8470 -0.1505
  135SAPE  H17X14688   3.697   2.168   8.284  0.3888  0.6904 -0.0041
  135SAPE  H17Y14689   3.656   2.244   8.131 -0.7239 -0.3834 -2.5770
  135SAPE  C31814690   3.770   2.057   8.120 -0.3805  0.1039  0.3568
  135SAPE  H18X14691   3.774   1.955   8.164 -2.2033 -0.4344 -0.6361
  135SAPE  H18Y14692   3.873   2.099   8.124  0.1374 -1.1892  0.9959
  135SAPE  H18Z14693   3.747   2.045   8.012  0.4020  1.0654  0.0601
  136SAPE     N14694   5.478   0.635  10.661 -0.3208 -0.0536  0.1079
  136SAPE   HN114695   5.571   0.638  10.616 -1.8170  0.8463 -3.2220
  136SAPE   HN214696   5.439   0.544  10.628  0.0961  0.5594 -2.2753
  136SAPE   HN314697   5.426   0.713  10.616 -0.3105 -1.0296 -1.6967
  136SAPE   C1214698   5.487   0.640  10.817  0.0535  0.1696  1.1777
  136SAPE  H12A14699   5.448   0.741  10.842  1.6552  0.8412  1.1282
  136SAPE  H12B14700   5.595   0.647  10.845  0.0499 -0.1918  1.2860
  136SAPE   C1114701   5.420   0.519  10.880 -0.3283  0.1358  0.4535
  136SAPE  H11A14702   5.316   0.510  10.840  0.4486  1.1965 -2.0487
  136SAPE  H11B14703   5.419   0.543  10.988 -0.6038 -1.1217  0.7428
  136SAPE     P14704   5.450   0.262  10.867 -0.0066 -0.1091  0.1552
  136SAPE   O1314705   5.447   0.234  11.011 -0.0744 -0.1164 -1.0411
  136SAPE   O1414706   5.319   0.250  10.800 -0.3246  0.1683 -0.0070
  136SAPE   O1214707   5.508   0.410  10.853  0.2239  0.5577  0.1273
  136SAPE   O1114708   5.557   0.168  10.795  0.3573 -0.0588 -0.2927
  136SAPE    C114709   5.697   0.193  10.805 -0.6669  0.4861 -0.0192
  136SAPE    HA14710   5.724   0.219  10.910 -0.1512 -3.1841  0.9142
  136SAPE    HB14711   5.757   0.100  10.792 -2.6462 -0.9655  0.7503
  136SAPE    C214712   5.755   0.293  10.697  0.3127 -0.3786  0.5156
  136SAPE    HS14713   5.708   0.389  10.727 -0.3066 -1.1993  2.2574
  136SAPE   O2114714   5.716   0.243  10.568  0.0056 -0.5552 -0.0980
  136SAPE   C2114715   5.663   0.338  10.490 -0.5905  0.0729  0.4686
  136SAPE   O2214716   5.670   0.457  10.514 -0.3447 -0.1963  0.1605
  136SAPE   C2214717   5.603   0.281  10.365  0.4107  0.2788  0.0958
  136SAPE   H2R14718   5.665   0.194  10.336  0.2361 -0.1289  0.9239
  136SAPE   H2S14719   5.502   0.237  10.377  1.0388 -1.6657 -1.1662
  136SAPE    C314720   5.909   0.318  10.715  0.4363  0.0515 -0.1278
  136SAPE    HX14721   5.941   0.213  10.729 -2.3936 -0.8583  0.1289
  136SAPE    HY14722   5.933   0.373  10.809 -0.9386 -0.6463  0.6652
  136SAPE   O3114723   5.972   0.379  10.600  0.0446 -0.6165  1.0444
  136SAPE   C3114724   5.988   0.518  10.594  0.7660  0.1982  0.5571
  136SAPE   O3214725   5.947   0.589  10.682  0.2362 -0.1620 -0.3200
  136SAPE   C3214726   6.054   0.564  10.461 -0.7501 -0.5774  0.6203
  136SAPE   H2X14727   6.025   0.479  10.395 -0.9856 -0.7582  0.9565
  136SAPE   H2Y14728   6.164   0.560  10.477 -0.3760 -0.0113 -1.4536
  136SAPE   C2314729   5.586   0.397  10.257  1.2951  0.4389 -0.2901
  136SAPE   H3R14730   5.683   0.428  10.212  2.6616 -1.3575  1.2472
  136SAPE   H3S14731   5.541   0.485  10.307 -0.0250 -0.4275  0.1091
  136SAPE   C2414732   5.487   0.360  10.144 -0.5285 -0.3698 -0.7662
  136SAPE   H4R14733   5.492   0.446  10.074  0.7776 -0.9568 -1.4269
  136SAPE   H4S14734   5.383   0.353  10.183 -0.1850 -0.6829  0.1047
  136SAPE   C2514735   5.524   0.226  10.084  0.1633  0.2280 -0.0235
  136SAPE   H5R14736   5.508   0.141  10.151  1.4391  1.1768  1.5752
  136SAPE   C2614737   5.569   0.200   9.962  0.3312  0.7554  0.1135
  136SAPE   H6R14738   5.606   0.101   9.933 -1.3369 -0.0961  0.7575
  136SAPE   C2714739   5.596   0.305   9.851  0.3239  0.3958 -0.4047
  136SAPE   H7R14740   5.620   0.408   9.885  2.2240 -0.0802 -0.1477
  136SAPE   H7S14741   5.502   0.326   9.796  1.2833  2.6308 -1.3294
  136SAPE   C2814742   5.693   0.268   9.739  0.1381 -0.7108 -0.4406
  136SAPE   H8R14743   5.787   0.325   9.744 -0.3602  0.2358 -1.6883
  136SAPE   C2914744   5.679   0.186   9.635  0.4120  1.6304  0.1405
  136SAPE   H9R14745   5.759   0.185   9.559 -0.9271  3.1264 -1.3742
  136SAPE  C21014746   5.552   0.106   9.597 -0.5189 -0.7500  0.1798
  136SAPE  H10R14747   5.479   0.112   9.680  1.3827 -2.2457  2.0445
  136SAPE  H10S14748   5.578  -0.002   9.598  2.0573 -0.2057  0.0106
  136SAPE  C21114749   5.489   0.137   9.467 -0.2808  0.3428 -0.7333
  136SAPE  H11R14750   5.564   0.179   9.398 -0.0141 -0.1015 -0.7141
  136SAPE  C21214751   5.362   0.114   9.436 -0.4599 -0.2661 -0.4929
  136SAPE  H12R14752   5.336   0.143   9.333 -0.7253  2.0742  0.1723
  136SAPE  C21314753   5.256   0.057   9.534 -0.6677  1.1088 -0.2239
  136SAPE  H13R14754   5.302   0.008   9.622 -0.0006  1.2626 -0.4852
  136SAPE  H13S14755   5.204  -0.027   9.483  1.3477 -0.2197 -0.2097
  136SAPE  C21414756   5.163   0.160   9.589 -0.8744  0.5021 -0.2965
  136SAPE  H14R14757   5.113   0.229   9.520 -1.9960  0.6835  0.6707
  136SAPE  C21514758   5.134   0.178   9.719  0.7423 -0.2431 -1.1437
  136SAPE  H15R14759   5.078   0.267   9.751  2.5572  2.1934 -4.1883
  136SAPE  C21614760   5.195   0.109   9.841 -0.5080  1.2259 -0.3958
  136SAPE  H16R14761   5.302   0.083   9.829 -0.6528 -0.7579  1.8099
  136SAPE  H16S14762   5.143   0.013   9.858  0.3380  0.6895 -0.7863
  136SAPE  C21714763   5.179   0.170   9.979  0.5409 -0.5201 -0.4130
  136SAPE  H17R14764   5.074   0.207   9.978  1.5134  2.6010 -0.0359
  136SAPE  H17S14765   5.243   0.261   9.980 -0.7884  0.4579 -0.0383
  136SAPE  C21814766   5.202   0.078  10.106 -0.3785 -0.2666 -0.5914
  136SAPE  H18R14767   5.211   0.128  10.204  0.2598 -1.7989  0.1715
  136SAPE  H18S14768   5.294   0.018  10.090 -0.3364 -0.4762  0.4125
  136SAPE  C21914769   5.092  -0.032  10.120 -0.0726 -0.4743 -0.0564
  136SAPE  H19R14770   5.101  -0.100  10.033 -1.2887  0.3538 -0.8576
  136SAPE  H19S14771   4.997   0.026  10.113  0.2974 -0.1086 -3.8957
  136SAPE  C22014772   5.121  -0.128  10.245  0.7358  0.8512 -0.0401
  136SAPE  H20R14773   5.079  -0.083  10.337 -2.2308 -0.5130 -0.6245
  136SAPE  H20S14774   5.230  -0.147  10.255  0.8924  1.7663  0.0990
  136SAPE  H20T14775   5.078  -0.228  10.226  0.2092  1.1223 -0.2833
  136SAPE   C3314776   6.011   0.705  10.407 -0.4965 -0.2243 -0.0201
  136SAPE   H3X14777   6.096   0.755  10.356  0.6278 -0.1916  1.7855
  136SAPE   H3Y14778   5.975   0.765  10.494  1.2594  1.2985 -0.2846
  136SAPE   C3414779   5.892   0.683  10.311 -0.1491  0.7784  0.3804
  136SAPE   H4X14780   5.847   0.783  10.290 -1.2176  0.6110  1.7251
  136SAPE   H4Y14781   5.818   0.621  10.365 -0.8788  1.9991  0.8372
  136SAPE   C3514782   5.935   0.613  10.183  0.3982 -0.0636 -0.0987
  136SAPE   H5X14783   5.839   0.590  10.131 -0.2396 -1.3822  1.5661
  136SAPE   H5Y14784   5.987   0.517  10.201  1.4916  0.2964 -1.2135
  136SAPE   C3614785   6.011   0.703  10.080 -0.0445 -0.4796  0.3506
  136SAPE   H6X14786   6.101   0.746  10.129 -0.9020  2.6620 -0.6545
  136SAPE   H6Y14787   5.943   0.784  10.046 -1.8464 -1.4339  1.5317
  136SAPE   C3714788   6.069   0.629   9.957  0.2616  0.0819 -0.0720
  136SAPE   H7X14789   6.097   0.526   9.987  0.6097  0.4884  1.0214
  136SAPE   H7Y14790   6.157   0.693   9.933  1.1765 -0.9263  0.5001
  136SAPE   C3814791   5.973   0.614   9.840  0.4797  0.5502  0.3599
  136SAPE   H8X14792   5.911   0.703   9.813 -0.8889 -0.4157  0.2199
  136SAPE   H8Y14793   5.899   0.534   9.858  2.6147 -2.0585 -1.6522
  136SAPE   C3914794   6.038   0.588   9.706  0.3951  0.3987  0.4740
  136SAPE   H9X14795   6.115   0.667   9.695  1.5256 -0.6591  0.5761
  136SAPE   H9Y14796   5.966   0.595   9.621 -0.2484 -0.1765  0.9617
  136SAPE  C31014797   6.111   0.456   9.695 -0.4133  0.4265  0.0609
  136SAPE  H10X14798   6.059   0.380   9.758  1.7082  0.0127  1.4046
  136SAPE  H10Y14799   6.216   0.472   9.728  0.1980 -3.3772  0.3850
  136SAPE  C31114800   6.114   0.397   9.557  0.2590 -1.0962 -0.0270
  136SAPE  H11X14801   6.188   0.315   9.568  1.2316 -0.4294 -1.2547
  136SAPE  H11Y14802   6.153   0.470   9.483  0.0756 -1.7337 -0.7676
  136SAPE  C31214803   5.980   0.343   9.504 -0.0550  0.2493 -0.3230
  136SAPE  H12X14804   5.898   0.416   9.521  0.8252  1.0646  0.5716
  136SAPE  H12Y14805   5.962   0.257   9.572 -0.2903  0.0610 -0.6197
  136SAPE  C31314806   5.976   0.305   9.357 -0.3876 -0.3937  0.3386
  136SAPE  H13X14807   6.078   0.284   9.320 -0.2071  1.9383 -0.6557
  136SAPE  H13Y14808   5.944   0.391   9.294 -2.5848 -1.4438 -0.0777
  136SAPE  C31414809   5.875   0.189   9.330  0.6191  0.0653 -0.2520
  136SAPE  H14X14810   5.768   0.216   9.344  0.0101 -1.7782 -1.1159
  136SAPE  H14Y14811   5.891   0.101   9.396  0.2942  1.5583  1.9599
  136SAPE  C31514812   5.867   0.149   9.185 -0.5182 -0.2953  0.6328
  136SAPE  H15X14813   5.836   0.231   9.117 -1.8563 -1.7391 -0.5688
  136SAPE  H15Y14814   5.781   0.080   9.171 -0.8175 -0.3842  2.6956
  136SAPE  C31614815   5.990   0.078   9.127 -0.5448  0.4500  0.7912
  136SAPE  H16X14816   6.015  -0.003   9.198 -2.8654 -1.2283 -0.1591
  136SAPE  H16Y14817   6.074   0.151   9.119 -1.4253  1.3035 -1.7557
  136SAPE  C31714818   5.964   0.044   8.977  0.1195 -0.0522  0.7957
  136SAPE  H17X14819   6.063   0.007   8.942 -0.8957 -1.2923 -0.9291
  136SAPE  H17Y14820   5.921   0.122   8.911 -0.5309 -1.6386 -0.7307
  136SAPE  C31814821   5.866  -0.076   8.970  0.4439 -0.4084  0.8637
  136SAPE  H18X14822   5.769  -0.063   9.024 -0.8277 -1.9110 -0.9182
  136SAPE  H18Y14823   5.919  -0.157   9.024 -0.2954 -1.5746 -0.1032
  136SAPE  H18Z14824   5.849  -0.115   8.867 -0.6209 -0.0862  0.9100
  137SAPE     N14825   3.403   4.167  11.292  0.1260 -0.5134  0.3027
  137SAPE   HN114826   3.501   4.132  11.294 -0.1712 -1.4455 -0.4390
  137SAPE   HN214827   3.387   4.228  11.375 -1.6779  1.1077 -1.1268
  137SAPE   HN314828   3.335   4.088  11.295 -1.8557  1.0244 -0.8027
  137SAPE   C1214829   3.376   4.229  11.152  0.0708 -0.1740  0.4390
  137SAPE  H12A14830   3.448   4.312  11.134  0.7559 -1.1145 -1.5462
  137SAPE  H12B14831   3.269   4.255  11.168  0.1050  0.0884  0.2442
  137SAPE   C1114832   3.399   4.118  11.049 -0.6789 -0.2309 -0.3002
  137SAPE  H11A14833   3.505   4.091  11.063 -0.9985 -0.4244  2.2610
  137SAPE  H11B14834   3.398   4.151  10.943  1.4210 -0.9938 -0.6011
  137SAPE     P14835   3.180   3.978  10.996  0.2091  0.1253 -0.1119
  137SAPE   O1314836   3.115   3.851  11.038 -0.3489  0.4289  0.0682
  137SAPE   O1414837   3.089   4.094  11.017 -0.0252 -0.0707 -0.3990
  137SAPE   O1214838   3.318   4.003  11.072  0.2219  0.0457  0.4114
  137SAPE   O1114839   3.214   3.969  10.842  0.2107 -0.2187 -0.0385
  137SAPE    C114840   3.312   3.876  10.798  0.1159 -0.0685 -1.0148
  137SAPE    HA14841   3.404   3.877  10.860  0.0198 -0.8762 -0.8544
  137SAPE    HB14842   3.280   3.774  10.827 -0.0464  0.5856  1.3839
  137SAPE    C214843   3.348   3.885  10.652  0.4087 -0.3866 -0.3365
  137SAPE    HS14844   3.432   3.819  10.622  0.5186 -0.9425  1.1049
  137SAPE   O2114845   3.383   4.021  10.604 -0.2247 -0.7268 -0.4504
  137SAPE   C2114846   3.494   4.064  10.655 -0.2111 -0.3700  0.3114
  137SAPE   O2214847   3.573   4.014  10.734 -0.5452 -0.0109 -0.1140
  137SAPE   C2214848   3.498   4.213  10.604 -0.0196  1.1248  0.1609
  137SAPE   H2R14849   3.391   4.237  10.620 -0.7653 -1.5950 -0.2697
  137SAPE   H2S14850   3.563   4.263  10.679 -1.4284  0.6884  1.7271
  137SAPE    C314851   3.223   3.831  10.560  0.3822  0.1491 -1.2139
  137SAPE    HX14852   3.133   3.872  10.611  2.1200  1.4619  1.0213
  137SAPE    HY14853   3.236   3.722  10.576  1.2445  0.2631 -1.0482
  137SAPE   O3114854   3.243   3.858  10.420  0.0733  0.1359 -0.2587
  137SAPE   C3114855   3.178   3.956  10.376 -0.9475 -0.1473  0.0622
  137SAPE   O3214856   3.085   4.014  10.435  0.2628  0.3703  0.6184
  137SAPE   C3214857   3.226   3.996  10.234 -0.3158  0.0363 -0.2410
  137SAPE   H2X14858   3.172   3.929  10.163  1.2821 -2.6102  0.8931
  137SAPE   H2Y14859   3.336   3.981  10.231 -0.2745 -1.0131  2.7313
  137SAPE   C2314860   3.539   4.238  10.458  0.1292 -0.4693  0.2860
  137SAPE   H3R14861   3.479   4.163  10.403 -0.0595 -0.0985 -0.0162
  137SAPE   H3S14862   3.646   4.216  10.437  0.6255  2.5833 -1.0717
  137SAPE   C2414863   3.510   4.380  10.414 -0.1117  0.1609 -0.9011
  137SAPE   H4R14864   3.404   4.405  10.432 -0.6130 -3.0234  1.3398
  137SAPE   H4S14865   3.537   4.400  10.308  1.3438  1.6238 -0.3059
  137SAPE   C2514866   3.583   4.478  10.502 -0.6523 -0.1071  0.6084
  137SAPE   H5R14867   3.547   4.472  10.605  0.8666 -1.4225  1.1085
  137SAPE   C2614868   3.683   4.565  10.460  0.1349  0.6091 -0.7425
  137SAPE   H6R14869   3.743   4.620  10.533  0.1496 -1.7427  1.1318
  137SAPE   C2714870   3.732   4.577  10.320  0.8451  0.7811 -0.0558
  137SAPE   H7R14871   3.647   4.618  10.261  0.3882  2.6270  1.7861
  137SAPE   H7S14872   3.753   4.473  10.286 -0.7071 -0.1676  1.7204
  137SAPE   C2814873   3.848   4.667  10.294 -0.0115 -0.0728 -0.6662
  137SAPE   H8R14874   3.911   4.688  10.382 -2.7790  0.1957  1.3769
  137SAPE   C2914875   3.875   4.739  10.184  0.2657 -0.6412 -0.0539
  137SAPE   H9R14876   3.954   4.815  10.182  0.0405 -0.3760 -3.0730
  137SAPE  C21014877   3.795   4.730  10.056 -1.6120  0.3076  0.8181
  137SAPE  H10R14878   3.758   4.831  10.030  0.2214  0.7984 -0.0571
  137SAPE  H10S14879   3.703   4.668  10.064 -0.7182 -1.0894  0.6770
  137SAPE  C21114880   3.880   4.663   9.947  0.3610  0.5019 -0.0940
  137SAPE  H11R14881   3.872   4.553   9.947 -2.0061  0.6055 -1.3130
  137SAPE  C21214882   3.969   4.722   9.855  0.1344  0.4427 -0.7333
  137SAPE  H12R14883   4.001   4.650   9.779 -1.4883  0.1125 -1.1436
  137SAPE  C21314884   3.999   4.870   9.827  0.1112 -0.1812  0.1396
  137SAPE  H13R14885   3.989   4.932   9.918  0.3637  2.3807 -1.4816
  137SAPE  H13S14886   3.920   4.908   9.758 -2.2034 -0.7372  2.3400
  137SAPE  C21414887   4.133   4.881   9.755  0.3582 -0.7186 -0.8293
  137SAPE  H14R14888   4.218   4.910   9.819  1.8330 -2.1629 -2.0340
  137SAPE  C21514889   4.154   4.847   9.622 -0.0225  0.1795 -0.5089
  137SAPE  H15R14890   4.255   4.860   9.579 -0.0060  1.0007 -0.2325
  137SAPE  C21614891   4.047   4.797   9.524 -0.3486 -0.1376  0.2682
  137SAPE  H16R14892   3.960   4.758   9.581 -0.7768 -2.4695 -1.8107
  137SAPE  H16S14893   4.085   4.713   9.461 -0.9118 -0.8964  0.9163
  137SAPE  C21714894   3.990   4.911   9.444 -0.3794 -0.6616 -0.7461
  137SAPE  H17R14895   3.980   4.993   9.518  0.0401 -0.7633 -0.5736
  137SAPE  H17S14896   3.887   4.890   9.408 -0.5885  2.6836 -2.5044
  137SAPE  C21814897   4.067   4.974   9.326  0.1432  0.0099  0.2368
  137SAPE  H18R14898   4.156   5.016   9.377  0.2987  0.3503 -0.3100
  137SAPE  H18S14899   4.003   5.051   9.278  1.1524  1.3735  1.0237
  137SAPE  C21914900   4.097   4.868   9.219 -0.5293 -0.1164  0.0038
  137SAPE  H19R14901   4.168   4.797   9.268  0.5232  0.3565 -0.8088
  137SAPE  H19S14902   4.150   4.918   9.136 -0.0745  0.1863  0.4734
  137SAPE  C22014903   3.986   4.771   9.163 -0.7381  0.5736  0.3145
  137SAPE  H20R14904   4.035   4.689   9.107 -0.3119  0.5908  0.6595
  137SAPE  H20S14905   3.911   4.828   9.104  1.1614  0.5798 -2.2498
  137SAPE  H20T14906   3.926   4.724   9.244 -1.5243 -1.7018 -1.4847
  137SAPE   C3314907   3.203   4.145  10.195  0.1817  0.3215 -0.0751
  137SAPE   H3X14908   3.247   4.213  10.271  0.2985 -1.7064  1.7713
  137SAPE   H3Y14909   3.097   4.175  10.216 -0.0111 -0.5528  0.2180
  137SAPE   C3414910   3.232   4.199  10.058 -1.0408  0.0783 -0.1617
  137SAPE   H4X14911   3.342   4.200  10.042 -1.3023  0.4075 -2.3021
  137SAPE   H4Y14912   3.185   4.297  10.035 -0.4863 -0.0501 -2.0688
  137SAPE   C3514913   3.158   4.125   9.952  0.1424  0.4989 -0.4203
  137SAPE   H5X14914   3.051   4.151   9.966  0.0895 -0.3636  0.9535
  137SAPE   H5Y14915   3.181   4.017   9.952 -1.7660  0.0631 -0.3996
  137SAPE   C3614916   3.183   4.182   9.813  0.6108 -0.2764  0.0802
  137SAPE   H6X14917   3.290   4.169   9.786  0.4200  0.4232 -1.0741
  137SAPE   H6Y14918   3.164   4.291   9.819 -0.6895 -0.4987  0.4536
  137SAPE   C3714919   3.091   4.127   9.698 -0.2708 -1.3387 -0.4935
  137SAPE   H7X14920   2.989   4.163   9.724  0.2784  0.0829 -0.2203
  137SAPE   H7Y14921   3.096   4.016   9.703 -2.3149 -1.4587 -0.1029
  137SAPE   C3814922   3.129   4.173   9.556  0.2630 -0.8656  0.6131
  137SAPE   H8X14923   3.114   4.283   9.551  1.6026 -0.6634  0.6473
  137SAPE   H8Y14924   3.051   4.130   9.490  0.0693  0.4696 -0.0638
  137SAPE   C3914925   3.279   4.134   9.525 -0.0063 -0.2829  0.4286
  137SAPE   H9X14926   3.309   4.045   9.585 -0.8042 -0.3323  0.7620
  137SAPE   H9Y14927   3.338   4.215   9.573 -1.9211  1.1464  0.4659
  137SAPE  C31014928   3.305   4.108   9.379 -0.5320  0.1830 -0.0815
  137SAPE  H10X14929   3.272   4.011   9.336  0.3714 -0.0042 -0.3959
  137SAPE  H10Y14930   3.416   4.104   9.374 -0.5105  0.1648  0.3467
  137SAPE  C31114931   3.248   4.214   9.285 -0.2096  0.3005  0.2061
  137SAPE  H11X14932   3.264   4.321   9.312  0.6375 -0.1114  1.4184
  137SAPE  H11Y14933   3.138   4.206   9.269  0.1562 -1.4522 -1.9194
  137SAPE  C31214934   3.311   4.184   9.152  0.1931  0.4055  0.7548
  137SAPE  H12X14935   3.292   4.081   9.116  0.7382  0.4432  0.3516
  137SAPE  H12Y14936   3.421   4.194   9.162  0.4784 -1.2815 -0.3321
  137SAPE  C31314937   3.272   4.283   9.045 -0.2093 -0.8622  0.1239
  137SAPE  H13X14938   3.313   4.385   9.063 -3.4415  1.2984 -3.4153
  137SAPE  H13Y14939   3.161   4.288   9.049 -0.1955  0.6281 -0.8145
  137SAPE  C31414940   3.319   4.234   8.909 -0.1936  0.5843  0.0408
  137SAPE  H14X14941   3.280   4.132   8.890  1.0982  0.2672 -1.1030
  137SAPE  H14Y14942   3.429   4.218   8.900  0.0283  1.4942  0.9414
  137SAPE  C31514943   3.284   4.325   8.797  0.2880 -1.0157  0.6926
  137SAPE  H15X14944   3.357   4.304   8.717  1.6425  1.0312  1.3191
  137SAPE  H15Y14945   3.290   4.430   8.832 -1.2539 -1.1846  1.5826
  137SAPE  C31614946   3.142   4.292   8.743  0.5711 -1.0763 -0.4064
  137SAPE  H16X14947   3.076   4.336   8.820  2.7666  1.2685  0.2895
  137SAPE  H16Y14948   3.130   4.182   8.731 -0.7401 -1.1608  1.3621
  137SAPE  C31714949   3.105   4.363   8.608 -0.5994 -0.0662 -0.3922
  137SAPE  H17X14950   2.996   4.354   8.588 -0.8781 -0.0736  0.9887
  137SAPE  H17Y14951   3.165   4.313   8.529 -1.1815 -2.3918  0.5316
  137SAPE  C31814952   3.150   4.512   8.601  0.1434  0.1473 -0.3710
  137SAPE  H18X14953   3.106   4.569   8.685  0.3444 -0.5366  0.2017
  137SAPE  H18Y14954   3.128   4.557   8.502  1.4916 -0.3989 -0.9563
  137SAPE  H18Z14955   3.261   4.514   8.613  0.0736 -1.1399  0.7404
  138SAPE     N14956   0.596   5.449  10.759 -0.6247 -0.1106 -0.2003
  138SAPE   HN114957   0.538   5.408  10.835  1.0951 -2.0586  0.1309
  138SAPE   HN214958   0.628   5.541  10.796 -1.6637 -1.0000  3.2687
  138SAPE   HN314959   0.525   5.455  10.683 -1.7825  0.1245  0.8635
  138SAPE   C1214960   0.709   5.353  10.740 -0.8243 -0.6895 -0.0866
  138SAPE  H12A14961   0.751   5.333  10.841  0.0343  0.0273 -0.2864
  138SAPE  H12B14962   0.785   5.402  10.675 -1.1530 -1.4055 -1.0419
  138SAPE   C1114963   0.654   5.223  10.666 -0.1589  0.2186  0.3763
  138SAPE  H11A14964   0.739   5.152  10.658  0.4375  0.7773  1.4841
  138SAPE  H11B14965   0.624   5.241  10.560 -0.8725  0.0058  0.5384
  138SAPE     P14966   0.513   5.024  10.767 -0.3274  0.3741  0.0643
  138SAPE   O1314967   0.626   4.956  10.832 -0.3310  0.6470  0.3376
  138SAPE   O1414968   0.387   5.020  10.848 -0.1764 -0.3271  0.5028
  138SAPE   O1214969   0.547   5.172  10.731  0.3371 -0.3524  0.5569
  138SAPE   O1114970   0.490   4.955  10.630  0.1509  0.2147  0.0794
  138SAPE    C114971   0.377   4.975  10.551  0.4314  0.1129 -0.3373
  138SAPE    HA14972   0.363   4.895  10.475 -0.4950  0.7790 -0.9033
  138SAPE    HB14973   0.274   4.977  10.593 -0.3725  0.0235 -2.1674
  138SAPE    C214974   0.386   5.097  10.449  0.0614 -0.2307 -0.2632
  138SAPE    HS14975   0.415   5.188  10.504 -0.6045 -0.9458  1.3137
  138SAPE   O2114976   0.263   5.097  10.380  0.5838  0.1446 -0.2531
  138SAPE   C2114977   0.168   5.173  10.431  0.5352 -0.0954 -0.1636
  138SAPE   O2214978   0.178   5.244  10.526  0.7903 -0.0564  0.5497
  138SAPE   C2214979   0.044   5.153  10.349 -0.3649  0.2065 -0.7165
  138SAPE   H2R14980   0.069   5.185  10.245 -1.5848 -2.8701 -2.1002
  138SAPE   H2S14981   0.020   5.045  10.356 -2.0186  0.6583  3.3363
  138SAPE    C314982   0.495   5.058  10.352 -0.2523  0.5534  0.7571
  138SAPE    HX14983   0.471   4.960  10.303  1.2845  0.3648  0.3231
  138SAPE    HY14984   0.589   5.046  10.410 -0.4806  1.0159  1.2169
  138SAPE   O3114985   0.490   5.147  10.237 -0.0979  0.2784 -0.1513
  138SAPE   C3114986   0.586   5.248  10.233  0.2542  0.1051  0.8581
  138SAPE   O3214987   0.660   5.263  10.323 -0.3888  0.2590 -0.0362
  138SAPE   C3214988   0.587   5.332  10.111  0.4030  0.0073  0.1395
  138SAPE   H2X14989   0.525   5.423  10.126  0.0767 -0.3149  0.7811
  138SAPE   H2Y14990   0.551   5.272  10.025 -1.0957  1.1289 -0.0498
  138SAPE   C2314991  -0.069   5.244  10.393  0.0527 -0.3626  0.4123
  138SAPE   H3R14992  -0.035   5.349  10.384 -0.8167 -0.0551  0.6615
  138SAPE   H3S14993  -0.097   5.216  10.496 -0.7144  0.3051  0.3930
  138SAPE   C2414994  -0.199   5.229  10.302  0.5946  0.0483  0.3236
  138SAPE   H4R14995  -0.175   5.228  10.194 -0.5295 -1.2210  0.0659
  138SAPE   H4S14996  -0.264   5.317  10.319 -1.9227 -1.7947  0.7950
  138SAPE   C2514997  -0.279   5.105  10.335  0.1122 -0.3707 -0.3235
  138SAPE   H5R14998  -0.268   5.064  10.437  0.3582  1.5916  0.4709
  138SAPE   C2614999  -0.378   5.058  10.264 -0.0521 -0.9921  0.4129
  138SAPE   H6R15000  -0.434   4.971  10.302 -0.2305 -3.0217 -3.8748
  138SAPE   C2715001  -0.424   5.102  10.126 -0.8262  0.7453 -0.0690
  138SAPE   H7R15002  -0.345   5.168  10.085  1.7046  0.5345  3.9516
  138SAPE   H7S15003  -0.504   5.180  10.127  0.8319  2.5499  1.8626
  138SAPE   C2815004  -0.450   5.000  10.023  0.8723  0.1894  0.2551
  138SAPE   H8R15005  -0.477   4.895  10.042  2.4298  0.0051  1.5728
  138SAPE   C2915006  -0.425   5.010   9.890  0.1669 -0.0617 -0.4514
  138SAPE   H9R15007  -0.452   4.927   9.824  1.2128  0.1617 -1.1675
  138SAPE  C21015008  -0.358   5.134   9.829 -0.0006  0.7576  0.1204
  138SAPE  H10R15009  -0.249   5.115   9.831  0.3095  2.0945 -1.7707
  138SAPE  H10S15010  -0.382   5.231   9.880 -0.7844  0.3728  0.5073
  138SAPE  C21115011  -0.407   5.138   9.686  0.6521  0.0971  0.2959
  138SAPE  H11R15012  -0.506   5.184   9.675  0.7284  0.2533  0.2705
  138SAPE  C21215013  -0.346   5.092   9.578  1.0484 -0.0158 -0.3006
  138SAPE  H12R15014  -0.394   5.108   9.480  0.9761  1.0993 -0.0986
  138SAPE  C21315015  -0.209   5.031   9.581  0.7745  0.6367 -0.4868
  138SAPE  H13R15016  -0.146   5.098   9.643  1.5847  0.2564 -0.8856
  138SAPE  H13S15017  -0.180   5.036   9.474 -0.6493 -1.1569 -1.0046
  138SAPE  C21415018  -0.199   4.883   9.625  0.6330  0.9488  0.8006
  138SAPE  H14R15019  -0.235   4.869   9.728 -0.0686  1.2105  0.5990
  138SAPE  C21515020  -0.139   4.776   9.557 -0.6828 -1.0699  0.3595
  138SAPE  H15R15021  -0.144   4.678   9.606 -2.2858 -2.4125 -2.2615
  138SAPE  C21615022  -0.066   4.789   9.425 -0.2429 -0.4454  0.6217
  138SAPE  H16R15023   0.034   4.759   9.462 -1.3554  0.7351  5.2472
  138SAPE  H16S15024  -0.069   4.897   9.397 -1.1797 -0.4335  0.7579
  138SAPE  C21715025  -0.113   4.694   9.304 -1.3631 -0.1964 -1.4307
  138SAPE  H17R15026  -0.218   4.720   9.279 -2.0107 -0.1806  1.0202
  138SAPE  H17S15027  -0.096   4.592   9.343  1.4330  0.6828 -0.1352
  138SAPE  C21815028  -0.017   4.700   9.184 -0.6849  0.5455 -0.0650
  138SAPE  H18R15029  -0.010   4.597   9.144  0.4217  0.1548  1.0483
  138SAPE  H18S15030   0.089   4.720   9.213 -0.1890  0.7006 -1.8877
  138SAPE  C21915031  -0.056   4.801   9.070  0.5146  0.0119  0.3346
  138SAPE  H19R15032  -0.034   4.906   9.097 -1.7391  0.9111 -1.0327
  138SAPE  H19S15033  -0.166   4.793   9.052  0.9194 -3.0209 -1.2974
  138SAPE  C22015034   0.024   4.755   8.947  0.6163  0.0949 -0.0579
  138SAPE  H20R15035  -0.029   4.666   8.906 -0.8208 -0.4575  2.7277
  138SAPE  H20S15036   0.125   4.717   8.974 -0.4711 -3.7223 -0.7128
  138SAPE  H20T15037   0.043   4.833   8.871 -3.3937  1.6717  0.3269
  138SAPE   C3315038   0.729   5.392  10.080  0.0204  0.0851 -0.6830
  138SAPE   H3X15039   0.806   5.312  10.080  1.6290  1.5695 -0.8647
  138SAPE   H3Y15040   0.755   5.469  10.155 -3.0836 -1.0439  1.8135
  138SAPE   C3415041   0.734   5.448   9.940 -0.1452 -0.1484  0.2972
  138SAPE   H4X15042   0.834   5.481   9.905 -1.1237  3.1290  0.2195
  138SAPE   H4Y15043   0.670   5.539   9.940  1.0728  0.7505  1.1999
  138SAPE   C3515044   0.674   5.362   9.825  0.5906 -0.5005 -0.2063
  138SAPE   H5X15045   0.563   5.368   9.833  0.6928 -0.5060  1.8516
  138SAPE   H5Y15046   0.697   5.257   9.853  0.4684 -0.9713 -1.8232
  138SAPE   C3615047   0.712   5.402   9.682  0.6960  0.3730 -0.5445
  138SAPE   H6X15048   0.823   5.403   9.685  0.7308 -1.2089  2.8304
  138SAPE   H6Y15049   0.676   5.501   9.646 -0.0570  0.3588  0.1359
  138SAPE   C3715050   0.656   5.296   9.577 -0.9056 -0.0473  0.1077
  138SAPE   H7X15051   0.547   5.316   9.569 -0.9061  0.4372  1.1832
  138SAPE   H7Y15052   0.672   5.188   9.596 -0.2094  0.1848  0.9233
  138SAPE   C3815053   0.716   5.333   9.442 -0.7155  0.0876 -0.2450
  138SAPE   H8X15054   0.827   5.322   9.439 -0.4612  1.9855  0.7403
  138SAPE   H8Y15055   0.707   5.443   9.432  1.4207  0.2786 -0.7139
  138SAPE   C3915056   0.651   5.260   9.327  0.2305  0.0380  0.5371
  138SAPE   H9X15057   0.542   5.277   9.336 -0.0157  0.2674 -2.2055
  138SAPE   H9Y15058   0.653   5.150   9.348 -0.5793 -0.3595 -1.2450
  138SAPE  C31015059   0.694   5.304   9.193 -0.0043  0.5357  0.6342
  138SAPE  H10X15060   0.645   5.232   9.123  1.4754  0.4581 -0.3761
  138SAPE  H10Y15061   0.804   5.302   9.179  0.0342  0.4381  0.9422
  138SAPE  C31115062   0.654   5.442   9.160  0.4584  0.3518 -0.1157
  138SAPE  H11X15063   0.721   5.504   9.223 -0.7333  0.9051  0.6561
  138SAPE  H11Y15064   0.549   5.449   9.197  1.1279  0.6022  1.8426
  138SAPE  C31215065   0.658   5.478   9.013 -0.8981  0.6005 -0.2998
  138SAPE  H12X15066   0.571   5.429   8.965 -2.5212  1.3372  1.7284
  138SAPE  H12Y15067   0.749   5.438   8.963 -1.8586  1.2241 -2.6817
  138SAPE  C31315068   0.640   5.627   8.981  0.1281 -0.2683 -0.2714
  138SAPE  H13X15069   0.630   5.639   8.871 -0.7789  1.9855 -0.0063
  138SAPE  H13Y15070   0.714   5.693   9.031 -0.8360 -0.2014  1.1190
  138SAPE  C31415071   0.494   5.676   9.027 -0.1715  0.8709 -0.7409
  138SAPE  H14X15072   0.493   5.786   9.010  0.0484  1.2926  1.7124
  138SAPE  H14Y15073   0.489   5.661   9.137  1.4095 -0.1443 -0.7746
  138SAPE  C31515074   0.382   5.616   8.949 -0.5734 -0.2722  0.4697
  138SAPE  H15X15075   0.426   5.587   8.851 -0.3487 -0.3473  0.5926
  138SAPE  H15Y15076   0.309   5.699   8.936  0.6385  0.5677 -1.5073
  138SAPE  C31615077   0.309   5.501   9.027 -0.3807 -0.2710 -0.2011
  138SAPE  H16X15078   0.264   5.549   9.116 -2.7425 -0.8065 -1.0126
  138SAPE  H16Y15079   0.382   5.426   9.064  0.3356  0.2679 -0.5051
  138SAPE  C31715080   0.198   5.430   8.962 -0.3741 -0.2609 -0.4840
  138SAPE  H17X15081   0.232   5.397   8.861  1.0426  0.6022 -0.3198
  138SAPE  H17Y15082   0.118   5.506   8.951  0.0559 -0.0417 -2.6143
  138SAPE  C31815083   0.143   5.327   9.054  0.5201  0.1365  0.0719
  138SAPE  H18X15084   0.062   5.272   9.001  0.0927  1.1224 -0.3175
  138SAPE  H18Y15085   0.096   5.371   9.145  0.7457  0.3590  0.0797
  138SAPE  H18Z15086   0.221   5.253   9.082 -0.2411 -0.5843  0.3504
  139SAPE     N15087   1.347   2.139  10.643 -0.1293 -0.1864 -0.0554
  139SAPE   HN115088   1.362   2.042  10.679  2.0495 -0.5270 -1.6091
  139SAPE   HN215089   1.435   2.195  10.646 -1.0297  1.3188 -0.7499
  139SAPE   HN315090   1.280   2.194  10.700  0.3861  0.0035  0.3817
  139SAPE   C1215091   1.305   2.119  10.502  0.3087  0.2651  0.0186
  139SAPE  H12A15092   1.377   2.041  10.467 -1.4951 -3.0524  3.0227
  139SAPE  H12B15093   1.308   2.213  10.443  1.8634 -0.5502 -1.2759
  139SAPE   C1115094   1.170   2.048  10.509 -0.3528 -0.3158  0.1048
  139SAPE  H11A15095   1.166   1.965  10.583 -2.0929  1.1430  1.7920
  139SAPE  H11B15096   1.164   2.001  10.409 -1.2894 -2.2555  1.0264
  139SAPE     P15097   0.916   2.090  10.538 -0.1440  0.1985  0.3016
  139SAPE   O1315098   0.921   1.951  10.589  0.3769  0.4521  0.0170
  139SAPE   O1415099   0.831   2.183  10.613 -0.1443  0.3913  0.5327
  139SAPE   O1215100   1.065   2.145  10.543 -0.0210  1.0674  0.2708
  139SAPE   O1115101   0.890   2.093  10.381  0.0963  0.5827  0.1833
  139SAPE    C115102   0.937   2.199  10.296  0.0279 -0.1648 -0.2363
  139SAPE    HA15103   0.991   2.275  10.357  1.4810 -1.1132 -0.2896
  139SAPE    HB15104   0.992   2.163  10.206 -0.0635 -2.0941  0.4360
  139SAPE    C215105   0.817   2.296  10.264  0.4949  0.0796 -0.4014
  139SAPE    HS15106   0.767   2.316  10.361 -0.1575  1.1788 -0.9509
  139SAPE   O2115107   0.729   2.226  10.180  0.1390 -0.2723  0.3209
  139SAPE   C2115108   0.609   2.258  10.185 -0.4116 -0.1598 -0.9979
  139SAPE   O2215109   0.555   2.337  10.267  0.0689  0.6136 -0.2542
  139SAPE   C2215110   0.538   2.172  10.088  0.0084  1.0521  0.9856
  139SAPE   H2R15111   0.586   2.187   9.988 -0.3701  0.1127  0.6573
  139SAPE   H2S15112   0.555   2.066  10.115  1.6391  1.3136  1.0870
  139SAPE    C315113   0.853   2.431  10.199  0.0977 -0.3449 -0.2819
  139SAPE    HX15114   0.896   2.491  10.282 -1.5333 -0.2740  0.5499
  139SAPE    HY15115   0.759   2.482  10.169  0.6640 -0.3513 -2.2073
  139SAPE   O3115116   0.946   2.404  10.095  0.3572 -0.0660 -0.6650
  139SAPE   C3115117   1.021   2.513  10.066  0.0269  0.2911 -0.5803
  139SAPE   O3215118   0.996   2.625  10.112 -0.1896 -0.2831  0.1796
  139SAPE   C3215119   1.139   2.472   9.985 -0.3851 -0.4192  0.4086
  139SAPE   H2X15120   1.154   2.363   9.967  2.0905 -0.0199 -0.2569
  139SAPE   H2Y15121   1.222   2.502  10.052 -0.7050 -0.0621  0.6441
  139SAPE   C2315122   0.389   2.208  10.080  0.2330  0.6216 -0.1140
  139SAPE   H3R15123   0.385   2.313  10.043  1.2096  0.3719 -0.9836
  139SAPE   H3S15124   0.348   2.214  10.183 -2.2037 -2.2101 -0.8018
  139SAPE   C2415125   0.299   2.120   9.987  0.1745 -0.6456  0.3208
  139SAPE   H4R15126   0.195   2.159   9.994  0.7755  0.9510  0.8328
  139SAPE   H4S15127   0.294   2.023  10.040 -2.1093 -0.2602  0.9178
  139SAPE   C2515128   0.349   2.108   9.850 -0.4482 -0.6654 -0.4234
  139SAPE   H5R15129   0.448   2.060   9.843 -0.3187 -0.6293  0.8990
  139SAPE   C2615130   0.286   2.134   9.734  0.2609  0.4467  0.0633
  139SAPE   H6R15131   0.333   2.104   9.640  0.3268  2.0332 -0.4381
  139SAPE   C2715132   0.149   2.193   9.712  0.2287 -0.2282  0.5116
  139SAPE   H7R15133   0.106   2.253   9.795  0.6009  3.6829 -1.8683
  139SAPE   H7S15134   0.077   2.115   9.678 -0.4519  1.0713 -1.2054
  139SAPE   C2815135   0.154   2.309   9.606  0.2871  0.1593  0.1226
  139SAPE   H8R15136   0.185   2.408   9.643  0.3361  1.1273 -2.3079
  139SAPE   C2915137   0.115   2.306   9.481  0.3441  0.0270 -0.0831
  139SAPE   H9R15138   0.137   2.398   9.424  0.2095 -1.7530 -3.2270
  139SAPE  C21015139   0.059   2.184   9.407  0.1139  0.1110  0.4049
  139SAPE  H10R15140  -0.050   2.195   9.421 -0.4757 -2.5206 -1.3753
  139SAPE  H10S15141   0.090   2.093   9.464 -0.8897 -2.1643 -2.4141
  139SAPE  C21115142   0.081   2.156   9.266  0.5553  0.7543 -0.3633
  139SAPE  H11R15143  -0.011   2.137   9.209 -0.5690  3.0816  0.5350
  139SAPE  C21215144   0.198   2.143   9.206 -0.2038  0.0700  0.4108
  139SAPE  H12R15145   0.193   2.113   9.100  1.9209 -4.9826  1.4235
  139SAPE  C21315146   0.333   2.148   9.277  0.0806  0.0434  0.7137
  139SAPE  H13R15147   0.325   2.213   9.367 -1.2944 -0.8636  1.2882
  139SAPE  H13S15148   0.405   2.200   9.211  2.5443 -0.3468  2.9113
  139SAPE  C21415149   0.385   2.024   9.330 -0.2793  0.5376  0.0404
  139SAPE  H14R15150   0.325   1.994   9.417 -0.5011 -0.2042 -0.3561
  139SAPE  C21515151   0.482   1.941   9.278 -0.2115  0.4698  0.2310
  139SAPE  H15R15152   0.511   1.841   9.315 -3.4461 -1.9176 -2.8939
  139SAPE  C21615153   0.551   1.968   9.148 -0.2314 -0.5318  0.2266
  139SAPE  H16R15154   0.654   1.929   9.139 -0.7210 -2.4113  1.8766
  139SAPE  H16S15155   0.566   2.078   9.145 -0.6233 -0.4984 -1.8701
  139SAPE  C21715156   0.464   1.929   9.032 -0.3743  0.5530 -0.8297
  139SAPE  H17R15157   0.358   1.952   9.057 -0.2276 -1.7371  2.5597
  139SAPE  H17S15158   0.474   1.819   9.022 -1.5457  0.2210  0.9956
  139SAPE  C21815159   0.508   2.000   8.904  0.8246 -0.2289 -0.5814
  139SAPE  H18R15160   0.528   2.105   8.936 -1.7012 -0.5376  2.4465
  139SAPE  H18S15161   0.421   1.999   8.835 -0.0264  0.7445  0.4422
  139SAPE  C21915162   0.632   1.925   8.851  0.2733 -1.3239  0.4646
  139SAPE  H19R15163   0.606   1.817   8.850  0.1081 -1.2793 -0.6034
  139SAPE  H19S15164   0.719   1.934   8.919  0.7148 -1.2679 -0.0977
  139SAPE  C22015165   0.661   1.979   8.707  0.0584  0.9956 -0.2979
  139SAPE  H20R15166   0.730   1.904   8.663 -1.1616  0.0849 -0.7223
  139SAPE  H20S15167   0.698   2.083   8.716 -0.1841  1.0024  0.7164
  139SAPE  H20T15168   0.570   1.969   8.644 -2.0901  0.4335  2.6770
  139SAPE   C3315169   1.143   2.540   9.844  0.1075 -0.2790 -0.5074
  139SAPE   H3X15170   1.234   2.506   9.789  0.6566  0.2033  0.0865
  139SAPE   H3Y15171   1.150   2.649   9.860 -0.0528 -0.5431  1.5525
  139SAPE   C3415172   1.026   2.496   9.752  0.3012  0.6760 -0.2808
  139SAPE   H4X15173   0.935   2.481   9.815  0.6331 -1.0516 -0.1721
  139SAPE   H4Y15174   1.046   2.398   9.704 -0.6988 -0.9462  2.3410
  139SAPE   C3515175   0.997   2.603   9.642  0.6121  0.3021 -0.3763
  139SAPE   H5X15176   0.996   2.706   9.682  2.2108  0.3599 -0.4449
  139SAPE   H5Y15177   0.894   2.579   9.608  0.5655 -0.0571  0.0153
  139SAPE   C3615178   1.103   2.604   9.535 -0.2597  0.4225  1.5934
  139SAPE   H6X15179   1.101   2.504   9.486 -1.2140  0.6280  1.1810
  139SAPE   H6Y15180   1.205   2.620   9.574  1.1254  0.5516 -1.6976
  139SAPE   C3715181   1.073   2.698   9.415  0.0802  0.4935 -0.6733
  139SAPE   H7X15182   1.169   2.698   9.360  0.6632  1.7265  0.2935
  139SAPE   H7Y15183   1.054   2.798   9.460 -1.8314 -1.0523  2.2634
  139SAPE   C3815184   0.948   2.656   9.334  0.0162  0.7466  0.2395
  139SAPE   H8X15185   0.861   2.649   9.403  0.0944  1.2508  0.3918
  139SAPE   H8Y15186   0.957   2.555   9.288 -0.3307  0.6167  0.4490
  139SAPE   C3915187   0.906   2.753   9.224 -0.4302 -1.0487  0.0420
  139SAPE   H9X15188   0.898   2.854   9.267 -0.1414 -1.3061  0.7054
  139SAPE   H9Y15189   0.812   2.718   9.176  0.7522 -1.5166 -2.0864
  139SAPE  C31015190   1.004   2.755   9.103 -0.4423  0.1760  0.0542
  139SAPE  H10X15191   0.981   2.658   9.054  0.8980 -0.7836  1.2825
  139SAPE  H10Y15192   1.106   2.757   9.145 -0.6792  1.0105  0.6134
  139SAPE  C31115193   0.976   2.869   9.000 -0.2076 -0.7201  0.4864
  139SAPE  H11X15194   0.986   2.971   9.044  2.1231  0.1821 -1.8429
  139SAPE  H11Y15195   0.874   2.846   8.962 -0.9910  1.5656  1.0656
  139SAPE  C31215196   1.073   2.871   8.874  0.3287  0.8049 -0.0133
  139SAPE  H12X15197   1.056   2.774   8.823  0.7164  0.8112 -0.1531
  139SAPE  H12Y15198   1.173   2.857   8.921 -0.4480  4.6808  3.3809
  139SAPE  C31315199   1.057   2.983   8.774 -0.0744 -0.6325  0.3201
  139SAPE  H13X15200   1.122   2.970   8.685  0.7884 -0.6500  0.9449
  139SAPE  H13Y15201   1.095   3.069   8.834 -0.1168 -0.5810  0.2739
  139SAPE  C31415202   0.913   3.010   8.721 -0.3313  0.3568  0.5875
  139SAPE  H14X15203   0.845   3.011   8.809  0.6259 -4.5299  1.6762
  139SAPE  H14Y15204   0.894   2.920   8.658  0.5188  0.7943 -0.3219
  139SAPE  C31515205   0.907   3.140   8.647  0.3845 -0.6705 -0.8185
  139SAPE  H15X15206   0.997   3.172   8.590  1.0776 -1.0074  0.0570
  139SAPE  H15Y15207   0.900   3.219   8.726 -2.0894  0.2501 -1.8407
  139SAPE  C31615208   0.782   3.157   8.560  0.0511 -0.4572  0.4842
  139SAPE  H16X15209   0.692   3.144   8.624 -0.2430  1.2431  0.4686
  139SAPE  H16Y15210   0.778   3.266   8.538  2.6267 -0.4021  0.0042
  139SAPE  C31715211   0.760   3.067   8.440  0.4912 -0.0913 -0.5827
  139SAPE  H17X15212   0.674   3.116   8.390  0.3579 -0.1989 -0.4573
  139SAPE  H17Y15213   0.726   2.968   8.476 -1.5893 -0.2550 -2.7457
  139SAPE  C31815214   0.881   3.055   8.347 -0.5427 -0.1390 -0.0229
  139SAPE  H18X15215   0.851   2.991   8.262 -3.2006  0.1061  0.6486
  139SAPE  H18Y15216   0.969   3.002   8.390  1.4521  2.8170 -0.1520
  139SAPE  H18Z15217   0.921   3.149   8.303 -0.0261 -0.7071 -0.7782
  140SAPE     N15218   3.204   0.362  10.913 -0.3811 -0.1165  0.2957
  140SAPE   HN115219   3.287   0.352  10.851 -0.4774 -0.7244  0.2587
  140SAPE   HN215220   3.122   0.351  10.850  0.7090 -2.5972 -0.8511
  140SAPE   HN315221   3.214   0.456  10.956 -0.1431  0.2147 -0.4725
  140SAPE   C1215222   3.187   0.256  11.020 -0.4118  0.4873 -0.1763
  140SAPE  H12A15223   3.270   0.277  11.091 -0.3815 -2.8475  0.9576
  140SAPE  H12B15224   3.197   0.154  10.978 -0.7605  0.9127 -1.3391
  140SAPE   C1115225   3.041   0.274  11.070  0.3902  0.7634 -0.3539
  140SAPE  H11A15226   3.039   0.374  11.119  0.3398 -0.2290  1.7986
  140SAPE  H11B15227   3.018   0.203  11.152  1.9721  4.3270  3.5839
  140SAPE     P15228   2.843   0.173  10.933  0.0888  0.2613 -0.3331
  140SAPE   O1315229   2.796   0.119  11.060 -0.1016 -0.5360 -0.0468
  140SAPE   O1415230   2.739   0.242  10.855  0.5174 -0.4993  0.2236
  140SAPE   O1215231   2.957   0.277  10.954 -0.2560 -0.9561 -0.2260
  140SAPE   O1115232   2.918   0.061  10.855 -0.1002  0.1065  0.0530
  140SAPE    C115233   2.996   0.092  10.741 -0.4556 -0.7395  0.0896
  140SAPE    HA15234   3.076   0.166  10.764 -1.8019  0.7329  0.2188
  140SAPE    HB15235   3.036  -0.011  10.726 -0.8982 -0.8444 -0.3654
  140SAPE    C215236   2.919   0.134  10.617 -0.3064 -0.5636  0.1829
  140SAPE    HS15237   2.874   0.230  10.650  0.6302 -0.9504  2.7783
  140SAPE   O2115238   2.810   0.051  10.583  0.4075  0.3884 -0.5171
  140SAPE   C2115239   2.826  -0.071  10.538 -0.4657 -0.4491  0.1172
  140SAPE   O2215240   2.923  -0.142  10.541 -0.1915  0.2726 -1.1436
  140SAPE   C2215241   2.693  -0.115  10.485  0.4573  0.5958 -0.2570
  140SAPE   H2R15242   2.651  -0.194  10.551 -2.1278 -1.3739 -3.9390
  140SAPE   H2S15243   2.616  -0.035  10.480 -0.1611  0.1310  1.1667
  140SAPE    C315244   3.015   0.161  10.497  0.9247  0.2882  0.9037
  140SAPE    HX15245   3.079   0.071  10.482  0.3723  0.1358 -0.6954
  140SAPE    HY15246   3.091   0.240  10.517  0.4116  0.8238  0.7813
  140SAPE   O3115247   2.943   0.199  10.374  0.0242  0.4001  0.3468
  140SAPE   C3115248   2.902   0.323  10.367 -0.0175  0.1785  0.6511
  140SAPE   O3215249   2.944   0.418  10.429 -0.2869 -0.4814  0.0748
  140SAPE   C3215250   2.792   0.344  10.256  0.1637  0.2529  0.5321
  140SAPE   H2X15251   2.831   0.426  10.191  0.2409 -1.3075 -1.4618
  140SAPE   H2Y15252   2.695   0.373  10.300  0.3354  1.9912 -0.1420
  140SAPE   C2315253   2.710  -0.186  10.352 -0.5137  0.1514 -0.1851
  140SAPE   H3R15254   2.750  -0.289  10.365  0.0282  0.1700 -1.5758
  140SAPE   H3S15255   2.781  -0.142  10.278 -1.1300  0.4384 -0.6101
  140SAPE   C2415256   2.576  -0.206  10.282 -0.4274 -0.4012  0.8923
  140SAPE   H4R15257   2.494  -0.258  10.335 -1.3747 -0.3114 -0.4285
  140SAPE   H4S15258   2.603  -0.282  10.205 -0.4559  1.2458 -0.8166
  140SAPE   C2515259   2.524  -0.081  10.214 -0.2300  0.0090  0.3423
  140SAPE   H5R15260   2.472  -0.014  10.284 -4.4037 -2.3301 -0.2078
  140SAPE   C2615261   2.533  -0.059  10.084  0.5757  0.3522 -0.1207
  140SAPE   H6R15262   2.478   0.029  10.046 -2.5562 -0.4932  2.0294
  140SAPE   C2715263   2.580  -0.148   9.972  0.1015 -0.8363  0.4560
  140SAPE   H7R15264   2.660  -0.222   9.994  0.6656 -0.5558 -0.5708
  140SAPE   H7S15265   2.635  -0.077   9.906 -1.3434  1.7896  1.8880
  140SAPE   C2815266   2.467  -0.218   9.905  0.2367 -0.1947 -0.5374
  140SAPE   H8R15267   2.417  -0.297   9.964  0.4359 -0.2725 -0.4708
  140SAPE   C2915268   2.430  -0.203   9.780  0.0873 -0.0543  0.0476
  140SAPE   H9R15269   2.355  -0.275   9.743 -2.6637  1.8546  1.5716
  140SAPE  C21015270   2.488  -0.116   9.668  0.1591  0.1025 -0.4733
  140SAPE  H10R15271   2.457  -0.167   9.574  0.3951 -0.1462 -0.4194
  140SAPE  H10S15272   2.598  -0.136   9.666 -0.0730 -1.2757 -3.0314
  140SAPE  C21115273   2.457   0.030   9.671  0.0675 -0.8373 -0.0410
  140SAPE  H11R15274   2.504   0.088   9.752  0.1945 -0.1027 -0.6325
  140SAPE  C21215275   2.389   0.102   9.579 -0.3531  0.1271 -0.3676
  140SAPE  H12R15276   2.381   0.210   9.601  0.9177 -0.1340  1.5570
  140SAPE  C21315277   2.330   0.038   9.452  0.1819 -0.0712 -0.3577
  140SAPE  H13R15278   2.370  -0.059   9.418  0.4656 -0.5054  1.1485
  140SAPE  H13S15279   2.339   0.110   9.368  0.8362  0.4715  0.1687
  140SAPE  C21415280   2.180   0.033   9.466 -0.0202 -0.4968 -0.7162
  140SAPE  H14R15281   2.151   0.039   9.572  2.7254  1.8272  0.0187
  140SAPE  C21515282   2.083   0.035   9.369  0.7555  0.2696  0.1695
  140SAPE  H15R15283   1.979   0.020   9.401  0.9431 -0.2683  0.5389
  140SAPE  C21615284   2.113   0.045   9.215 -0.0788  0.3748 -0.8345
  140SAPE  H16R15285   2.223   0.037   9.195 -0.2147 -0.4434 -1.3211
  140SAPE  H16S15286   2.080   0.146   9.185  0.6796  0.9214  0.0983
  140SAPE  C21715287   2.065  -0.063   9.114  0.2087  0.0258 -0.4519
  140SAPE  H17R15288   2.106  -0.159   9.154 -1.1360 -0.7847 -0.9658
  140SAPE  H17S15289   2.113  -0.052   9.015  3.3953  0.1459  0.9708
  140SAPE  C21815290   1.911  -0.079   9.078  0.0789 -0.1596 -0.0613
  140SAPE  H18R15291   1.869  -0.114   9.175 -0.5836 -0.3752 -0.4177
  140SAPE  H18S15292   1.886  -0.160   9.007  1.2154 -1.6245  1.1463
  140SAPE  C21915293   1.850   0.063   9.058 -1.0017  0.3166  0.3933
  140SAPE  H19R15294   1.874   0.101   8.956 -1.1138 -1.1110 -0.1899
  140SAPE  H19S15295   1.889   0.143   9.125 -2.7214  1.0906  0.5358
  140SAPE  C22015296   1.696   0.081   9.077 -0.0542  0.7633  0.2030
  140SAPE  H20R15297   1.666   0.183   9.044  2.5908  1.9314  1.0962
  140SAPE  H20S15298   1.668   0.062   9.183  0.2366 -1.0681 -0.0152
  140SAPE  H20T15299   1.641  -0.001   9.027 -1.2728  1.6119  0.1284
  140SAPE   C3315300   2.790   0.224  10.166  0.2197  0.3423 -0.2328
  140SAPE   H3X15301   2.740   0.137  10.213  1.5455 -0.5398 -0.4130
  140SAPE   H3Y15302   2.890   0.185  10.136  0.1814  0.4341 -0.4864
  140SAPE   C3415303   2.708   0.252  10.034  0.2433  0.0811 -0.1843
  140SAPE   H4X15304   2.616   0.309  10.058  1.7512  3.0889 -0.9816
  140SAPE   H4Y15305   2.673   0.158   9.987 -2.7756  0.2849  1.3793
  140SAPE   C3515306   2.782   0.324   9.920  0.0175 -0.5268  0.9142
  140SAPE   H5X15307   2.881   0.277   9.900  0.1375 -0.0220  0.3038
  140SAPE   H5Y15308   2.809   0.428   9.947  0.8946 -0.2429 -0.9439
  140SAPE   C3615309   2.694   0.331   9.792  0.0948  0.3102 -0.3461
  140SAPE   H6X15310   2.598   0.376   9.824 -0.0186 -0.1016 -0.1011
  140SAPE   H6Y15311   2.677   0.225   9.765  1.3256 -0.0546  0.2225
  140SAPE   C3715312   2.762   0.404   9.687 -0.4023 -0.4298  0.3780
  140SAPE   H7X15313   2.833   0.334   9.638 -0.9007 -0.0299 -0.9723
  140SAPE   H7Y15314   2.825   0.484   9.731 -0.2653 -0.1719 -0.2718
  140SAPE   C3815315   2.665   0.458   9.583 -0.7105  0.8866  0.7973
  140SAPE   H8X15316   2.601   0.539   9.624 -0.6423  1.3432  0.0084
  140SAPE   H8Y15317   2.592   0.379   9.554 -1.6946  2.3309 -0.8373
  140SAPE   C3915318   2.733   0.513   9.458 -0.1887  0.3278 -1.2302
  140SAPE   H9X15319   2.815   0.443   9.436  0.1770  0.1634  0.4823
  140SAPE   H9Y15320   2.778   0.613   9.476 -1.0132  0.2209  2.3630
  140SAPE  C31015321   2.639   0.534   9.344 -0.1950  0.1534  0.5624
  140SAPE  H10X15322   2.557   0.597   9.385 -0.0763  1.1075 -0.6358
  140SAPE  H10Y15323   2.595   0.434   9.325 -0.7455  0.4654  0.1870
  140SAPE  C31115324   2.710   0.583   9.215 -0.2029  0.8030 -0.1937
  140SAPE  H11X15325   2.803   0.523   9.202 -1.2119 -0.3924 -2.3180
  140SAPE  H11Y15326   2.750   0.685   9.239 -2.3624  2.6492 -3.6495
  140SAPE  C31215327   2.626   0.571   9.084 -0.0472 -0.0090 -0.4237
  140SAPE  H12X15328   2.612   0.675   9.048 -2.1418 -0.7242 -1.8575
  140SAPE  H12Y15329   2.518   0.547   9.100  0.1414 -0.4957  0.1620
  140SAPE  C31315330   2.695   0.494   8.971  0.2942  0.3914 -0.6102
  140SAPE  H13X15331   2.725   0.395   9.013 -2.4658  1.3746  4.6750
  140SAPE  H13Y15332   2.794   0.541   8.957  0.5071 -0.0856 -0.7370
  140SAPE  C31415333   2.609   0.492   8.846  0.4620  0.5775  0.1236
  140SAPE  H14X15334   2.601   0.595   8.806 -4.2879 -0.6344 -2.8174
  140SAPE  H14Y15335   2.507   0.458   8.873  0.0102 -0.0085 -2.1695
  140SAPE  C31515336   2.654   0.402   8.733 -0.1546  0.0590  1.5980
  140SAPE  H15X15337   2.568   0.403   8.662  1.8225 -1.7174 -0.9799
  140SAPE  H15Y15338   2.657   0.296   8.765  0.1558 -0.7183 -0.7810
  140SAPE  C31615339   2.773   0.461   8.663  0.5976 -0.2845  1.1524
  140SAPE  H16X15340   2.856   0.462   8.737  0.3952 -0.5525  1.3842
  140SAPE  H16Y15341   2.747   0.566   8.637  0.6226 -0.6026 -0.2141
  140SAPE  C31715342   2.788   0.392   8.531  0.0916  0.2464  0.0822
  140SAPE  H17X15343   2.692   0.406   8.478  1.5278  0.5950 -2.5880
  140SAPE  H17Y15344   2.807   0.283   8.538  0.9578  0.4696  2.6471
  140SAPE  C31815345   2.906   0.462   8.452  0.2499  0.7953 -0.2235
  140SAPE  H18X15346   3.008   0.439   8.490  0.9778 -0.8234 -2.8720
  140SAPE  H18Y15347   2.881   0.570   8.446  0.3452  0.7746 -1.1429
  140SAPE  H18Z15348   2.903   0.425   8.348 -0.1913 -1.0232  0.3976
  141SAPE     N15349   2.598   0.457  10.806 -0.3017  0.6195  0.0867
  141SAPE   HN115350   2.657   0.519  10.863 -1.5867  0.6306  1.4646
  141SAPE   HN215351   2.497   0.476  10.822 -0.5804 -1.0067  0.4179
  141SAPE   HN315352   2.616   0.358  10.832  3.5211  1.3195  0.6380
  141SAPE   C1215353   2.623   0.497  10.664 -0.1007  0.1917  0.0129
  141SAPE  H12A15354   2.563   0.431  10.597 -0.5847 -0.7284  1.2994
  141SAPE  H12B15355   2.729   0.476  10.639 -0.5336 -2.8799  0.3738
  141SAPE   C1115356   2.583   0.643  10.640 -0.1053  0.4414  1.3560
  141SAPE  H11A15357   2.477   0.658  10.670 -0.3059 -0.8257  1.3181
  141SAPE  H11B15358   2.591   0.659  10.531 -1.7732 -0.9367  0.9872
  141SAPE     P15359   2.810   0.784  10.689  0.0863 -0.0940  0.0532
  141SAPE   O1315360   2.812   0.922  10.741  0.2273 -0.0182  0.2519
  141SAPE   O1415361   2.910   0.693  10.735 -0.2904  0.1885 -0.5847
  141SAPE   O1215362   2.665   0.731  10.719  0.3013  0.6791 -0.8166
  141SAPE   O1115363   2.818   0.783  10.534  0.3739  0.1252 -0.1566
  141SAPE    C115364   2.946   0.769  10.476  0.0105 -0.0233  0.0813
  141SAPE    HA15365   3.022   0.833  10.525 -1.8563 -0.3828  3.8118
  141SAPE    HB15366   2.983   0.666  10.496 -0.2515 -0.1674 -0.1606
  141SAPE    C215367   2.953   0.797  10.325 -0.0201  0.3334  0.1682
  141SAPE    HS15368   3.059   0.783  10.295 -0.3550 -1.0873 -0.4759
  141SAPE   O2115369   2.900   0.927  10.293  0.0447 -0.2365  0.5186
  141SAPE   C2115370   2.999   1.022  10.304  0.3535  0.0628 -0.1615
  141SAPE   O2215371   3.113   0.999  10.333  0.0508  0.2382 -0.3156
  141SAPE   C2215372   2.930   1.155  10.261 -0.4801  0.2125 -0.1313
  141SAPE   H2R15373   2.829   1.142  10.307 -0.0728 -2.9002  0.1306
  141SAPE   H2S15374   2.981   1.237  10.316 -1.0739 -0.8603  2.1580
  141SAPE    C315375   2.876   0.698  10.233 -0.1579  0.6530 -0.3745
  141SAPE    HX15376   2.774   0.735  10.213  0.3194  1.5662 -1.2492
  141SAPE    HY15377   2.849   0.602  10.283 -0.8703  1.6929  1.3199
  141SAPE   O3115378   2.937   0.669  10.104 -0.2611  0.0727  0.0496
  141SAPE   C3115379   3.038   0.585  10.102  0.0069 -0.1215 -0.1260
  141SAPE   O3215380   3.088   0.523  10.193 -0.5483 -0.4247 -0.3383
  141SAPE   C3215381   3.091   0.582   9.957  0.6499 -0.4474 -0.9844
  141SAPE   H2X15382   3.107   0.688   9.926 -0.2095 -0.2543 -0.7827
  141SAPE   H2Y15383   3.006   0.546   9.895  0.5095  0.4384 -1.3274
  141SAPE   C2315384   2.921   1.182  10.113  0.6403 -0.2512 -0.0305
  141SAPE   H3R15385   2.867   1.279  10.099 -1.0532 -1.2174 -0.4276
  141SAPE   H3S15386   2.870   1.102  10.055 -1.1818  1.8472 -1.5129
  141SAPE   C2415387   3.062   1.210  10.050 -0.0240  0.3768 -0.0930
  141SAPE   H4R15388   3.127   1.127  10.084 -0.7975 -0.5936 -0.9145
  141SAPE   H4S15389   3.097   1.301  10.103 -1.3564  0.2035  1.1193
  141SAPE   C2515390   3.057   1.229   9.897 -0.3377  0.3586  0.5446
  141SAPE   H5R15391   3.070   1.330   9.853  0.6194 -0.4684 -1.1678
  141SAPE   C2615392   3.049   1.132   9.811  0.3631 -0.2952  0.1495
  141SAPE   H6R15393   3.029   1.162   9.707 -0.2942  2.5411  1.0039
  141SAPE   C2715394   3.043   0.989   9.842 -0.5909  1.0284  0.7589
  141SAPE   H7R15395   3.027   0.979   9.952 -0.0979 -1.5633  0.6510
  141SAPE   H7S15396   3.139   0.936   9.826 -1.0130  0.4559  0.0931
  141SAPE   C2815397   2.934   0.910   9.775  0.1150  0.1225 -0.5467
  141SAPE   H8R15398   2.838   0.921   9.828  0.3681  0.9363 -0.2508
  141SAPE   C2915399   2.934   0.834   9.664 -0.1416 -0.0806 -0.1265
  141SAPE   H9R15400   2.845   0.781   9.629  0.3716 -1.0281 -0.0255
  141SAPE  C21015401   3.052   0.811   9.576 -0.1556  0.1694 -0.3647
  141SAPE  H10R15402   3.108   0.725   9.618 -0.8322 -1.4072 -2.4618
  141SAPE  H10S15403   3.126   0.894   9.573 -0.3032  0.4058  1.5657
  141SAPE  C21115404   3.026   0.771   9.431  0.1621 -0.0944  0.0324
  141SAPE  H11R15405   3.049   0.666   9.408 -0.8886 -0.2171 -0.5284
  141SAPE  C21215406   3.000   0.852   9.329 -0.9204 -0.7322  0.5462
  141SAPE  H12R15407   2.971   0.802   9.235 -0.6244  0.4848 -0.2229
  141SAPE  C21315408   2.996   1.007   9.326  0.2400  0.5096  0.5118
  141SAPE  H13R15409   3.028   1.055   9.421 -1.8602  2.4749  0.3154
  141SAPE  H13S15410   2.887   1.028   9.326 -0.2900 -1.9492  0.6405
  141SAPE  C21415411   3.066   1.067   9.211  0.3084  0.5987 -0.1763
  141SAPE  H14R15412   3.169   1.096   9.237  0.5174 -0.4482  0.2198
  141SAPE  C21515413   3.029   1.086   9.078 -0.3396  0.5601 -0.1213
  141SAPE  H15R15414   3.084   1.156   9.014  1.0161 -1.4698 -1.3035
  141SAPE  C21615415   2.891   1.053   9.027 -0.1567  0.5480 -0.0838
  141SAPE  H16R15416   2.844   1.138   8.974 -1.4826 -0.3537 -0.4112
  141SAPE  H16S15417   2.830   1.021   9.114  2.9910 -0.1150  2.0686
  141SAPE  C21715418   2.892   0.939   8.916  0.2312 -0.9327 -0.3116
  141SAPE  H17R15419   2.791   0.894   8.924 -1.2418  2.3938  2.6524
  141SAPE  H17S15420   2.968   0.863   8.945  0.6662 -0.5074 -0.3291
  141SAPE  C21815421   2.929   0.988   8.776  0.1554  0.1471  0.2865
  141SAPE  H18R15422   3.033   1.026   8.774 -0.0603  0.7531  0.2988
  141SAPE  H18S15423   2.859   1.068   8.743  0.2250  1.3424  2.7769
  141SAPE  C21915424   2.898   0.883   8.666 -0.7201  0.0246  0.3694
  141SAPE  H19R15425   2.945   0.786   8.692  2.4908  1.1816 -0.5604
  141SAPE  H19S15426   2.964   0.906   8.579  1.4366  1.2216  2.1934
  141SAPE  C22015427   2.754   0.860   8.630  0.7844 -0.4837 -1.0812
  141SAPE  H20R15428   2.743   0.767   8.571 -0.8276 -1.4835  0.6695
  141SAPE  H20S15429   2.716   0.947   8.571 -0.3231  0.4868  0.9593
  141SAPE  H20T15430   2.693   0.856   8.722  1.6456  0.6824 -0.4218
  141SAPE   C3315431   3.200   0.474   9.946 -0.6203 -0.1672 -0.9368
  141SAPE   H3X15432   3.180   0.378  10.000  0.9345  1.0573  2.0203
  141SAPE   H3Y15433   3.290   0.505  10.002 -0.8636 -2.8690  1.1812
  141SAPE   C3415434   3.238   0.441   9.803  0.8039 -0.5966 -0.9104
  141SAPE   H4X15435   3.343   0.406   9.789  1.5251  1.7138 -1.8070
  141SAPE   H4Y15436   3.228   0.535   9.744  1.2099 -0.0123 -0.0711
  141SAPE   C3515437   3.154   0.326   9.743  0.0076  0.2480  0.0229
  141SAPE   H5X15438   3.049   0.350   9.771 -0.2472  0.8409 -1.4007
  141SAPE   H5Y15439   3.178   0.231   9.796  1.6412  0.4451 -0.3397
  141SAPE   C3615440   3.180   0.307   9.596  0.2511 -0.4769  0.6124
  141SAPE   H6X15441   3.124   0.220   9.557 -0.1698  0.6044 -1.3871
  141SAPE   H6Y15442   3.286   0.299   9.566 -0.6907 -1.1558 -3.0522
  141SAPE   C3715443   3.119   0.422   9.514  0.1125 -0.1941 -0.6727
  141SAPE   H7X15444   3.197   0.500   9.497  0.0437 -0.2354 -1.1976
  141SAPE   H7Y15445   3.029   0.461   9.566  1.4425  0.6833  1.0853
  141SAPE   C3815446   3.072   0.384   9.374 -0.3746  0.6314 -0.1970
  141SAPE   H8X15447   3.036   0.478   9.326 -0.7040  0.7634  0.2991
  141SAPE   H8Y15448   2.989   0.312   9.361  0.4593 -0.8557  2.0794
  141SAPE   C3915449   3.180   0.336   9.284 -0.7643 -0.0443  0.0957
  141SAPE   H9X15450   3.218   0.234   9.308  1.5709  1.2408  2.2749
  141SAPE   H9Y15451   3.266   0.405   9.297 -1.6471  1.0083  0.4506
  141SAPE  C31015452   3.143   0.360   9.134  0.3722  0.3939  0.2748
  141SAPE  H10X15453   3.235   0.350   9.073  1.2411  1.5421  1.3494
  141SAPE  H10Y15454   3.099   0.462   9.132 -0.7931 -0.0900 -1.8283
  141SAPE  C31115455   3.044   0.252   9.083 -0.4609 -0.1342 -0.2021
  141SAPE  H11X15456   2.951   0.271   9.142  0.2976 -0.6228  1.2006
  141SAPE  H11Y15457   3.087   0.151   9.101  0.2979  0.0674 -0.8597
  141SAPE  C31215458   3.026   0.275   8.929 -0.4742  0.6286  0.3837
  141SAPE  H12X15459   3.128   0.267   8.886 -0.5526 -2.4806  0.5746
  141SAPE  H12Y15460   2.995   0.382   8.920  1.7017  1.2476 -0.4078
  141SAPE  C31315461   2.920   0.182   8.859 -0.2820 -0.1836  0.6254
  141SAPE  H13X15462   2.899   0.208   8.753 -1.4471 -0.2361  0.8313
  141SAPE  H13Y15463   2.819   0.178   8.904 -0.2933 -2.1663  0.5262
  141SAPE  C31415464   2.964   0.033   8.855  0.8467 -0.4007  0.4414
  141SAPE  H14X15465   2.941  -0.008   8.956 -3.6937  0.4569 -0.0648
  141SAPE  H14Y15466   3.072   0.022   8.832  0.9186 -2.0992  1.3858
  141SAPE  C31515467   2.889  -0.038   8.747  0.1504  0.0325 -0.4937
  141SAPE  H15X15468   2.890   0.032   8.660 -0.6506 -0.0261 -0.5547
  141SAPE  H15Y15469   2.786  -0.050   8.786 -0.0172  0.0282 -0.9231
  141SAPE  C31615470   2.939  -0.173   8.696 -0.1088  0.0324  0.3944
  141SAPE  H16X15471   2.934  -0.262   8.762  3.3207 -0.1985  0.5583
  141SAPE  H16Y15472   3.047  -0.175   8.670 -0.2124 -1.1679 -0.0290
  141SAPE  C31715473   2.864  -0.203   8.557 -0.0741  0.4025  0.1721
  141SAPE  H17X15474   2.895  -0.301   8.517  0.3105  0.5437  0.1272
  141SAPE  H17Y15475   2.882  -0.124   8.481 -0.5365 -0.0858 -0.4557
  141SAPE  C31815476   2.711  -0.204   8.571  0.1664 -0.2977 -0.4583
  141SAPE  H18X15477   2.663  -0.213   8.471 -2.2429  2.5861  0.2934
  141SAPE  H18Y15478   2.667  -0.116   8.622  1.4841  0.2815 -0.2886
  141SAPE  H18Z15479   2.675  -0.301   8.611 -1.6247  0.6032  0.2363
  142SAPE     N15480   3.784   6.096  11.018  0.2099 -0.2889 -0.5652
  142SAPE   HN115481   3.856   6.161  10.983  2.8147 -2.5059  0.3149
  142SAPE   HN215482   3.769   6.030  10.939  0.0946 -0.2571 -0.5704
  142SAPE   HN315483   3.694   6.144  11.039  0.4536 -0.0024 -0.1730
  142SAPE   C1215484   3.840   6.024  11.144  0.3589  0.1573  0.1289
  142SAPE  H12A15485   3.767   5.944  11.166  0.2275  0.3299  0.3259
  142SAPE  H12B15486   3.851   6.102  11.223 -1.3162  1.4258 -0.8160
  142SAPE   C1115487   3.968   5.946  11.130  0.5123 -0.2335 -0.0637
  142SAPE  H11A15488   3.950   5.874  11.048  0.7665 -1.0001  0.5346
  142SAPE  H11B15489   3.988   5.885  11.221  0.3355 -2.5765 -1.4944
  142SAPE     P15490   4.205   5.968  11.039 -0.1768 -0.0256  0.0561
  142SAPE   O1315491   4.315   6.066  11.062 -0.4729 -0.2193  0.0794
  142SAPE   O1415492   4.234   5.831  11.082  0.1272  0.1894 -1.0995
  142SAPE   O1215493   4.081   6.029  11.111  0.0662 -0.2525  0.0909
  142SAPE   O1115494   4.158   5.962  10.895 -0.1996  0.8564  0.5694
  142SAPE    C115495   4.252   5.981  10.795  0.6354  0.2581 -0.8197
  142SAPE    HA15496   4.265   6.091  10.783 -1.0174  0.5899  0.0627
  142SAPE    HB15497   4.345   5.928  10.823 -0.8991 -0.7151  3.0796
  142SAPE    C215498   4.212   5.920  10.658  0.8436  0.6782 -0.1387
  142SAPE    HS15499   4.304   5.927  10.595  1.9201 -0.3706  1.2582
  142SAPE   O2115500   4.092   5.980  10.589 -0.3958 -0.1858 -0.3335
  142SAPE   C2115501   4.099   6.108  10.548 -0.0876 -0.0895 -0.4037
  142SAPE   O2215502   4.190   6.184  10.568  0.0298 -0.1791  0.6482
  142SAPE   C2215503   3.970   6.141  10.473 -0.1214 -0.2269  0.2434
  142SAPE   H2R15504   3.959   6.064  10.393 -4.2147 -0.2264  0.6212
  142SAPE   H2S15505   3.883   6.124  10.540  0.2118 -2.3444  0.2278
  142SAPE    C315506   4.169   5.764  10.683 -0.4696 -0.3508  0.1788
  142SAPE    HX15507   4.079   5.766  10.748 -1.6775 -0.5803 -1.4106
  142SAPE    HY15508   4.255   5.724  10.741  0.6335  0.1640 -1.0588
  142SAPE   O3115509   4.155   5.678  10.568  0.5074 -0.2145 -0.5976
  142SAPE   C3115510   4.030   5.646  10.530  0.4312  0.0952 -0.1263
  142SAPE   O3215511   3.922   5.685  10.575  0.0126 -0.1915  0.0159
  142SAPE   C3215512   4.044   5.541  10.416 -0.2157 -0.3480 -0.4292
  142SAPE   H2X15513   4.014   5.449  10.470  0.0866 -0.0631  0.2321
  142SAPE   H2Y15514   4.146   5.537  10.372 -0.3687 -0.8621 -0.7453
  142SAPE   C2315515   3.979   6.287  10.411 -0.1181  0.4412 -0.0600
  142SAPE   H3R15516   4.083   6.300  10.373  0.5658 -1.4512  1.0817
  142SAPE   H3S15517   3.965   6.362  10.492  0.5193  0.8756 -0.3427
  142SAPE   C2415518   3.874   6.310  10.302 -0.9928 -0.0398  0.1864
  142SAPE   H4R15519   3.911   6.235  10.228 -0.3965  0.7319 -0.3112
  142SAPE   H4S15520   3.878   6.412  10.259 -1.0485  0.5720  1.5831
  142SAPE   C2515521   3.735   6.282  10.348 -0.3955  0.0491  0.3881
  142SAPE   H5R15522   3.704   6.328  10.444 -1.2447 -0.1964  0.2460
  142SAPE   C2615523   3.633   6.231  10.268 -0.1705 -0.9048 -0.2946
  142SAPE   H6R15524   3.532   6.221  10.311  0.8179 -2.0188  1.9039
  142SAPE   C2715525   3.640   6.178  10.125  0.3481  0.5783  0.1376
  142SAPE   H7R15526   3.742   6.172  10.081  0.7504  1.2346  0.9611
  142SAPE   H7S15527   3.590   6.256  10.063  1.3736  0.4350 -0.9029
  142SAPE   C2815528   3.565   6.045  10.107  0.4075 -0.0656 -0.0226
  142SAPE   H8R15529   3.536   5.987  10.195 -0.1494 -1.6977 -1.2286
  142SAPE   C2915530   3.553   5.991   9.980  0.2250  0.1857 -0.1030
  142SAPE   H9R15531   3.498   5.896   9.977  0.4058  0.1042 -1.3939
  142SAPE  C21015532   3.600   6.051   9.848  0.3410 -0.1677 -0.1007
  142SAPE  H10R15533   3.706   6.023   9.831  1.3831  2.8332  0.7791
  142SAPE  H10S15534   3.599   6.162   9.854  0.6622 -0.2092  0.8548
  142SAPE  C21115535   3.509   5.992   9.749  0.7869 -0.3025  0.6008
  142SAPE  H11R15536   3.399   5.995   9.755  0.7739  0.5389  0.1291
  142SAPE  C21215537   3.551   5.936   9.639 -0.0460  0.3281 -0.1939
  142SAPE  H12R15538   3.468   5.901   9.576 -0.6161  1.1361  0.0808
  142SAPE  C21315539   3.692   5.914   9.593  1.0739  0.1164  0.4973
  142SAPE  H13R15540   3.768   5.978   9.642  0.8872  0.2310  0.6382
  142SAPE  H13S15541   3.706   5.938   9.485  3.0669 -0.4473  0.5897
  142SAPE  C21415542   3.722   5.767   9.607  0.8720 -0.1900  0.2831
  142SAPE  H14R15543   3.649   5.717   9.672  2.3538  0.6719  2.7587
  142SAPE  C21515544   3.826   5.702   9.568  0.4071  0.4701 -0.1525
  142SAPE  H15R15545   3.815   5.593   9.576 -0.3998  0.6658  2.4945
  142SAPE  C21615546   3.948   5.753   9.493 -0.2863 -0.0197 -0.0716
  142SAPE  H16R15547   4.037   5.697   9.528  0.1371 -0.6512 -2.0189
  142SAPE  H16S15548   3.966   5.862   9.506 -0.9125  0.2166 -1.0614
  142SAPE  C21715549   3.936   5.736   9.341 -0.3433  0.3477 -0.0934
  142SAPE  H17R15550   3.846   5.793   9.310 -1.2844 -1.6193 -1.1131
  142SAPE  H17S15551   3.903   5.635   9.309  0.3747  0.5696 -1.6471
  142SAPE  C21815552   4.050   5.776   9.259 -0.6682 -0.1851  0.9929
  142SAPE  H18R15553   4.134   5.704   9.268 -1.1572 -1.2355 -1.8588
  142SAPE  H18S15554   4.095   5.876   9.276  1.2225 -0.4354 -1.8701
  142SAPE  C21915555   4.022   5.753   9.106 -0.9062 -0.1753 -0.5009
  142SAPE  H19R15556   3.922   5.794   9.079 -1.0348  0.4483  0.8652
  142SAPE  H19S15557   4.012   5.647   9.073  2.0612 -0.2955 -1.3355
  142SAPE  C22015558   4.133   5.817   9.019  0.0734  0.3183 -0.7936
  142SAPE  H20R15559   4.236   5.782   9.045  0.5235  1.2455 -1.2972
  142SAPE  H20S15560   4.144   5.924   9.046  1.3058 -0.2807  1.3131
  142SAPE  H20T15561   4.121   5.813   8.909 -1.4017 -1.3051 -0.6078
  142SAPE   C3315562   3.952   5.571  10.296  0.2110  0.8854 -0.0527
  142SAPE   H3X15563   3.860   5.612  10.342 -0.1319 -1.0525  1.0522
  142SAPE   H3Y15564   3.930   5.484  10.231  0.3122  0.5512  0.3548
  142SAPE   C3415565   4.004   5.673  10.198 -0.4185  0.1371  0.0007
  142SAPE   H4X15566   3.980   5.651  10.092  2.9785  0.3243 -0.9259
  142SAPE   H4Y15567   4.114   5.691  10.204 -0.4612  0.0215  1.6248
  142SAPE   C3515568   3.944   5.812  10.219 -0.0204  0.8564 -0.5918
  142SAPE   H5X15569   3.962   5.838  10.326  1.0010  0.8220 -0.7371
  142SAPE   H5Y15570   3.835   5.825  10.204  0.0767  1.0720 -1.1485
  142SAPE   C3615571   4.015   5.928  10.140 -0.0193 -0.4190 -0.1133
  142SAPE   H6X15572   4.108   5.955  10.194 -0.3036  1.6221 -0.5367
  142SAPE   H6Y15573   3.956   6.021  10.159  0.9869  0.1818  0.1261
  142SAPE   C3715574   4.032   5.906   9.986  0.2735 -0.1757  0.0006
  142SAPE   H7X15575   3.934   5.890   9.937  0.3594 -0.7413  0.0068
  142SAPE   H7Y15576   4.079   5.808   9.962  0.3650  0.4759 -2.7642
  142SAPE   C3815577   4.099   6.017   9.907 -0.1607 -0.3973 -0.2608
  142SAPE   H8X15578   4.203   6.027   9.946 -0.8048  0.2464  1.3796
  142SAPE   H8Y15579   4.046   6.111   9.931 -1.2240 -1.0734  0.1489
  142SAPE   C3915580   4.094   5.997   9.763  0.4098 -0.3731 -0.3707
  142SAPE   H9X15581   3.996   5.962   9.725  0.1134  0.4726 -0.3965
  142SAPE   H9Y15582   4.160   5.910   9.746 -0.5528 -0.8465 -1.8440
  142SAPE  C31015583   4.151   6.115   9.680 -0.6364  0.5720 -0.0538
  142SAPE  H10X15584   4.261   6.107   9.696 -0.3921  1.8948 -0.8727
  142SAPE  H10Y15585   4.122   6.217   9.712  1.3133  0.1162  3.7752
  142SAPE  C31115586   4.142   6.084   9.522 -0.7756  0.6315 -1.0453
  142SAPE  H11X15587   4.035   6.094   9.494 -2.2053 -2.3165  2.4913
  142SAPE  H11Y15588   4.170   5.979   9.500  0.1222  0.2147  1.6866
  142SAPE  C31215589   4.245   6.173   9.447  0.3543 -0.1227  0.6467
  142SAPE  H12X15590   4.350   6.156   9.476  1.4279  1.8717 -1.7124
  142SAPE  H12Y15591   4.225   6.277   9.482  0.7844 -0.3200  1.5083
  142SAPE  C31315592   4.247   6.165   9.296 -0.3687 -0.0525  0.8269
  142SAPE  H13X15593   4.146   6.206   9.271  0.4264  2.1554  1.0284
  142SAPE  H13Y15594   4.252   6.063   9.252  0.2519 -0.5526  2.0276
  142SAPE  C31415595   4.365   6.256   9.252  0.8985 -0.0314  0.2951
  142SAPE  H14X15596   4.461   6.210   9.284  0.3975 -2.3066 -1.2332
  142SAPE  H14Y15597   4.360   6.348   9.314  0.6849 -0.5883  1.1358
  142SAPE  C31515598   4.372   6.295   9.100  0.1384 -0.1680 -0.5464
  142SAPE  H15X15599   4.445   6.378   9.094 -0.7910  0.6762 -0.3712
  142SAPE  H15Y15600   4.272   6.329   9.066  1.0577  2.1399 -1.1362
  142SAPE  C31615601   4.434   6.185   9.012 -0.2365  0.0420  0.7089
  142SAPE  H16X15602   4.375   6.091   9.013 -0.1616 -0.0086  0.4058
  142SAPE  H16Y15603   4.533   6.169   9.061 -0.3540  0.9869  1.2770
  142SAPE  C31715604   4.468   6.241   8.863 -0.0469 -0.3656  0.0430
  142SAPE  H17X15605   4.544   6.174   8.817  0.5422  0.0283  0.4271
  142SAPE  H17Y15606   4.514   6.341   8.877 -0.9094 -0.0228  0.5079
  142SAPE  C31815607   4.350   6.239   8.764  0.1815 -0.4724 -0.2814
  142SAPE  H18X15608   4.258   6.295   8.792  1.6587  1.3231  1.2518
  142SAPE  H18Y15609   4.320   6.133   8.753  0.8099 -0.6481 -0.3255
  142SAPE  H18Z15610   4.373   6.282   8.663 -2.7963  2.1405 -0.0010
  143SAPE     N15611   5.327   6.571  10.915  0.2847  0.2369 -0.6670
  143SAPE   HN115612   5.369   6.477  10.927 -2.2130 -0.6448  2.6039
  143SAPE   HN215613   5.291   6.590  11.011 -2.0152  1.1421 -1.6436
  143SAPE   HN315614   5.256   6.551  10.842 -1.1932 -1.6039  1.1390
  143SAPE   C1215615   5.437   6.658  10.874  0.4614 -0.1948 -0.3558
  143SAPE  H12A15616   5.410   6.765  10.882  3.0521  0.4822 -0.0550
  143SAPE  H12B15617   5.464   6.641  10.767  0.7879  1.0747 -0.4891
  143SAPE   C1115618   5.566   6.647  10.963  0.4091 -0.0002 -0.3431
  143SAPE  H11A15619   5.556   6.679  11.069 -0.9641 -1.2335 -0.0724
  143SAPE  H11B15620   5.650   6.710  10.927  0.7466 -0.3642 -0.2011
  143SAPE     P15621   5.730   6.451  10.909  0.0380 -0.3479  0.0188
  143SAPE   O1315622   5.846   6.544  10.931 -0.1893  0.4062  0.3553
  143SAPE   O1415623   5.752   6.314  10.957  0.2999  0.0990  0.0767
  143SAPE   O1215624   5.603   6.510  10.979 -0.1151 -0.6150  0.1419
  143SAPE   O1115625   5.701   6.445  10.755 -0.9769  0.1747  0.4655
  143SAPE    C115626   5.587   6.367  10.717  0.1172  0.6117  0.1132
  143SAPE    HA15627   5.588   6.268  10.767  1.8499  0.7754  0.4586
  143SAPE    HB15628   5.486   6.411  10.734 -0.8005 -1.4411  0.2750
  143SAPE    C215629   5.594   6.330  10.563  0.0358  0.4922 -0.9200
  143SAPE    HS15630   5.693   6.283  10.550  0.1216  0.1916  0.6050
  143SAPE   O2115631   5.571   6.451  10.484  0.0172 -0.2747  0.2539
  143SAPE   C2115632   5.665   6.492  10.398  0.1708  0.0132  0.3101
  143SAPE   O2215633   5.771   6.440  10.376  0.3566  0.4229  0.2507
  143SAPE   C2215634   5.605   6.614  10.330  0.2600  0.0220 -0.5950
  143SAPE   H2R15635   5.495   6.614  10.342  0.2831  0.8732 -0.2911
  143SAPE   H2S15636   5.647   6.698  10.391  4.3925 -3.0070  1.2520
  143SAPE    C315637   5.487   6.221  10.532 -0.5098  0.0756 -0.0790
  143SAPE    HX15638   5.395   6.256  10.583 -0.0673  1.2237 -0.0378
  143SAPE    HY15639   5.516   6.126  10.582  4.6300  0.8907 -0.9686
  143SAPE   O3115640   5.467   6.208  10.392  0.0357  0.7156 -0.1158
  143SAPE   C3115641   5.553   6.120  10.338 -0.2099 -0.0660 -1.0691
  143SAPE   O3215642   5.642   6.061  10.400 -0.1048 -0.0275 -0.6828
  143SAPE   C3215643   5.532   6.123  10.189 -0.8433  0.8820 -0.7494
  143SAPE   H2X15644   5.572   6.219  10.149 -0.4105  1.2527  0.5229
  143SAPE   H2Y15645   5.422   6.121  10.172 -0.7054 -0.8254 -1.6033
  143SAPE   C2315646   5.656   6.626  10.181  0.1648  0.0252 -0.5158
  143SAPE   H3R15647   5.678   6.527  10.136 -0.7888  0.1759 -1.3749
  143SAPE   H3S15648   5.740   6.697  10.175 -0.0463  0.1741 -2.3052
  143SAPE   C2415649   5.539   6.666  10.085 -0.1526  0.1097  0.3164
  143SAPE   H4R15650   5.502   6.768  10.111  0.8720  0.2153  1.4488
  143SAPE   H4S15651   5.455   6.596  10.107  1.0231 -1.2074  0.7321
  143SAPE   C2515652   5.579   6.655   9.942 -0.0195 -0.6869 -0.4184
  143SAPE   H5R15653   5.677   6.702   9.925  1.4339 -3.3596  0.0137
  143SAPE   C2615654   5.508   6.587   9.846 -0.3754  0.6504 -0.6325
  143SAPE   H6R15655   5.558   6.580   9.748 -0.0842  0.5689 -0.4811
  143SAPE   C2715656   5.387   6.503   9.849 -0.3336 -0.8568  0.0927
  143SAPE   H7R15657   5.351   6.497   9.954  1.0607 -1.2965  0.5717
  143SAPE   H7S15658   5.415   6.406   9.803 -0.8334  0.3956 -3.1121
  143SAPE   C2815659   5.276   6.556   9.764 -0.1133  0.6675  0.0539
  143SAPE   H8R15660   5.210   6.622   9.822  0.6453  0.8134  0.7856
  143SAPE   C2915661   5.248   6.532   9.639  0.3158  0.2976  0.3562
  143SAPE   H9R15662   5.161   6.590   9.604 -0.7675 -1.0706  0.6814
  143SAPE  C21015663   5.329   6.448   9.547  0.0992 -0.1955  0.0724
  143SAPE  H10R15664   5.329   6.346   9.593 -0.2174 -0.5459 -0.6800
  143SAPE  H10S15665   5.432   6.488   9.536 -0.1500  0.4793  0.1742
  143SAPE  C21115666   5.269   6.448   9.399  0.0416  0.1636 -0.5425
  143SAPE  H11R15667   5.174   6.396   9.382  0.2475  0.4669 -2.8984
  143SAPE  C21215668   5.320   6.519   9.291  0.2245  0.3763 -0.1384
  143SAPE  H12R15669   5.278   6.509   9.189 -4.3425  0.2915  1.4842
  143SAPE  C21315670   5.442   6.604   9.290  0.2646  0.2365  0.3024
  143SAPE  H13R15671   5.534   6.542   9.296 -0.7419 -1.4913 -1.1007
  143SAPE  H13S15672   5.433   6.672   9.377 -2.6135 -1.4935  1.4664
  143SAPE  C21415673   5.465   6.690   9.168 -0.1015 -0.0971  0.2300
  143SAPE  H14R15674   5.484   6.796   9.193  0.4548 -0.4200  1.2436
  143SAPE  C21515675   5.468   6.653   9.038  0.0565  0.3697  0.2432
  143SAPE  H15R15676   5.486   6.726   8.958 -0.3822 -1.2438 -1.3676
  143SAPE  C21615677   5.432   6.520   8.973 -0.4009  0.6813  0.1061
  143SAPE  H16R15678   5.326   6.506   8.944 -0.0028  0.1922 -1.1469
  143SAPE  H16S15679   5.456   6.442   9.049  1.1569  1.5796  0.5797
  143SAPE  C21715680   5.524   6.474   8.851  0.1323 -0.6696 -0.1339
  143SAPE  H17R15681   5.503   6.555   8.778 -0.6365  0.0166  0.8100
  143SAPE  H17S15682   5.490   6.379   8.805 -2.2554 -1.0385  2.1386
  143SAPE  C21815683   5.674   6.458   8.884  0.2721 -0.0387 -0.6684
  143SAPE  H18R15684   5.672   6.376   8.959 -0.7963  1.9464  1.6070
  143SAPE  H18S15685   5.734   6.541   8.927  1.9231 -1.6845  0.3549
  143SAPE  C21915686   5.761   6.421   8.764 -0.2840  0.1192  0.4761
  143SAPE  H19R15687   5.747   6.483   8.673  0.9375 -1.3144 -0.7250
  143SAPE  H19S15688   5.736   6.316   8.738  0.1733  0.0849  0.1555
  143SAPE  C22015689   5.911   6.406   8.802 -0.3677 -0.3346  0.2058
  143SAPE  H20R15690   5.977   6.369   8.721 -0.4159 -0.9712  0.4491
  143SAPE  H20S15691   5.926   6.348   8.896  1.0800 -3.7867 -1.9640
  143SAPE  H20T15692   5.945   6.506   8.837 -1.7141 -0.2268  1.3452
  143SAPE   C3315693   5.595   6.008  10.106  0.2736 -0.5291 -0.5457
  143SAPE   H3X15694   5.548   5.920  10.155 -0.1799  1.0457  1.9982
  143SAPE   H3Y15695   5.702   5.991  10.129  1.2541  3.3161 -1.5159
  143SAPE   C3415696   5.575   6.026   9.952 -0.1938  0.0100 -0.2394
  143SAPE   H4X15697   5.465   6.032   9.940 -0.6230 -3.2270  1.0786
  143SAPE   H4Y15698   5.611   5.934   9.902  0.0395 -0.5319  0.8907
  143SAPE   C3515699   5.632   6.148   9.883 -0.1887 -0.5927 -0.5899
  143SAPE   H5X15700   5.720   6.183   9.942 -1.2693  1.5393 -0.1489
  143SAPE   H5Y15701   5.559   6.231   9.890 -0.6176 -1.1005  1.6984
  143SAPE   C3615702   5.662   6.131   9.737 -0.8868  0.3328  0.8585
  143SAPE   H6X15703   5.749   6.063   9.722 -1.6073 -0.1822 -1.3117
  143SAPE   H6Y15704   5.693   6.233   9.705 -1.2435 -0.0988 -0.9545
  143SAPE   C3715705   5.543   6.091   9.649 -0.6731 -0.4443  0.0898
  143SAPE   H7X15706   5.447   6.127   9.692 -0.4684 -3.0993  3.1611
  143SAPE   H7Y15707   5.528   5.981   9.647 -0.1277 -0.5255 -1.7266
  143SAPE   C3815708   5.564   6.154   9.510 -0.3134  0.1566 -0.8243
  143SAPE   H8X15709   5.670   6.149   9.477 -0.0303  0.3353  0.0407
  143SAPE   H8Y15710   5.542   6.262   9.522 -2.1428 -0.1806 -0.9022
  143SAPE   C3915711   5.483   6.088   9.396 -0.6026 -0.8847 -0.1696
  143SAPE   H9X15712   5.377   6.100   9.428 -0.2794  0.2387  0.5207
  143SAPE   H9Y15713   5.510   5.981   9.381  3.5468  0.0219 -0.2123
  143SAPE  C31015714   5.491   6.168   9.264  0.7666 -0.8519  0.6105
  143SAPE  H10X15715   5.580   6.130   9.209 -0.9949 -3.4671 -0.6580
  143SAPE  H10Y15716   5.524   6.273   9.277  3.9313 -1.3215 -2.3077
  143SAPE  C31115717   5.363   6.148   9.181  0.0361  0.1874 -0.3958
  143SAPE  H11X15718   5.365   6.212   9.090  0.8668 -1.3011 -1.4741
  143SAPE  H11Y15719   5.282   6.189   9.245  2.3629  0.9049  2.3024
  143SAPE  C31215720   5.332   6.002   9.148  0.4601  0.4263  0.0970
  143SAPE  H12X15721   5.270   5.945   9.220  1.9467 -0.6006  0.6260
  143SAPE  H12Y15722   5.434   5.959   9.145  0.0448 -1.0813  3.2587
  143SAPE  C31315723   5.268   5.992   9.010 -0.1103 -0.5088  1.0046
  143SAPE  H13X15724   5.323   6.056   8.937 -3.3903  0.3709 -0.9250
  143SAPE  H13Y15725   5.166   6.033   9.029  1.1033  2.7624  1.0340
  143SAPE  C31415726   5.260   5.849   8.954  0.2330  0.9141  0.2484
  143SAPE  H14X15727   5.186   5.847   8.871 -0.1100 -0.1052  0.5545
  143SAPE  H14Y15728   5.218   5.782   9.032 -0.5513  2.2581  1.0106
  143SAPE  C31515729   5.389   5.787   8.907 -0.4707 -0.5449  0.6998
  143SAPE  H15X15730   5.474   5.800   8.976 -1.6123 -1.0481  2.2470
  143SAPE  H15Y15731   5.437   5.838   8.821 -0.7236 -1.8435 -0.2392
  143SAPE  C31615732   5.373   5.644   8.870  0.1678 -0.3216 -0.2213
  143SAPE  H16X15733   5.281   5.630   8.809 -0.3406 -1.5113  0.7785
  143SAPE  H16Y15734   5.378   5.577   8.958  0.2610 -0.3486 -0.2461
  143SAPE  C31715735   5.502   5.603   8.794  0.0854  0.1270  0.6603
  143SAPE  H17X15736   5.593   5.637   8.849  0.0796  0.4175  0.4948
  143SAPE  H17Y15737   5.494   5.666   8.702 -1.8982 -1.5840 -0.4167
  143SAPE  C31815738   5.507   5.464   8.752  0.0636 -0.6006  0.3502
  143SAPE  H18X15739   5.597   5.446   8.689  1.4395  0.6019  1.8947
  143SAPE  H18Y15740   5.415   5.438   8.694 -1.4696  0.4814  2.1797
  143SAPE  H18Z15741   5.511   5.402   8.844 -1.2506 -0.3937  0.5743
  144SAPE     N15742   1.352   4.137  10.981 -0.3024 -0.2771  0.0081
  144SAPE   HN115743   1.288   4.186  11.047  1.0644  1.4313  0.1556
  144SAPE   HN215744   1.297   4.071  10.922 -2.3669  1.8203 -0.5516
  144SAPE   HN315745   1.413   4.075  11.039  0.6848  2.1785  1.7719
  144SAPE   C1215746   1.425   4.244  10.896  0.2198 -0.6533  1.1679
  144SAPE  H12A15747   1.472   4.315  10.966  2.2094 -0.8480  0.0995
  144SAPE  H12B15748   1.344   4.287  10.833  0.4575 -0.3883  1.0462
  144SAPE   C1115749   1.527   4.184  10.803 -0.1791 -0.5965 -0.2790
  144SAPE  H11A15750   1.546   4.256  10.720  0.8000 -0.3742  0.1203
  144SAPE  H11B15751   1.479   4.095  10.758  1.5295 -0.3740 -2.7304
  144SAPE     P15752   1.728   4.035  10.853 -0.1577 -0.2683  0.0143
  144SAPE   O1315753   1.858   4.049  10.922 -0.1458  0.6682  0.1223
  144SAPE   O1415754   1.638   3.922  10.884  0.0249 -0.3529 -0.0197
  144SAPE   O1215755   1.647   4.164  10.873 -0.2734 -0.1261  0.4923
  144SAPE   O1115756   1.758   4.030  10.702 -0.9588 -0.7187 -0.1314
  144SAPE    C115757   1.836   4.117  10.624 -0.7236 -0.4777  0.0366
  144SAPE    HA15758   1.856   4.218  10.667 -0.3074 -0.1894 -0.7972
  144SAPE    HB15759   1.934   4.072  10.598  0.1288 -0.1578  2.4580
  144SAPE    C215760   1.768   4.150  10.485  0.7914 -0.1049  0.2826
  144SAPE    HS15761   1.697   4.234  10.499 -0.1855 -0.9830  0.7087
  144SAPE   O2115762   1.706   4.033  10.451 -0.5415  0.7815 -0.2421
  144SAPE   C2115763   1.583   4.043  10.400 -0.1667  0.7672  0.1095
  144SAPE   O2215764   1.510   4.141  10.410  0.0562 -0.1715  0.5452
  144SAPE   C2215765   1.545   3.915  10.328  0.5048  0.3077 -0.0185
  144SAPE   H2R15766   1.642   3.873  10.294  0.2860 -0.8781  0.7205
  144SAPE   H2S15767   1.504   3.842  10.402  0.1552  0.6907  0.1702
  144SAPE    C315768   1.874   4.197  10.388  0.3317 -0.0965  0.1203
  144SAPE    HX15769   1.947   4.116  10.367  1.0922  0.6499 -0.1875
  144SAPE    HY15770   1.930   4.282  10.434 -0.8597  0.3085  0.8796
  144SAPE   O3115771   1.812   4.237  10.264  0.5061 -0.3058  0.3264
  144SAPE   C3115772   1.849   4.334  10.184  0.4366 -0.3502  0.6317
  144SAPE   O3215773   1.937   4.413  10.204  0.5346  0.1220 -0.1630
  144SAPE   C3215774   1.766   4.331  10.060  0.4339  0.1048  0.1457
  144SAPE   H2X15775   1.699   4.420  10.062  1.4076  0.9285 -1.7170
  144SAPE   H2Y15776   1.698   4.244  10.055  0.2573  0.2394  0.1873
  144SAPE   C2315777   1.453   3.935  10.206  0.5396  0.0390 -0.2446
  144SAPE   H3R15778   1.481   3.857  10.132 -1.2794  0.8346 -1.8402
  144SAPE   H3S15779   1.472   4.034  10.159 -0.6434 -0.0906 -1.0371
  144SAPE   C2415780   1.305   3.929  10.248  0.1508 -0.8635 -0.6140
  144SAPE   H4R15781   1.281   3.999  10.331  1.5041 -0.3983 -0.5914
  144SAPE   H4S15782   1.288   3.821  10.272  0.8992 -0.5305  1.6818
  144SAPE   C2515783   1.233   3.966  10.118  0.5161  0.1537 -0.3324
  144SAPE   H5R15784   1.301   4.014  10.045 -1.1812 -0.7022 -2.6054
  144SAPE   C2615785   1.106   3.933  10.078 -0.0149 -0.4913  0.1723
  144SAPE   H6R15786   1.084   3.959   9.974 -0.3793 -3.4128 -0.5785
  144SAPE   C2715787   0.995   3.859  10.150 -0.1328 -0.9059  0.2359
  144SAPE   H7R15788   0.911   3.931  10.164  1.1383  1.0556 -1.6788
  144SAPE   H7S15789   1.042   3.831  10.246  1.9061  1.1715 -0.0685
  144SAPE   C2815790   0.949   3.729  10.089 -0.1588  0.0116 -1.2246
  144SAPE   H8R15791   1.028   3.652  10.094 -0.0921  0.0520 -1.5713
  144SAPE   C2915792   0.833   3.701  10.020 -0.2923  0.2577 -0.3710
  144SAPE   H9R15793   0.815   3.596   9.993 -0.2458  0.3000 -0.5726
  144SAPE  C21015794   0.722   3.807   9.990 -0.1125  1.2855  0.3844
  144SAPE  H10R15795   0.729   3.844   9.885  1.2187 -1.0542 -0.4385
  144SAPE  H10S15796   0.735   3.901  10.048  0.3225  1.7465 -0.4457
  144SAPE  C21115797   0.587   3.744  10.014 -0.2655  0.6072 -0.0428
  144SAPE  H11R15798   0.596   3.637   9.988  1.0846  0.6500  0.1872
  144SAPE  C21215799   0.473   3.799  10.046  0.3090  0.5444  0.0145
  144SAPE  H12R15800   0.385   3.735  10.061 -0.4088  1.3276 -0.7208
  144SAPE  C21315801   0.449   3.944  10.077 -0.8196  0.0913  0.0487
  144SAPE  H13R15802   0.540   3.991  10.122 -2.5405  2.0607  1.6863
  144SAPE  H13S15803   0.375   3.939  10.160  0.0233 -3.1849  0.7139
  144SAPE  C21415804   0.417   4.036   9.963 -0.1334  0.4978  0.7749
  144SAPE  H14R15805   0.453   3.995   9.868 -2.7671 -2.9848  1.0927
  144SAPE  C21515806   0.341   4.147   9.957 -0.5057  0.4532  0.3067
  144SAPE  H15R15807   0.334   4.198   9.859  1.1551 -2.0542 -1.2444
  144SAPE  C21615808   0.265   4.210  10.067  0.4374  0.4012 -0.8979
  144SAPE  H16R15809   0.335   4.242  10.147 -0.2278  0.0823 -0.1776
  144SAPE  H16S15810   0.200   4.135  10.116  0.0487  1.5244  0.3644
  144SAPE  C21715811   0.166   4.317  10.009  0.0848  0.4736  0.2371
  144SAPE  H17R15812   0.098   4.344  10.092  0.3394  3.0335 -0.3050
  144SAPE  H17S15813   0.102   4.285   9.924  0.0050  1.1268  0.0448
  144SAPE  C21815814   0.235   4.446   9.953  0.9546  0.6894 -0.3941
  144SAPE  H18R15815   0.316   4.413   9.884  0.1005 -0.5562 -0.8388
  144SAPE  H18S15816   0.275   4.508  10.037 -0.0732  1.6542 -0.5987
  144SAPE  C21915817   0.130   4.534   9.879 -0.2643 -0.0820 -0.1736
  144SAPE  H19R15818   0.051   4.550   9.955  0.6956 -2.1648  1.3509
  144SAPE  H19S15819   0.070   4.479   9.803 -0.0038 -0.1016 -0.3689
  144SAPE  C22015820   0.197   4.658   9.824  0.2395  0.2416 -0.4750
  144SAPE  H20R15821   0.240   4.638   9.724 -0.0240 -0.3824 -0.4679
  144SAPE  H20S15822   0.282   4.705   9.878 -0.0440 -0.2423  0.4212
  144SAPE  H20T15823   0.122   4.732   9.792  0.3494 -0.5072 -2.5992
  144SAPE   C3315824   1.849   4.337   9.925  0.1933  0.2603  0.4146
  144SAPE   H3X15825   1.904   4.242   9.910 -0.3965 -0.5344  2.8023
  144SAPE   H3Y15826   1.919   4.422   9.941  0.5312 -0.0428  0.5390
  144SAPE   C3415827   1.761   4.356   9.802  0.4276 -0.2998 -0.6424
  144SAPE   H4X15828   1.687   4.427   9.845 -0.1436 -1.6067  0.5864
  144SAPE   H4Y15829   1.706   4.260   9.789  0.7178 -0.5642  0.0566
  144SAPE   C3515830   1.837   4.402   9.675  0.0968  0.0122 -0.5279
  144SAPE   H5X15831   1.918   4.330   9.651  1.4959  0.6489  1.9247
  144SAPE   H5Y15832   1.885   4.499   9.701 -2.3077  0.9403  0.8329
  144SAPE   C3615833   1.745   4.421   9.551 -0.4757 -0.1563  0.5623
  144SAPE   H6X15834   1.679   4.511   9.558  0.5448  0.5796  0.8577
  144SAPE   H6Y15835   1.677   4.332   9.548  1.6790 -1.8594 -0.2836
  144SAPE   C3715836   1.819   4.453   9.419  0.9745  0.8478 -0.5241
  144SAPE   H7X15837   1.895   4.373   9.404 -0.9229 -1.6374  1.9915
  144SAPE   H7Y15838   1.887   4.537   9.445  2.2438 -0.9711  2.5426
  144SAPE   C3815839   1.733   4.467   9.295  0.1736  0.3301 -0.2051
  144SAPE   H8X15840   1.665   4.554   9.306 -2.3010 -0.8395 -4.1253
  144SAPE   H8Y15841   1.670   4.375   9.296  2.5620 -1.3929  0.4162
  144SAPE   C3915842   1.809   4.474   9.171 -0.1119 -0.5192 -0.5679
  144SAPE   H9X15843   1.880   4.390   9.156  1.2120  0.4827 -0.0620
  144SAPE   H9Y15844   1.874   4.555   9.209  2.0506 -2.0757 -0.7906
  144SAPE  C31015845   1.726   4.505   9.042 -0.2440  0.1272  0.5043
  144SAPE  H10X15846   1.707   4.614   9.034  1.6012  0.4873  0.6282
  144SAPE  H10Y15847   1.630   4.451   9.029 -1.0605  1.2639  1.5897
  144SAPE  C31115848   1.804   4.474   8.911  0.0699 -0.4337 -0.3702
  144SAPE  H11X15849   1.855   4.377   8.928 -0.7722 -0.7104  0.6500
  144SAPE  H11Y15850   1.890   4.545   8.909 -2.7709  3.7122  3.5047
  144SAPE  C31215851   1.723   4.462   8.779 -0.3539 -0.4170 -0.1720
  144SAPE  H12X15852   1.649   4.546   8.775  0.4867  0.3421 -0.0925
  144SAPE  H12Y15853   1.668   4.366   8.783 -1.2083 -0.0003 -1.1259
  144SAPE  C31315854   1.817   4.465   8.657  0.3120 -0.6483  0.2120
  144SAPE  H13X15855   1.895   4.388   8.675 -0.1286 -1.2120 -0.2217
  144SAPE  H13Y15856   1.866   4.564   8.665  0.5510 -0.7041 -0.4720
  144SAPE  C31415857   1.749   4.453   8.524  0.2948 -0.6034 -0.1342
  144SAPE  H14X15858   1.807   4.509   8.448  1.4231 -1.0994  0.3404
  144SAPE  H14Y15859   1.644   4.487   8.538  0.7699  0.1058  2.0907
  144SAPE  C31515860   1.735   4.305   8.483  0.2487 -0.9136  0.5401
  144SAPE  H15X15861   1.668   4.262   8.561 -2.4238 -0.5966 -1.4248
  144SAPE  H15Y15862   1.830   4.248   8.491  1.7222  1.6126  2.3710
  144SAPE  C31615863   1.660   4.288   8.346  0.1389 -0.3680 -0.3407
  144SAPE  H16X15864   1.691   4.367   8.275  3.7877 -0.6826  0.6856
  144SAPE  H16Y15865   1.550   4.303   8.343  0.0988 -0.7601 -1.0802
  144SAPE  C31715866   1.698   4.160   8.274  0.5450  0.2493  0.7121
  144SAPE  H17X15867   1.805   4.141   8.250 -0.1531 -2.1980 -0.9148
  144SAPE  H17Y15868   1.652   4.174   8.174  0.5898  0.6357  0.7445
  144SAPE  C31815869   1.631   4.036   8.335  0.3669 -0.3981 -0.1842
  144SAPE  H18X15870   1.523   4.050   8.357  0.5243 -0.2069  0.4808
  144SAPE  H18Y15871   1.679   3.998   8.427  1.6566 -0.9465 -1.0434
  144SAPE  H18Z15872   1.643   3.960   8.255  0.7317  1.2685 -1.7856
  145SAPE     N15873   5.077   5.795  11.435  0.2108 -0.1942  0.2162
  145SAPE   HN115874   5.054   5.897  11.442  0.1483 -0.2019  0.1273
  145SAPE   HN215875   5.094   5.750  11.527 -1.8227  1.2760  1.3980
  145SAPE   HN315876   5.159   5.788  11.371 -0.3557  0.2788 -0.5797
  145SAPE   C1215877   4.965   5.718  11.376  0.5438  0.5280  0.2401
  145SAPE  H12A15878   4.958   5.735  11.267 -0.9869  2.8486  0.6080
  145SAPE  H12B15879   4.871   5.744  11.429  0.2325 -2.0847  1.1306
  145SAPE   C1115880   4.982   5.564  11.399  0.2872  0.3468 -0.4687
  145SAPE  H11A15881   4.901   5.499  11.358  0.8621 -1.2928  0.8657
  145SAPE  H11B15882   4.978   5.553  11.509  3.3856 -1.6013 -0.4390
  145SAPE     P15883   5.140   5.451  11.204  0.1534  0.3799 -0.0714
  145SAPE   O1315884   5.281   5.484  11.171  0.2145 -0.1211  0.0573
  145SAPE   O1415885   5.104   5.306  11.210 -0.4382  0.2632  0.0376
  145SAPE   O1215886   5.111   5.516  11.348  0.0489  0.4265 -0.5400
  145SAPE   O1115887   5.037   5.526  11.107 -0.2113 -0.1151  0.2177
  145SAPE    C115888   4.964   5.446  11.011  0.1296  0.4407  0.1336
  145SAPE    HA15889   4.925   5.354  11.059 -0.4903  1.4864  1.7260
  145SAPE    HB15890   4.881   5.511  10.976  0.7145 -0.1501 -2.5516
  145SAPE    C215891   5.030   5.424  10.868  1.1491  0.2406 -0.5410
  145SAPE    HS15892   4.950   5.386  10.800 -0.3513  0.7153  0.9011
  145SAPE   O2115893   5.133   5.335  10.865  0.2458  0.1776  0.6483
  145SAPE   C2115894   5.109   5.215  10.913 -1.1818 -0.0566 -0.1176
  145SAPE   O2215895   5.000   5.163  10.929 -1.0077  0.3285  0.0129
  145SAPE   C2215896   5.247   5.160  10.954 -0.0947  0.5970  0.0296
  145SAPE   H2R15897   5.328   5.231  10.927  0.7063 -0.3295 -0.0796
  145SAPE   H2S15898   5.260   5.151  11.064  3.3960 -1.1871 -0.3668
  145SAPE    C315899   5.080   5.558  10.815  0.0535  0.7132  0.7416
  145SAPE    HX15900   5.157   5.593  10.887 -0.3336 -0.3407  1.6988
  145SAPE    HY15901   5.001   5.635  10.802 -1.1942 -0.8173 -1.5498
  145SAPE   O3115902   5.144   5.539  10.687 -0.2778 -0.0989  0.5774
  145SAPE   C3115903   5.063   5.525  10.585  0.0680 -0.3671  0.1221
  145SAPE   O3215904   4.947   5.553  10.584  0.3478  0.1021  0.2857
  145SAPE   C3215905   5.135   5.453  10.476 -0.2312  0.9197  0.0944
  145SAPE   H2X15906   5.203   5.383  10.529 -2.1131 -0.2824  1.0431
  145SAPE   H2Y15907   5.197   5.524  10.418 -2.9968 -0.0693 -4.5426
  145SAPE   C2315908   5.266   5.023  10.886  0.3606 -0.1353 -0.3327
  145SAPE   H3R15909   5.177   4.962  10.911  0.7351  0.2079  2.0665
  145SAPE   H3S15910   5.355   4.969  10.925  1.8395  0.9496 -2.0518
  145SAPE   C2415911   5.292   5.044  10.734 -0.7010  0.0645  0.0568
  145SAPE   H4R15912   5.386   5.103  10.725 -0.9694  0.3283 -1.1729
  145SAPE   H4S15913   5.213   5.102  10.682  0.4634  0.7164 -1.0617
  145SAPE   C2515914   5.323   4.910  10.669 -0.8628  0.3476 -0.2731
  145SAPE   H5R15915   5.405   4.851  10.713 -1.8167 -0.0354  1.0629
  145SAPE   C2615916   5.240   4.860  10.575  0.1415  0.7950  0.2110
  145SAPE   H6R15917   5.250   4.756  10.540  0.3980 -0.7490  4.3421
  145SAPE   C2715918   5.121   4.921  10.509 -0.0081  0.0571  0.5918
  145SAPE   H7R15919   5.119   4.880  10.406  0.4786  1.1804  0.1212
  145SAPE   H7S15920   5.122   5.032  10.514 -0.3198  0.1187 -0.4006
  145SAPE   C2815921   4.988   4.885  10.572  0.8366  0.4354  0.5380
  145SAPE   H8R15922   4.969   4.905  10.678  0.7589  0.7408  0.4691
  145SAPE   C2915923   4.886   4.826  10.501 -0.7515 -0.5416 -0.3484
  145SAPE   H9R15924   4.790   4.813  10.554 -1.0962 -1.5058 -1.1867
  145SAPE  C21015925   4.874   4.800  10.354 -0.0322  0.3268  0.7029
  145SAPE  H10R15926   4.916   4.699  10.333 -2.2793 -0.6596  0.7353
  145SAPE  H10S15927   4.930   4.871  10.288  0.8280  0.8893  2.0042
  145SAPE  C21115928   4.735   4.812  10.303 -0.6603  0.1214 -0.0827
  145SAPE  H11R15929   4.652   4.826  10.374 -0.1304 -2.4192  1.1809
  145SAPE  C21215930   4.701   4.814  10.169  0.0944 -0.3944 -0.3537
  145SAPE  H12R15931   4.595   4.811  10.138  0.6935 -0.1773 -2.5569
  145SAPE  C21315932   4.794   4.802  10.048 -0.1239 -0.3010 -0.1478
  145SAPE  H13R15933   4.893   4.850  10.066  0.0427 -0.6338 -0.1846
  145SAPE  H13S15934   4.749   4.857   9.963 -1.0204  0.9406  1.0839
  145SAPE  C21415935   4.809   4.652  10.018 -0.0387 -0.1188 -0.7900
  145SAPE  H14R15936   4.771   4.593  10.103 -0.6527 -1.8239 -2.1941
  145SAPE  C21515937   4.864   4.596   9.908 -0.0863 -0.7677  0.0359
  145SAPE  H15R15938   4.877   4.487   9.911  0.2515 -0.7441  3.1685
  145SAPE  C21615939   4.919   4.661   9.782  0.0850  0.0115 -0.5357
  145SAPE  H16R15940   5.023   4.693   9.803 -0.5068  0.6883  1.6039
  145SAPE  H16S15941   4.862   4.755   9.764 -1.7888 -0.6483  1.4796
  145SAPE  C21715942   4.923   4.570   9.655 -1.0219  0.1948 -0.4892
  145SAPE  H17R15943   4.949   4.467   9.689  0.7597  0.4391 -1.0295
  145SAPE  H17S15944   5.006   4.616   9.597 -1.7015  2.6656  0.3823
  145SAPE  C21815945   4.787   4.574   9.577 -0.0345  0.4644 -0.1821
  145SAPE  H18R15946   4.763   4.681   9.564  2.1170  1.2850  1.8339
  145SAPE  H18S15947   4.710   4.524   9.640  0.6560 -2.1716 -1.2968
  145SAPE  C21915948   4.785   4.513   9.439 -0.3301  0.3904  0.0840
  145SAPE  H19R15949   4.831   4.412   9.429 -1.9016 -0.2146 -1.5581
  145SAPE  H19S15950   4.838   4.584   9.372 -2.3592 -0.5381 -2.6727
  145SAPE  C22015951   4.644   4.501   9.388  0.4580 -0.0457  0.3810
  145SAPE  H20R15952   4.622   4.429   9.306 -1.1395 -0.0067  0.7416
  145SAPE  H20S15953   4.611   4.602   9.357  1.6532 -0.3057 -1.8995
  145SAPE  H20T15954   4.580   4.460   9.470  2.0409 -0.4703  1.4593
  145SAPE   C3315955   5.045   5.382  10.375  0.3650  0.2475 -0.2726
  145SAPE   H3X15956   4.972   5.450  10.326 -0.1526  0.5099  0.8236
  145SAPE   H3Y15957   4.994   5.302  10.434 -2.5681  1.5296 -0.8926
  145SAPE   C3415958   5.125   5.324  10.260  0.3531 -0.1187 -0.2441
  145SAPE   H4X15959   5.179   5.232  10.292  0.5943 -0.5269 -1.7495
  145SAPE   H4Y15960   5.208   5.392  10.230 -0.3995  0.9017 -0.0703
  145SAPE   C3515961   5.044   5.295  10.134 -0.2404  0.1644  0.6719
  145SAPE   H5X15962   5.032   5.388  10.075  0.6399 -1.6564 -2.6226
  145SAPE   H5Y15963   4.945   5.245  10.146 -0.2655 -0.6831 -2.1903
  145SAPE   C3615964   5.114   5.188  10.032 -0.0332 -0.1131 -0.3068
  145SAPE   H6X15965   5.129   5.098  10.095  1.5075  1.1687  1.2797
  145SAPE   H6Y15966   5.218   5.222  10.009  0.4162 -0.0640  1.6146
  145SAPE   C3715967   5.021   5.163   9.912 -0.4990 -0.3046 -0.1438
  145SAPE   H7X15968   5.010   5.263   9.864 -0.7747 -0.6024 -0.7084
  145SAPE   H7Y15969   4.919   5.138   9.951  0.5036 -0.4093  2.6765
  145SAPE   C3815970   5.073   5.063   9.820  0.2353  0.4389 -0.2331
  145SAPE   H8X15971   5.094   4.960   9.855 -0.0501 -0.2031 -1.8648
  145SAPE   H8Y15972   5.175   5.102   9.800  0.4172 -0.3684 -0.9301
  145SAPE   C3915973   4.983   5.045   9.702 -0.7121  0.1184  0.5462
  145SAPE   H9X15974   4.945   5.139   9.657 -1.9812 -0.5214  0.2222
  145SAPE   H9Y15975   4.902   4.979   9.741 -0.5249 -0.9892 -0.8609
  145SAPE  C31015976   5.044   4.961   9.582 -1.2016  0.1534 -0.1577
  145SAPE  H10X15977   5.081   4.864   9.622  1.8170  1.0638 -0.4738
  145SAPE  H10Y15978   5.134   5.019   9.551 -2.8480  2.3485 -1.0673
  145SAPE  C31115979   4.947   4.937   9.468  0.0768  0.0362 -0.2042
  145SAPE  H11X15980   4.895   5.032   9.444  2.7219  1.9996  1.2883
  145SAPE  H11Y15981   4.862   4.877   9.507 -0.7819  0.3701 -1.4827
  145SAPE  C31215982   5.030   4.882   9.349  0.0190  0.1616 -0.0149
  145SAPE  H12X15983   5.095   4.798   9.383 -0.5807 -0.3940 -0.2032
  145SAPE  H12Y15984   5.088   4.971   9.317  2.6242 -1.5406 -0.3613
  145SAPE  C31315985   4.936   4.833   9.241  0.4957  0.5461 -0.4098
  145SAPE  H13X15986   4.884   4.745   9.285  0.5717  1.1402  0.9090
  145SAPE  H13Y15987   5.006   4.789   9.166  0.6250 -1.2526  0.7064
  145SAPE  C31415988   4.834   4.931   9.184  0.2788  0.0773 -0.0758
  145SAPE  H14X15989   4.877   5.016   9.126  0.6797  0.2165  0.4212
  145SAPE  H14Y15990   4.759   4.962   9.259 -0.6816 -0.1555 -0.9107
  145SAPE  C31515991   4.749   4.860   9.078 -0.4023  0.6740  0.3926
  145SAPE  H15X15992   4.688   4.784   9.130 -3.1273 -0.4189 -3.8923
  145SAPE  H15Y15993   4.803   4.816   8.991 -0.4498 -0.2893  0.8438
  145SAPE  C31615994   4.647   4.956   9.013 -0.8573  0.1777  0.3541
  145SAPE  H16X15995   4.704   5.039   8.968 -0.2548 -1.3862 -1.9500
  145SAPE  H16Y15996   4.586   5.000   9.095 -0.6432  0.6244  0.2730
  145SAPE  C31715997   4.557   4.889   8.914  0.9037  0.3705  0.0185
  145SAPE  H17X15998   4.616   4.848   8.829 -0.4493  0.5964 -1.0657
  145SAPE  H17Y15999   4.491   4.974   8.887  1.1596  0.1199 -1.4732
  145SAPE  C31816000   4.458   4.784   8.984 -0.6082 -0.4300  0.5041
  145SAPE  H18X16001   4.399   4.715   8.921 -0.0194 -0.7722  0.3140
  145SAPE  H18Y16002   4.394   4.833   9.060 -0.8138 -2.3217  1.6227
  145SAPE  H18Z16003   4.522   4.708   9.035 -0.7555 -1.1807 -0.3944
  146SAPE     N16004   3.397   5.382  11.116  0.5354 -0.2011  0.8238
  146SAPE   HN116005   3.390   5.279  11.120  1.7679 -0.3485 -0.1467
  146SAPE   HN216006   3.477   5.403  11.179  1.6452 -1.8530  0.0259
  146SAPE   HN316007   3.322   5.424  11.175  0.3636  0.0186  0.4492
  146SAPE   C1216008   3.411   5.431  10.980 -0.2297  0.7915  0.1273
  146SAPE  H12A16009   3.459   5.347  10.926  1.8259  2.5168 -0.8670
  146SAPE  H12B16010   3.483   5.515  10.978  0.1528  0.4633  0.1399
  146SAPE   C1116011   3.271   5.454  10.922 -0.2615 -0.6494 -0.0423
  146SAPE  H11A16012   3.220   5.356  10.918 -1.6522  0.0695 -0.2590
  146SAPE  H11B16013   3.284   5.476  10.814  1.7468 -0.7299  0.1300
  146SAPE     P16014   3.211   5.708  10.947  0.3732  0.0020  0.2443
  146SAPE   O1316015   3.094   5.786  10.984  0.6995  0.1027 -0.5485
  146SAPE   O1416016   3.340   5.749  10.997  0.2532 -0.6051  0.1246
  146SAPE   O1216017   3.199   5.551  10.993  0.9903 -0.1620 -0.2087
  146SAPE   O1116018   3.234   5.704  10.791  0.7152  0.6715  0.4766
  146SAPE    C116019   3.308   5.802  10.718 -0.1991 -0.6678 -0.3825
  146SAPE    HA16020   3.272   5.905  10.734  0.6756 -0.0667 -2.0648
  146SAPE    HB16021   3.412   5.807  10.757 -1.4061 -0.4238  3.1561
  146SAPE    C216022   3.299   5.780  10.563  0.0108 -0.1304 -1.3715
  146SAPE    HS16023   3.359   5.866  10.524 -0.1136  0.5404 -0.1300
  146SAPE   O2116024   3.160   5.780  10.516 -0.4324  0.1197  0.6787
  146SAPE   C2116025   3.106   5.898  10.512 -0.9742 -0.0157  0.4039
  146SAPE   O2216026   3.153   6.000  10.565  0.3063  0.3812  0.1990
  146SAPE   C2216027   2.985   5.900  10.416 -1.1262  0.5108 -0.1372
  146SAPE   H2R16028   3.030   5.901  10.314  0.2641 -0.0583  0.4355
  146SAPE   H2S16029   2.922   5.809  10.430 -0.9394  0.3677 -0.2238
  146SAPE    C316030   3.365   5.643  10.524 -0.5034 -0.6255  0.9452
  146SAPE    HX16031   3.310   5.565  10.581 -1.8322  1.3733  2.5493
  146SAPE    HY16032   3.468   5.645  10.565  0.6116 -0.2861 -1.6557
  146SAPE   O3116033   3.363   5.618  10.381 -0.3347 -0.3360  0.2485
  146SAPE   C3116034   3.465   5.651  10.311  0.0123  0.2927  0.2141
  146SAPE   O3216035   3.566   5.699  10.354 -0.7895 -0.4917  0.2708
  146SAPE   C3216036   3.440   5.622  10.165 -0.0228  0.7963  0.6860
  146SAPE   H2X16037   3.391   5.707  10.114 -2.6596 -1.0418 -0.0498
  146SAPE   H2Y16038   3.378   5.531  10.152  1.8301 -0.4740  0.2635
  146SAPE   C2316039   2.909   6.033  10.418 -0.5566 -0.7486 -0.6762
  146SAPE   H3R16040   2.893   6.071  10.521  2.9406 -0.3190 -0.1500
  146SAPE   H3S16041   2.805   6.014  10.385 -0.5190 -0.8257 -0.7522
  146SAPE   C2416042   2.974   6.143  10.342  0.0678  0.0100  0.2188
  146SAPE   H4R16043   3.085   6.147  10.343  0.1925 -2.2472  0.5098
  146SAPE   H4S16044   2.925   6.241  10.364  0.8824  0.6385 -0.6456
  146SAPE   C2516045   2.945   6.125  10.198 -0.1431  0.1145 -0.2321
  146SAPE   H5R16046   2.903   6.026  10.173  1.8172 -0.5757 -0.9297
  146SAPE   C2616047   2.953   6.213  10.102  0.9825 -0.2159 -0.8211
  146SAPE   H6R16048   2.903   6.201  10.005 -1.8130 -1.3496  0.6323
  146SAPE   C2716049   3.017   6.352  10.110 -0.2584  0.4245  0.8044
  146SAPE   H7R16050   2.949   6.407  10.177 -1.4503 -1.0248  0.8343
  146SAPE   H7S16051   2.993   6.401  10.013 -0.5163 -0.3824  0.4562
  146SAPE   C2816052   3.164   6.363  10.147 -0.2904 -0.2049 -1.0429
  146SAPE   H8R16053   3.191   6.407  10.243 -0.5349  1.1527 -1.5758
  146SAPE   C2916054   3.259   6.339  10.062 -0.1588 -0.2126 -0.2859
  146SAPE   H9R16055   3.361   6.348  10.103 -0.0542 -1.1981 -0.3063
  146SAPE  C21016056   3.244   6.295   9.920 -0.6823 -0.3330  0.3819
  146SAPE  H10R16057   3.157   6.230   9.897 -0.4002  0.0741 -2.1426
  146SAPE  H10S16058   3.314   6.212   9.898 -0.3249  0.5801 -2.3091
  146SAPE  C21116059   3.264   6.403   9.820 -0.3422 -0.6493  1.2674
  146SAPE  H11R16060   3.298   6.505   9.844 -2.6554  0.1287  1.5430
  146SAPE  C21216061   3.254   6.372   9.688  0.2622 -0.9573 -0.4657
  146SAPE  H12R16062   3.277   6.448   9.612 -0.8417  1.4370  1.4451
  146SAPE  C21316063   3.208   6.237   9.636 -0.2234 -0.3036 -0.6491
  146SAPE  H13R16064   3.108   6.245   9.590 -0.4395 -0.2606 -0.1740
  146SAPE  H13S16065   3.197   6.159   9.715 -3.1490  0.6130 -0.0611
  146SAPE  C21416066   3.301   6.184   9.537  0.6430  0.3300 -0.3249
  146SAPE  H14R16067   3.356   6.103   9.587  0.0549 -0.3240 -0.7140
  146SAPE  C21516068   3.317   6.212   9.402  0.6291  0.2657 -0.2579
  146SAPE  H15R16069   3.405   6.166   9.355  1.2739  0.1047  1.0607
  146SAPE  C21616070   3.240   6.323   9.325  0.1191  0.2860  0.6217
  146SAPE  H16R16071   3.303   6.414   9.324  0.9538 -0.2556 -1.5136
  146SAPE  H16S16072   3.146   6.348   9.380 -1.4410 -2.1403 -0.7491
  146SAPE  C21716073   3.194   6.305   9.179 -0.2067 -0.6369  0.9429
  146SAPE  H17R16074   3.282   6.279   9.117 -1.0348  1.0326 -1.0618
  146SAPE  H17S16075   3.152   6.404   9.148  0.0413 -1.1333 -1.1172
  146SAPE  C21816076   3.091   6.189   9.162 -0.0806  0.4306  0.5733
  146SAPE  H18R16077   3.011   6.208   9.237 -0.0230 -0.1250  0.7812
  146SAPE  H18S16078   3.146   6.094   9.180  2.0910  1.6135  0.4784
  146SAPE  C21916079   3.024   6.201   9.025  0.1711 -0.0586  0.1824
  146SAPE  H19R16080   2.994   6.305   9.000 -0.6224  0.0153  1.3856
  146SAPE  H19S16081   2.928   6.148   9.011 -0.5212  1.4427 -1.0449
  146SAPE  C22016082   3.120   6.154   8.913 -0.2838  0.1397 -1.0802
  146SAPE  H20R16083   3.111   6.210   8.817 -0.4639 -0.6474 -1.5347
  146SAPE  H20S16084   3.104   6.045   8.901  0.9080 -0.1543 -0.1494
  146SAPE  H20T16085   3.225   6.180   8.939 -1.0668  1.3748  1.0801
  146SAPE   C3316086   3.571   5.585  10.087 -0.0409  0.1498  0.7391
  146SAPE   H3X16087   3.596   5.477  10.098  0.3711 -0.0029 -1.2640
  146SAPE   H3Y16088   3.664   5.637  10.118 -0.0904 -0.4089  1.8928
  146SAPE   C3416089   3.570   5.606   9.932 -0.1950 -0.3505  0.1894
  146SAPE   H4X16090   3.675   5.610   9.895  0.5789  0.0144  2.2826
  146SAPE   H4Y16091   3.518   5.702   9.913  0.0147 -0.4655 -1.0534
  146SAPE   C3516092   3.484   5.497   9.860  0.0356 -0.4969  0.9092
  146SAPE   H5X16093   3.380   5.511   9.894 -0.4055 -0.3843 -0.4197
  146SAPE   H5Y16094   3.525   5.395   9.873  1.8234 -0.4522 -2.8812
  146SAPE   C3616095   3.476   5.513   9.707 -0.8812  0.4285 -0.1765
  146SAPE   H6X16096   3.581   5.504   9.673 -1.6984  1.7720 -3.4581
  146SAPE   H6Y16097   3.432   5.611   9.681 -0.1487  0.6470 -0.6176
  146SAPE   C3716098   3.410   5.395   9.637 -0.0336 -0.4459 -0.5499
  146SAPE   H7X16099   3.301   5.401   9.659 -0.2318  2.2091 -1.8546
  146SAPE   H7Y16100   3.442   5.297   9.679 -2.0568 -1.3094 -0.8795
  146SAPE   C3816101   3.437   5.383   9.482  0.5037  0.3730  0.1194
  146SAPE   H8X16102   3.411   5.482   9.438 -2.0745  0.4336  1.5626
  146SAPE   H8Y16103   3.372   5.298   9.455 -1.9226  2.4879 -1.2002
  146SAPE   C3916104   3.584   5.364   9.447 -0.5936  0.3258 -0.3809
  146SAPE   H9X16105   3.630   5.272   9.490 -1.7728  0.3488  0.9867
  146SAPE   H9Y16106   3.648   5.449   9.481  0.7671 -0.0648 -1.8607
  146SAPE  C31016107   3.608   5.353   9.290  0.1567  0.3602 -1.1259
  146SAPE  H10X16108   3.597   5.454   9.246  2.1509  0.7164 -0.8909
  146SAPE  H10Y16109   3.530   5.285   9.249 -1.7469  1.8719 -0.1707
  146SAPE  C31116110   3.748   5.306   9.240  0.4159  1.0173 -0.2297
  146SAPE  H11X16111   3.762   5.201   9.275 -0.0711  1.3072  0.8568
  146SAPE  H11Y16112   3.826   5.358   9.300 -0.4412  0.5397  1.3792
  146SAPE  C31216113   3.769   5.287   9.094 -0.1593 -0.1343 -0.2773
  146SAPE  H12X16114   3.682   5.235   9.048  0.1222 -1.3465  0.5162
  146SAPE  H12Y16115   3.854   5.216   9.091 -0.0576  0.0190 -2.2387
  146SAPE  C31316116   3.791   5.415   9.007  0.7066  0.5813  0.4316
  146SAPE  H13X16117   3.885   5.465   9.039  2.5608 -2.1645 -0.3577
  146SAPE  H13Y16118   3.708   5.483   9.033 -0.1220 -0.7365  1.3944
  146SAPE  C31416119   3.821   5.382   8.859 -0.3205  0.2419 -0.4103
  146SAPE  H14X16120   3.881   5.288   8.861 -1.7708 -0.7691 -1.8891
  146SAPE  H14Y16121   3.886   5.462   8.818  0.3541  0.1280  0.4087
  146SAPE  C31516122   3.704   5.350   8.761  0.9211  0.1024  0.2205
  146SAPE  H15X16123   3.618   5.417   8.784  0.4616 -0.5160  0.3238
  146SAPE  H15Y16124   3.662   5.247   8.764  2.7778 -0.6979  0.0814
  146SAPE  C31616125   3.738   5.389   8.620  0.1191 -0.1478  0.3126
  146SAPE  H16X16126   3.831   5.335   8.593  0.4773  0.4285  0.3877
  146SAPE  H16Y16127   3.759   5.497   8.617  0.1896 -0.1431  0.8090
  146SAPE  C31716128   3.634   5.354   8.518 -0.2973 -0.5583  0.0968
  146SAPE  H17X16129   3.550   5.426   8.516 -0.4567 -0.7380 -1.5091
  146SAPE  H17Y16130   3.595   5.251   8.532  3.6524 -2.1690  0.6613
  146SAPE  C31816131   3.683   5.359   8.376 -0.7356  0.5834  0.2950
  146SAPE  H18X16132   3.606   5.329   8.301  2.8096  1.5880 -4.1944
  146SAPE  H18Y16133   3.753   5.274   8.358 -1.0400  0.3338  0.2831
  146SAPE  H18Z16134   3.726   5.459   8.351 -1.9929  1.3103  0.9570
  147SAPE     N16135   4.027   3.753   6.257  0.3024 -0.1983  0.0442
  147SAPE   HN116136   4.006   3.651   6.250  0.8065 -0.3625  0.7991
  147SAPE   HN216137   3.972   3.789   6.177 -3.2320  1.4472  2.9248
  147SAPE   HN316138   4.130   3.757   6.238 -0.3619  1.4297 -4.2379
  147SAPE   C1216139   3.958   3.805   6.381  0.0986 -0.4344 -0.2776
  147SAPE  H12A16140   3.965   3.915   6.389 -0.5610 -0.4150  0.1063
  147SAPE  H12B16141   4.009   3.762   6.470 -1.2125 -0.6168  0.4104
  147SAPE   C1116142   3.813   3.755   6.391 -0.2134  0.2537 -0.1501
  147SAPE  H11A16143   3.780   3.794   6.489  0.8127 -0.0827  0.3401
  147SAPE  H11B16144   3.818   3.644   6.404 -1.0300  0.0349 -1.5613
  147SAPE     P16145   3.661   3.935   6.282  0.2297  0.1224 -0.1652
  147SAPE   O1316146   3.769   4.031   6.260 -0.0158  0.5898 -0.5213
  147SAPE   O1416147   3.551   3.938   6.183  0.0465 -0.2603  0.2658
  147SAPE   O1216148   3.724   3.787   6.284 -0.1142  0.0395  0.3672
  147SAPE   O1116149   3.601   3.952   6.430  0.2054 -0.4499  0.3659
  147SAPE    C116150   3.466   4.003   6.445 -0.4392 -0.6703 -0.0325
  147SAPE    HA16151   3.474   4.114   6.448 -1.4218 -0.5690 -0.8350
  147SAPE    HB16152   3.401   3.985   6.357 -1.8125  1.4869  0.4588
  147SAPE    C216153   3.390   3.946   6.567  0.8645 -0.5678 -0.3933
  147SAPE    HS16154   3.285   3.977   6.546  1.0305 -0.8773 -1.8113
  147SAPE   O2116155   3.440   3.996   6.691 -0.0120 -0.4973  0.6644
  147SAPE   C2116156   3.352   4.014   6.792 -0.0729 -0.0005  0.0205
  147SAPE   O2216157   3.232   4.022   6.786  0.0310 -0.0615  0.2033
  147SAPE   C2216158   3.427   4.031   6.926  1.7796  0.4628 -0.5459
  147SAPE   H2R16159   3.471   3.934   6.959  0.4507  0.4094  1.1860
  147SAPE   H2S16160   3.514   4.099   6.915  1.5011  0.7292 -1.1199
  147SAPE    C316161   3.384   3.786   6.560 -0.1473  0.4488  0.0241
  147SAPE    HX16162   3.492   3.758   6.565  0.2322  1.8514 -0.0264
  147SAPE    HY16163   3.334   3.761   6.464  0.5275  2.3329 -0.8555
  147SAPE   O3116164   3.322   3.725   6.675 -0.0071 -0.0656  0.5101
  147SAPE   C3116165   3.187   3.704   6.667 -0.4499  0.5134 -0.2918
  147SAPE   O3216166   3.110   3.732   6.580  0.2632  0.3356 -0.3994
  147SAPE   C3216167   3.144   3.616   6.788  0.1080 -0.0232 -0.0418
  147SAPE   H2X16168   3.229   3.550   6.813  1.2336  1.3392 -0.1662
  147SAPE   H2Y16169   3.058   3.558   6.749  0.6160  1.0041 -2.9060
  147SAPE   C2316170   3.328   4.100   7.032 -0.1027  0.5018  0.9631
  147SAPE   H3R16171   3.240   4.034   7.046 -0.1424  0.3179 -0.0864
  147SAPE   H3S16172   3.289   4.198   6.997  1.5765  1.5509  1.9029
  147SAPE   C2416173   3.411   4.124   7.161  0.8366  0.5346 -0.0945
  147SAPE   H4R16174   3.488   4.204   7.151  0.2435  1.0519 -0.6755
  147SAPE   H4S16175   3.468   4.035   7.193  0.2369  0.9204  2.2327
  147SAPE   C2516176   3.316   4.178   7.267 -0.3976 -0.2197 -0.3738
  147SAPE   H5R16177   3.263   4.269   7.236 -1.0600 -0.2101  0.7185
  147SAPE   C2616178   3.287   4.125   7.390 -0.2299 -0.0665 -1.1555
  147SAPE   H6R16179   3.206   4.164   7.452 -0.0709 -0.9112 -0.4028
  147SAPE   C2716180   3.342   3.999   7.448  0.0387 -0.1597  0.5217
  147SAPE   H7R16181   3.380   3.946   7.358 -0.2103  1.8199 -0.8207
  147SAPE   H7S16182   3.260   3.939   7.492 -0.5244  0.1825 -0.0372
  147SAPE   C2816183   3.450   4.038   7.545 -0.5455  0.1040  0.5009
  147SAPE   H8R16184   3.548   4.051   7.496  0.9619 -0.4176  3.1629
  147SAPE   C2916185   3.456   4.054   7.679  0.5869 -0.5936 -0.5184
  147SAPE   H9R16186   3.544   4.090   7.734 -0.8901 -0.0531  1.6066
  147SAPE  C21016187   3.336   4.036   7.770  0.8533 -0.0374  0.6317
  147SAPE  H10R16188   3.370   4.017   7.875 -0.7686 -1.3920  0.9498
  147SAPE  H10S16189   3.281   3.943   7.747 -0.4625  0.7895  0.3204
  147SAPE  C21116190   3.237   4.157   7.776 -0.7840  0.8341  0.1607
  147SAPE  H11R16191   3.287   4.244   7.822 -0.9228  1.5686 -1.0266
  147SAPE  C21216192   3.112   4.159   7.731  0.2059 -0.2623  0.4622
  147SAPE  H12R16193   3.058   4.254   7.738 -0.1254 -0.3500 -0.6755
  147SAPE  C21316194   3.027   4.046   7.667  0.1731  0.4178  0.2803
  147SAPE  H13R16195   3.022   3.952   7.726 -2.5547  0.1587 -0.2057
  147SAPE  H13S16196   3.077   4.010   7.575 -1.7051 -2.2748  0.1892
  147SAPE  C21416197   2.881   4.083   7.658  0.7932  0.4386  0.6595
  147SAPE  H14R16198   2.837   4.123   7.750  0.3366 -0.3993  0.8176
  147SAPE  C21516199   2.811   4.075   7.543 -0.1973 -0.3411  0.5435
  147SAPE  H15R16200   2.707   4.111   7.540 -0.2421 -0.5538 -0.6628
  147SAPE  C21616201   2.856   4.037   7.403  0.4238 -0.0649 -0.5963
  147SAPE  H16R16202   2.791   3.956   7.363  2.1908 -0.8186 -2.0861
  147SAPE  H16S16203   2.961   4.004   7.384  1.0466  1.4363  0.1036
  147SAPE  C21716204   2.836   4.157   7.310  0.0854  0.2654 -0.1157
  147SAPE  H17R16205   2.902   4.241   7.342  1.5835 -0.9646  0.1551
  147SAPE  H17S16206   2.731   4.192   7.318  0.7969  2.8999 -1.2794
  147SAPE  C21816207   2.865   4.121   7.164  0.5086 -0.0344  0.5883
  147SAPE  H18R16208   2.781   4.054   7.135  0.7191  0.3297 -0.9918
  147SAPE  H18S16209   2.963   4.070   7.151 -0.0149 -1.4702  1.9374
  147SAPE  C21916210   2.859   4.247   7.074  0.2877  0.2442  0.6984
  147SAPE  H19R16211   2.772   4.312   7.098 -0.1722  1.0295 -2.5893
  147SAPE  H19S16212   2.851   4.212   6.969 -1.1483 -0.1189  0.9050
  147SAPE  C22016213   2.984   4.337   7.085 -0.4584  0.2576  0.8598
  147SAPE  H20R16214   3.085   4.295   7.063 -0.3514  1.8304 -2.2503
  147SAPE  H20S16215   2.981   4.392   7.181  0.6750  0.0702  1.0151
  147SAPE  H20T16216   2.979   4.422   7.013 -1.7961 -0.0621  0.5546
  147SAPE   C3316217   3.098   3.708   6.899  0.1506 -1.0613 -1.3511
  147SAPE   H3X16218   3.004   3.765   6.878  1.1162  1.8130  1.2584
  147SAPE   H3Y16219   3.176   3.782   6.928 -3.3819  2.5398  0.0075
  147SAPE   C3416220   3.072   3.634   7.034 -0.0399 -0.5912 -0.4606
  147SAPE   H4X16221   3.162   3.574   7.057  0.4573  0.3688  0.1560
  147SAPE   H4Y16222   2.988   3.561   7.021 -1.0453  0.6992 -1.5044
  147SAPE   C3516223   3.043   3.728   7.151  0.4634  0.0572 -0.7311
  147SAPE   H5X16224   2.962   3.793   7.112 -0.5623  0.0611  1.2615
  147SAPE   H5Y16225   3.126   3.793   7.187  0.9618 -0.9286 -0.0638
  147SAPE   C3616226   2.986   3.653   7.277  0.1211  0.3493 -0.8339
  147SAPE   H6X16227   2.932   3.561   7.247  0.3867  0.0506 -0.3976
  147SAPE   H6Y16228   2.920   3.718   7.339  1.8954  0.3461  1.1621
  147SAPE   C3716229   3.097   3.608   7.365 -0.6752  0.5204  0.3044
  147SAPE   H7X16230   3.155   3.692   7.410 -0.6341 -1.1471  3.7333
  147SAPE   H7Y16231   3.166   3.552   7.299 -0.0714 -0.3124  1.6017
  147SAPE   C3816232   3.043   3.519   7.477  0.6005  0.4764  0.9447
  147SAPE   H8X16233   2.960   3.466   7.427 -1.8217  3.9561  0.8632
  147SAPE   H8Y16234   3.007   3.571   7.569 -0.1386 -2.5153  2.4697
  147SAPE   C3916235   3.149   3.425   7.538 -0.5659  0.0106  0.2651
  147SAPE   H9X16236   3.214   3.493   7.597  0.1102 -1.2412  0.9975
  147SAPE   H9Y16237   3.212   3.374   7.462 -2.3799 -0.9824 -0.6531
  147SAPE  C31016238   3.082   3.313   7.617  0.3407 -0.0101  0.1476
  147SAPE  H10X16239   3.025   3.256   7.540  1.4390 -0.3422 -0.4431
  147SAPE  H10Y16240   3.016   3.374   7.682  2.0056  0.8494  1.0968
  147SAPE  C31116241   3.189   3.226   7.689  0.2880  0.5221  0.0732
  147SAPE  H11X16242   3.294   3.260   7.677  0.2265  0.2141 -1.6259
  147SAPE  H11Y16243   3.182   3.127   7.638  2.2788  0.4687 -0.1849
  147SAPE  C31216244   3.157   3.195   7.840  0.2428  0.1449  0.1772
  147SAPE  H12X16245   3.053   3.159   7.851 -0.2863  2.0197  1.7984
  147SAPE  H12Y16246   3.153   3.293   7.892  1.2696  0.2876  0.0268
  147SAPE  C31316247   3.267   3.120   7.918 -0.2262 -0.1401  0.1749
  147SAPE  H13X16248   3.342   3.192   7.955  2.0667 -2.4376  0.2721
  147SAPE  H13Y16249   3.319   3.056   7.843  1.3146  2.0274 -0.6919
  147SAPE  C31416250   3.202   3.032   8.029  0.7966  0.2098 -0.1121
  147SAPE  H14X16251   3.133   3.082   8.101 -0.9128 -2.2569  0.0560
  147SAPE  H14Y16252   3.288   2.979   8.074  0.2989 -1.3065 -0.9005
  147SAPE  C31516253   3.117   2.915   7.980 -0.1842 -0.0849 -0.2104
  147SAPE  H15X16254   3.194   2.845   7.943 -1.0671 -1.1187 -0.1216
  147SAPE  H15Y16255   3.054   2.947   7.895 -2.5994 -1.7990  0.8095
  147SAPE  C31616256   3.043   2.844   8.094  0.3448 -0.0378 -0.4311
  147SAPE  H16X16257   2.968   2.910   8.143  0.1388 -1.0671  0.6969
  147SAPE  H16Y16258   3.125   2.823   8.165  1.1236  0.6565 -1.0994
  147SAPE  C31716259   2.990   2.711   8.048  0.1140  0.1352  0.2443
  147SAPE  H17X16260   2.928   2.668   8.129 -0.3364  1.7523  0.7995
  147SAPE  H17Y16261   3.072   2.642   8.019 -2.1019 -1.9660 -1.3212
  147SAPE  C31816262   2.897   2.723   7.927  0.2370  0.5305 -0.0732
  147SAPE  H18X16263   2.842   2.627   7.915 -1.2317  1.4312 -0.8609
  147SAPE  H18Y16264   2.950   2.749   7.832  0.4771  2.0824  0.4556
  147SAPE  H18Z16265   2.820   2.798   7.953  0.2522  0.2789  0.7238
  148SAPE     N16266   0.375   1.210   6.394  0.1876 -0.2268  0.2210
  148SAPE   HN116267   0.474   1.238   6.378  0.7386 -0.7498  2.4194
  148SAPE   HN216268   0.360   1.114   6.358 -1.7767 -0.7686  2.2976
  148SAPE   HN316269   0.310   1.270   6.339  0.6039 -0.7964 -0.9338
  148SAPE   C1216270   0.349   1.212   6.538  0.0154  0.5006  0.0610
  148SAPE  H12A16271   0.247   1.254   6.555 -1.0284 -2.1541  0.8165
  148SAPE  H12B16272   0.424   1.277   6.589  2.6231 -1.0229 -1.5990
  148SAPE   C1116273   0.370   1.072   6.597 -0.9106 -0.1911 -0.2169
  148SAPE  H11A16274   0.295   1.001   6.558 -2.1986 -0.1707  2.0534
  148SAPE  H11B16275   0.354   1.079   6.706  1.2736  0.5075  0.1255
  148SAPE     P16276   0.565   0.892   6.608  0.1036 -0.1732  0.0595
  148SAPE   O1316277   0.458   0.794   6.625 -0.3611  0.1705  0.3615
  148SAPE   O1416278   0.665   0.871   6.503 -0.5150  0.1717  0.2179
  148SAPE   O1216279   0.502   1.033   6.578  0.1015 -0.4113  0.5258
  148SAPE   O1116280   0.638   0.911   6.747 -0.1904 -0.2742 -0.2210
  148SAPE    C116281   0.715   1.035   6.766  0.3939  0.0163 -0.0001
  148SAPE    HA16282   0.824   1.015   6.756  0.3469 -0.7677  0.9310
  148SAPE    HB16283   0.698   1.110   6.686  0.3886  1.6378  1.4616
  148SAPE    C216284   0.683   1.088   6.903 -1.0663  0.1674  0.3649
  148SAPE    HS16285   0.745   1.180   6.913 -2.2897  1.1967 -1.1873
  148SAPE   O2116286   0.707   0.987   7.006 -0.3196 -0.4131  0.4131
  148SAPE   C2116287   0.835   0.957   7.010  0.1358 -0.7451 -0.7105
  148SAPE   O2216288   0.932   1.001   6.951 -0.0027 -0.1630  0.1157
  148SAPE   C2216289   0.859   0.865   7.131  0.2765 -0.6111  0.3988
  148SAPE   H2R16290   0.833   0.928   7.219  2.2400  2.0707 -0.7954
  148SAPE   H2S16291   0.793   0.776   7.139 -1.9347  0.8859 -0.2482
  148SAPE    C316292   0.539   1.144   6.915  0.4901  0.3716 -0.4637
  148SAPE    HX16293   0.471   1.057   6.906  0.7338 -0.0320  1.2857
  148SAPE    HY16294   0.514   1.223   6.841 -1.1898 -0.1786 -0.5354
  148SAPE   O3116295   0.517   1.194   7.051 -0.4454 -0.4557  0.9088
  148SAPE   C3116296   0.544   1.323   7.066  0.5010  0.0073  0.4928
  148SAPE   O3216297   0.583   1.403   6.982 -0.0827 -0.1029 -0.3719
  148SAPE   C3216298   0.513   1.361   7.216  0.3016  0.2866  0.6632
  148SAPE   H2X16299   0.604   1.313   7.260  0.9212 -1.0830 -1.9291
  148SAPE   H2Y16300   0.419   1.309   7.242  0.2684 -0.6917 -1.2644
  148SAPE   C2316301   0.999   0.801   7.134 -0.2361 -0.2897 -0.0501
  148SAPE   H3R16302   1.076   0.854   7.073  2.1700 -0.0984  2.8951
  148SAPE   H3S16303   0.993   0.697   7.095  0.9293 -0.2131 -0.4767
  148SAPE   C2416304   1.060   0.814   7.278  0.1328 -0.5872  0.3352
  148SAPE   H4R16305   1.158   0.760   7.282  0.3606 -0.2196 -0.1241
  148SAPE   H4S16306   0.996   0.758   7.349 -1.0002 -2.1231 -1.7809
  148SAPE   C2516307   1.085   0.957   7.332 -0.0616 -0.2220  1.0352
  148SAPE   H5R16308   1.117   1.025   7.252 -3.1351  0.5882  0.3446
  148SAPE   C2616309   1.070   0.996   7.463 -0.1109 -0.7549 -0.3364
  148SAPE   H6R16310   1.110   1.094   7.493 -0.3500 -0.8343  0.2533
  148SAPE   C2716311   1.028   0.911   7.580 -0.8710 -0.5330  1.3059
  148SAPE   H7R16312   1.033   0.804   7.550 -5.3398 -0.1474 -1.6708
  148SAPE   H7S16313   0.919   0.930   7.588 -1.0920  0.3729 -2.2172
  148SAPE   C2816314   1.097   0.920   7.716 -0.4000 -1.0821 -0.3439
  148SAPE   H8R16315   1.206   0.927   7.731 -0.8164  2.6719  2.3413
  148SAPE   C2916316   1.027   0.916   7.831 -1.0090  0.1994  1.0523
  148SAPE   H9R16317   1.081   0.912   7.926  0.6695  0.4825  0.1550
  148SAPE  C21016318   0.880   0.907   7.849 -0.8140 -0.4227  0.1141
  148SAPE  H10R16319   0.834   0.831   7.781 -2.7550  0.2799  0.5671
  148SAPE  H10S16320   0.838   1.001   7.808  1.3954 -0.7930 -3.4791
  148SAPE  C21116321   0.835   0.894   7.987  0.0525 -0.1418  0.1433
  148SAPE  H11R16322   0.839   0.793   8.029 -0.7112  0.3405  1.4261
  148SAPE  C21216323   0.794   0.988   8.075  0.2943 -0.0701 -0.3245
  148SAPE  H12R16324   0.759   0.955   8.174  0.0251 -0.6929 -0.6204
  148SAPE  C21316325   0.765   1.127   8.045  0.1964 -0.7630 -0.2364
  148SAPE  H13R16326   0.802   1.151   7.943 -0.3751  0.3905 -0.1944
  148SAPE  H13S16327   0.832   1.187   8.111 -0.1761 -2.7826  2.1010
  148SAPE  C21416328   0.622   1.180   8.071 -0.5391 -0.0631  0.1426
  148SAPE  H14R16329   0.539   1.125   8.025 -0.4535 -0.0173 -0.0694
  148SAPE  C21516330   0.585   1.289   8.143  0.4000  0.1023  0.3796
  148SAPE  H15R16331   0.481   1.325   8.137  0.2822 -0.0967  1.1490
  148SAPE  C21616332   0.672   1.378   8.227 -0.1802 -1.0512 -0.4416
  148SAPE  H16R16333   0.777   1.365   8.194  0.5643  0.4505  1.1938
  148SAPE  H16S16334   0.664   1.349   8.334 -3.1643 -1.1513 -0.5980
  148SAPE  C21716335   0.648   1.531   8.206  0.5207  0.7482 -0.4392
  148SAPE  H17R16336   0.553   1.552   8.260  0.8320 -0.8649  0.8077
  148SAPE  H17S16337   0.648   1.562   8.100 -0.2905 -0.3680 -0.7782
  148SAPE  C21816338   0.761   1.604   8.268  0.5334 -0.3750 -0.1538
  148SAPE  H18R16339   0.837   1.586   8.190 -0.2286  0.4787 -1.1309
  148SAPE  H18S16340   0.797   1.571   8.367  1.9348 -0.9369 -0.8351
  148SAPE  C21916341   0.738   1.754   8.279 -0.1568  0.4867  0.0635
  148SAPE  H19R16342   0.694   1.799   8.188 -0.2303  0.9098  0.3090
  148SAPE  H19S16343   0.838   1.798   8.301  0.0142 -1.1046  3.0458
  148SAPE  C22016344   0.644   1.784   8.394  0.0856  0.0231 -0.3121
  148SAPE  H20R16345   0.540   1.763   8.362  1.2040 -3.3952 -2.2740
  148SAPE  H20S16346   0.644   1.893   8.416  1.8192  0.1324 -0.6924
  148SAPE  H20T16347   0.662   1.731   8.489 -0.7053  0.7474  0.2492
  148SAPE   C3316348   0.496   1.517   7.234  0.8091  0.3984 -0.5606
  148SAPE   H3X16349   0.427   1.548   7.153 -0.3411  0.3196  0.3604
  148SAPE   H3Y16350   0.591   1.574   7.233  0.8506  0.3274 -1.5924
  148SAPE   C3416351   0.435   1.554   7.374 -0.1850 -0.3133  0.5659
  148SAPE   H4X16352   0.337   1.504   7.391  0.3423 -0.7173  2.7702
  148SAPE   H4Y16353   0.410   1.662   7.368 -2.8960 -0.8599  0.9375
  148SAPE   C3516354   0.529   1.528   7.494  0.3403 -0.8724 -0.0573
  148SAPE   H5X16355   0.622   1.575   7.454  1.5509 -2.2813  0.9689
  148SAPE   H5Y16356   0.542   1.418   7.510 -0.8672 -1.0282 -0.0585
  148SAPE   C3616357   0.495   1.594   7.631  0.4114 -0.6141  0.1340
  148SAPE   H6X16358   0.487   1.703   7.608 -0.3969 -0.6782  0.0799
  148SAPE   H6Y16359   0.583   1.580   7.697  1.6596  0.0055 -1.3179
  148SAPE   C3716360   0.374   1.534   7.706 -0.3362 -0.2737 -0.1994
  148SAPE   H7X16361   0.291   1.511   7.635 -2.3732  2.0701  1.2775
  148SAPE   H7Y16362   0.346   1.617   7.774  0.8545  2.3273 -2.6506
  148SAPE   C3816363   0.400   1.408   7.799  0.7965 -0.2316  0.6352
  148SAPE   H8X16364   0.470   1.431   7.882 -1.2008 -1.4627  2.7563
  148SAPE   H8Y16365   0.446   1.331   7.733  1.2068  0.8922 -0.4401
  148SAPE   C3916366   0.273   1.356   7.869 -0.7976  0.0371 -0.4975
  148SAPE   H9X16367   0.303   1.269   7.931  1.9010  1.2237 -0.0107
  148SAPE   H9Y16368   0.196   1.329   7.794 -0.1889 -0.8094 -0.8356
  148SAPE  C31016369   0.209   1.450   7.975 -0.6817  0.2286  0.3004
  148SAPE  H10X16370   0.146   1.531   7.930 -2.0781 -1.8620 -1.7837
  148SAPE  H10Y16371   0.300   1.489   8.024  0.2539 -1.0539 -0.3824
  148SAPE  C31116372   0.126   1.363   8.078 -0.2618 -0.3684  0.6951
  148SAPE  H11X16373   0.192   1.298   8.140 -2.0409 -0.3174  2.7977
  148SAPE  H11Y16374   0.057   1.291   8.028 -2.2419  3.1293 -2.0114
  148SAPE  C31216375   0.054   1.456   8.180  0.1915 -1.0074  0.1359
  148SAPE  H12X16376  -0.019   1.515   8.121  0.4382 -0.0539  0.7592
  148SAPE  H12Y16377   0.129   1.528   8.219 -0.3754 -1.4473  2.1518
  148SAPE  C31316378  -0.025   1.376   8.286  0.8672  0.4481  0.8847
  148SAPE  H13X16379   0.053   1.340   8.356 -0.5957 -0.1690  2.2553
  148SAPE  H13Y16380  -0.062   1.281   8.243 -0.0927  0.8087  0.8862
  148SAPE  C31416381  -0.137   1.459   8.351 -0.3313  0.2241  0.0608
  148SAPE  H14X16382  -0.094   1.559   8.370 -0.2560  0.2829 -0.4180
  148SAPE  H14Y16383  -0.182   1.417   8.444  1.1056  2.1406  1.6981
  148SAPE  C31516384  -0.253   1.472   8.252  0.3232  0.7304  0.7535
  148SAPE  H15X16385  -0.314   1.379   8.260  0.0362  0.9747  1.5788
  148SAPE  H15Y16386  -0.220   1.472   8.146 -2.4055 -1.2508 -0.2302
  148SAPE  C31616387  -0.330   1.603   8.264  0.7297  1.0083 -0.1590
  148SAPE  H16X16388  -0.397   1.621   8.178 -0.8877  0.8444  1.0260
  148SAPE  H16Y16389  -0.254   1.684   8.255  2.2865 -0.3362  0.3991
  148SAPE  C31716390  -0.392   1.613   8.400 -0.5518 -0.3037  0.2388
  148SAPE  H17X16391  -0.319   1.611   8.484  0.5155 -0.1266 -0.6677
  148SAPE  H17Y16392  -0.456   1.524   8.416  0.3751 -0.8737  0.8583
  148SAPE  C31816393  -0.482   1.737   8.427  0.5711 -0.3986  0.6101
  148SAPE  H18X16394  -0.511   1.738   8.535 -0.9389  1.6065  0.2352
  148SAPE  H18Y16395  -0.574   1.721   8.367  0.5413  1.2890  0.1759
  148SAPE  H18Z16396  -0.435   1.831   8.391 -1.6535 -0.2319 -2.1508
  149SAPE     N16397   0.811   1.721   6.169 -0.1658  0.0918  0.3505
  149SAPE   HN116398   0.755   1.657   6.228  1.2969 -0.2403  1.4274
  149SAPE   HN216399   0.883   1.665   6.119 -0.9299  0.1746 -0.8902
  149SAPE   HN316400   0.843   1.806   6.220  1.2750 -1.1993  1.7094
  149SAPE   C1216401   0.715   1.791   6.082  0.3152  0.4762  0.3349
  149SAPE  H12A16402   0.709   1.722   5.994  1.5213 -1.3460  1.6073
  149SAPE  H12B16403   0.756   1.877   6.025 -1.2132 -0.8400 -3.0660
  149SAPE   C1116404   0.581   1.810   6.154  0.2903  0.6803 -0.0389
  149SAPE  H11A16405   0.530   1.712   6.146 -0.1349  0.7479  1.5424
  149SAPE  H11B16406   0.507   1.873   6.100  0.2632  0.2270 -0.5400
  149SAPE     P16407   0.569   1.746   6.420 -0.2149 -0.2726  0.1807
  149SAPE   O1316408   0.426   1.724   6.442  0.1152 -0.1643 -0.3754
  149SAPE   O1416409   0.650   1.622   6.392  0.1646  0.1343 -0.3909
  149SAPE   O1216410   0.584   1.847   6.296 -0.2080 -0.6940  0.2395
  149SAPE   O1116411   0.635   1.832   6.531 -0.0246 -0.3624 -0.3166
  149SAPE    C116412   0.609   1.971   6.555  0.5826 -0.3016 -0.1941
  149SAPE    HA16413   0.705   2.019   6.527 -1.0444  1.8546 -2.4954
  149SAPE    HB16414   0.547   2.017   6.476 -0.7847 -1.8823 -0.1033
  149SAPE    C216415   0.562   2.000   6.706 -0.2308  0.0277 -0.8086
  149SAPE    HS16416   0.569   2.108   6.731  0.0348 -0.4495  1.3595
  149SAPE   O2116417   0.644   1.921   6.795  0.1737  0.3438  0.1624
  149SAPE   C2116418   0.771   1.956   6.800 -0.3568  0.0894  0.1113
  149SAPE   O2216419   0.823   2.055   6.754 -0.2259  0.1097  0.1572
  149SAPE   C2216420   0.849   1.857   6.893  0.8664 -0.6201  0.4818
  149SAPE   H2R16421   0.779   1.801   6.959 -0.1616 -0.0426 -0.1005
  149SAPE   H2S16422   0.879   1.783   6.817  0.2486 -1.2341  0.8252
  149SAPE    C316423   0.419   1.956   6.717  1.0320 -0.0494  0.1619
  149SAPE    HX16424   0.409   1.854   6.675 -1.2989 -0.6842  2.0292
  149SAPE    HY16425   0.351   2.023   6.659  0.2948  0.3351  1.4266
  149SAPE   O3116426   0.361   1.972   6.848 -0.9949  0.0277  0.0945
  149SAPE   C3116427   0.325   1.865   6.914  0.2859  0.6436  0.3123
  149SAPE   O3216428   0.322   1.748   6.868 -0.2791 -0.1176 -0.4524
  149SAPE   C3216429   0.248   1.906   7.041 -0.2704  0.2228  0.0986
  149SAPE   H2X16430   0.192   1.815   7.075  0.9110 -0.0409  1.4286
  149SAPE   H2Y16431   0.176   1.984   7.009 -1.0398  1.2450  3.8608
  149SAPE   C2316432   0.967   1.915   6.965  0.5943  0.2978 -0.0770
  149SAPE   H3R16433   0.934   2.009   7.014 -1.6326 -0.9458  0.9610
  149SAPE   H3S16434   1.045   1.944   6.892  1.4137  0.8055  0.9636
  149SAPE   C2416435   1.028   1.824   7.069  0.6176  0.1961 -0.0460
  149SAPE   H4R16436   1.067   1.735   7.016 -0.9728  0.5928 -1.9656
  149SAPE   H4S16437   0.954   1.781   7.141  0.5100  1.0023  0.3491
  149SAPE   C2516438   1.144   1.881   7.143 -0.2086 -0.5055  0.2393
  149SAPE   H5R16439   1.182   1.975   7.100 -0.9983 -0.4368 -0.3117
  149SAPE   C2616440   1.204   1.824   7.248 -0.3460 -0.1893 -0.0571
  149SAPE   H6R16441   1.298   1.870   7.283  0.2888  0.9116 -2.9298
  149SAPE   C2716442   1.168   1.690   7.311  0.9436 -0.1729  0.0199
  149SAPE   H7R16443   1.235   1.609   7.275  1.3137  0.1311  0.0164
  149SAPE   H7S16444   1.070   1.649   7.278  1.8600 -2.5343  0.0787
  149SAPE   C2816445   1.181   1.696   7.464  0.1670  0.8630 -0.1571
  149SAPE   H8R16446   1.086   1.722   7.514  0.1066 -1.7336  1.2540
  149SAPE   C2916447   1.286   1.682   7.545 -0.8161 -0.2850  0.4301
  149SAPE   H9R16448   1.267   1.687   7.654  0.6594 -1.1826  0.7553
  149SAPE  C21016449   1.431   1.655   7.500 -0.0749 -0.2886  0.1879
  149SAPE  H10R16450   1.438   1.652   7.389  1.2020  0.4784  0.2359
  149SAPE  H10S16451   1.458   1.561   7.552  1.9870  1.1956  1.9555
  149SAPE  C21116452   1.522   1.765   7.557  0.1741 -0.1528  0.0735
  149SAPE  H11R16453   1.543   1.856   7.498 -1.1610  0.0237 -0.1592
  149SAPE  C21216454   1.579   1.770   7.679 -0.4211 -0.5605  0.4724
  149SAPE  H12R16455   1.617   1.866   7.717 -2.4324  1.4125 -2.1412
  149SAPE  C21316456   1.572   1.656   7.774 -0.5514  0.1455 -0.4641
  149SAPE  H13R16457   1.521   1.566   7.735  0.2649  0.4491 -2.3529
  149SAPE  H13S16458   1.513   1.695   7.860  0.6136 -0.9886  0.9095
  149SAPE  C21416459   1.718   1.616   7.809  0.2546 -0.7239  0.4407
  149SAPE  H14R16460   1.781   1.638   7.722 -1.3393  1.3801 -0.2945
  149SAPE  C21516461   1.765   1.577   7.928  0.0709  0.5612 -0.7534
  149SAPE  H15R16462   1.866   1.533   7.933  1.0070  2.6550  0.0654
  149SAPE  C21616463   1.683   1.551   8.057 -0.0607  0.3890  0.9549
  149SAPE  H16R16464   1.669   1.441   8.061  0.1580  0.2552 -1.0757
  149SAPE  H16S16465   1.583   1.599   8.057 -1.2802 -1.9986  0.9697
  149SAPE  C21716466   1.759   1.611   8.183  0.6844  0.1564  0.7137
  149SAPE  H17R16467   1.865   1.577   8.174 -0.0689 -1.6426 -3.3445
  149SAPE  H17S16468   1.710   1.563   8.271 -2.3152  1.8071  0.0475
  149SAPE  C21816469   1.758   1.771   8.191  0.1710 -0.7412  0.2499
  149SAPE  H18R16470   1.793   1.810   8.093 -1.7887 -1.0558 -0.6134
  149SAPE  H18S16471   1.823   1.800   8.276  0.0705 -1.3688  0.5491
  149SAPE  C21916472   1.617   1.830   8.221 -0.7889  0.3088  0.5994
  149SAPE  H19R16473   1.592   1.811   8.327  2.9694 -0.0013  1.5706
  149SAPE  H19S16474   1.549   1.792   8.142  1.1838 -2.0685 -0.0823
  149SAPE  C22016475   1.613   1.985   8.197 -0.2096  0.0538  0.0722
  149SAPE  H20R16476   1.645   2.002   8.093 -2.9963  0.0758 -0.8628
  149SAPE  H20S16477   1.680   2.023   8.278  1.5762 -0.8576 -0.9161
  149SAPE  H20T16478   1.512   2.020   8.227 -0.9391 -0.5374 -1.6250
  149SAPE   C3316479   0.335   1.968   7.155  0.0443  0.6034  0.0848
  149SAPE   H3X16480   0.359   2.075   7.138  0.7509  0.2179 -1.4946
  149SAPE   H3Y16481   0.436   1.922   7.156 -1.0665 -1.9964  0.4298
  149SAPE   C3416482   0.284   1.956   7.302 -0.2225  0.8904  0.2460
  149SAPE   H4X16483   0.272   1.846   7.318  2.2962 -0.1252 -3.4487
  149SAPE   H4Y16484   0.180   1.996   7.297  0.0342  1.4690 -0.7071
  149SAPE   C3516485   0.378   2.032   7.397  0.3328  1.1053  0.5027
  149SAPE   H5X16486   0.362   2.138   7.369  0.5897  0.7989 -0.8535
  149SAPE   H5Y16487   0.481   1.994   7.378 -0.2018  0.1657 -0.6538
  149SAPE   C3616488   0.352   2.002   7.544  0.4396 -0.4091 -0.4520
  149SAPE   H6X16489   0.448   2.004   7.600 -0.0467 -2.2316  0.5066
  149SAPE   H6Y16490   0.312   1.902   7.569 -2.3835  1.2721  2.6684
  149SAPE   C3716491   0.253   2.099   7.607 -0.4799 -0.1212 -0.6769
  149SAPE   H7X16492   0.150   2.080   7.571 -1.2161  1.1110  0.6674
  149SAPE   H7Y16493   0.302   2.196   7.581  1.1212 -0.2551  1.5072
  149SAPE   C3816494   0.247   2.081   7.761  0.5366 -0.4217  0.3748
  149SAPE   H8X16495   0.344   2.103   7.810  0.6273  0.6627 -0.2456
  149SAPE   H8Y16496   0.217   1.975   7.771  1.1889 -0.5183  1.4983
  149SAPE   C3916497   0.124   2.158   7.821 -0.6533  0.0047  0.7608
  149SAPE   H9X16498   0.033   2.147   7.759 -0.7652  3.2267  0.1832
  149SAPE   H9Y16499   0.145   2.263   7.793  1.1359 -0.1681  1.3168
  149SAPE  C31016500   0.110   2.140   7.970  0.1193  0.3948  0.1545
  149SAPE  H10X16501   0.207   2.160   8.021 -0.4820  1.5172  0.9012
  149SAPE  H10Y16502   0.087   2.034   7.995  2.0234  0.0969  0.8343
  149SAPE  C31116503  -0.000   2.225   8.029 -0.5469  0.0046 -0.9249
  149SAPE  H11X16504  -0.094   2.180   7.990 -0.4224 -1.4925  0.4249
  149SAPE  H11Y16505   0.004   2.328   7.986  3.1659  0.3681  0.0173
  149SAPE  C31216506   0.012   2.263   8.177 -0.3902  0.5188  0.1958
  149SAPE  H12X16507   0.120   2.278   8.202 -0.0963  0.4925 -0.9799
  149SAPE  H12Y16508  -0.001   2.170   8.236  2.4175 -0.2046 -0.1465
  149SAPE  C31316509  -0.090   2.370   8.221 -0.5904  0.8032 -0.1159
  149SAPE  H13X16510  -0.185   2.323   8.187 -0.4189 -0.7610  1.4484
  149SAPE  H13Y16511  -0.077   2.464   8.162 -1.0195 -0.1517 -1.7967
  149SAPE  C31416512  -0.071   2.399   8.369 -0.3212 -0.0568 -0.3418
  149SAPE  H14X16513   0.035   2.428   8.387 -0.3032 -1.2187  1.7602
  149SAPE  H14Y16514  -0.090   2.310   8.433  1.4895  0.6006  1.1966
  149SAPE  C31516515  -0.160   2.512   8.415  0.2579  0.2026  0.6389
  149SAPE  H15X16516  -0.262   2.468   8.402 -0.8588  2.5785  0.8628
  149SAPE  H15Y16517  -0.150   2.596   8.343  1.7538  0.7140  1.4080
  149SAPE  C31616518  -0.143   2.572   8.555 -0.3693 -0.1625  0.0765
  149SAPE  H16X16519  -0.227   2.644   8.565  1.1845  1.6775  0.6611
  149SAPE  H16Y16520  -0.048   2.628   8.573  0.6298 -1.5205 -0.7869
  149SAPE  C31716521  -0.153   2.465   8.669  0.3336 -0.0419 -0.1773
  149SAPE  H17X16522  -0.068   2.395   8.651 -0.0795 -0.9624  1.2800
  149SAPE  H17Y16523  -0.253   2.417   8.672  0.6000 -0.6013 -0.1142
  149SAPE  C31816524  -0.132   2.536   8.802 -0.2161  0.0106 -0.5016
  149SAPE  H18X16525  -0.139   2.467   8.889  2.3714  1.9230  1.3723
  149SAPE  H18Y16526  -0.204   2.619   8.822  0.1090 -0.3772  2.9370
  149SAPE  H18Z16527  -0.031   2.582   8.811 -0.6998  0.9032  0.7402
  150SAPE     N16528   0.844   3.585   6.397  0.2999 -0.4360  0.3595
  150SAPE   HN116529   0.847   3.686   6.373  2.8675 -0.0736  1.8030
  150SAPE   HN216530   0.944   3.554   6.402 -0.1486 -2.0419  0.0459
  150SAPE   HN316531   0.796   3.519   6.332 -0.4773  0.1934  0.2876
  150SAPE   C1216532   0.777   3.576   6.527  0.2280  0.1014  0.1685
  150SAPE  H12A16533   0.810   3.665   6.584  0.5202 -1.3000  2.2889
  150SAPE  H12B16534   0.818   3.485   6.575 -1.1546 -0.7283 -0.1418
  150SAPE   C1116535   0.618   3.570   6.494 -0.4375  0.7195  0.2825
  150SAPE  H11A16536   0.578   3.591   6.596  1.3097 -3.7374  2.1066
  150SAPE  H11B16537   0.592   3.468   6.461  1.8798 -1.0182  3.3041
  150SAPE     P16538   0.434   3.655   6.341  0.4528  0.2635 -0.1162
  150SAPE   O1316539   0.389   3.792   6.302 -0.0087  0.0941 -0.8278
  150SAPE   O1416540   0.423   3.554   6.236  0.0441 -0.2409 -0.1189
  150SAPE   O1216541   0.579   3.667   6.399 -0.0883 -0.0535  0.4288
  150SAPE   O1116542   0.347   3.597   6.464 -0.2999 -0.4108 -0.4421
  150SAPE    C116543   0.288   3.468   6.460  0.0130 -0.1958  0.7303
  150SAPE    HA16544   0.211   3.470   6.381 -0.2739 -0.3765  1.0015
  150SAPE    HB16545   0.357   3.390   6.422  0.5784  1.0369 -0.8748
  150SAPE    C216546   0.224   3.419   6.591  0.4390  0.6355  0.3630
  150SAPE    HS16547   0.209   3.309   6.579  4.7543  0.0690 -1.8667
  150SAPE   O2116548   0.096   3.483   6.619  0.0361 -0.0958  0.0944
  150SAPE   C2116549  -0.013   3.470   6.538  0.4604  0.6829  0.0988
  150SAPE   O2216550  -0.011   3.405   6.439  0.0905  0.7267  0.5734
  150SAPE   C2216551  -0.132   3.546   6.594 -0.4682  0.0467  0.0031
  150SAPE   H2R16552  -0.096   3.627   6.661 -0.6919  0.8639 -0.8448
  150SAPE   H2S16553  -0.177   3.599   6.508 -0.2670  2.0097  1.0626
  150SAPE    C316554   0.320   3.441   6.707 -0.3692  0.0243  0.5354
  150SAPE    HX16555   0.326   3.551   6.717 -0.3376  0.3183 -2.0470
  150SAPE    HY16556   0.411   3.384   6.680 -1.7199 -1.3897 -1.3727
  150SAPE   O3116557   0.263   3.375   6.820 -0.0111  0.1362 -0.3924
  150SAPE   C3116558   0.341   3.391   6.930  0.5294  0.5883 -0.4547
  150SAPE   O3216559   0.436   3.462   6.936 -0.2531 -0.1064  0.0542
  150SAPE   C3216560   0.283   3.308   7.049 -0.6106  0.2772  0.2185
  150SAPE   H2X16561   0.254   3.211   7.002 -0.9256  0.0439  0.8713
  150SAPE   H2Y16562   0.194   3.362   7.087 -0.7635  1.5455 -1.8291
  150SAPE   C2316563  -0.236   3.449   6.646  0.2106  0.0101  0.5701
  150SAPE   H3R16564  -0.248   3.380   6.560  0.9612  0.3040  0.2165
  150SAPE   H3S16565  -0.332   3.495   6.676  0.2678  0.1411  0.5532
  150SAPE   C2416566  -0.200   3.368   6.770 -0.3817 -0.2507 -0.3886
  150SAPE   H4R16567  -0.218   3.423   6.865 -2.3855  0.0550 -0.9056
  150SAPE   H4S16568  -0.090   3.352   6.771 -0.2613  0.5549 -0.2058
  150SAPE   C2516569  -0.271   3.232   6.773 -0.0146  0.1086 -0.0321
  150SAPE   H5R16570  -0.306   3.199   6.674 -1.2464 -1.4993  0.8835
  150SAPE   C2616571  -0.288   3.159   6.884 -0.1589 -0.5553 -0.4277
  150SAPE   H6R16572  -0.327   3.057   6.876 -0.4397 -0.3364 -2.5503
  150SAPE   C2716573  -0.242   3.202   7.030  0.7342  0.5958  0.1403
  150SAPE   H7R16574  -0.324   3.257   7.081  1.2501  1.2017  0.3388
  150SAPE   H7S16575  -0.154   3.269   7.016  1.3179 -0.4159 -1.2287
  150SAPE   C2816576  -0.216   3.083   7.114  0.1842  0.8725  0.2955
  150SAPE   H8R16577  -0.254   2.986   7.081  0.8519  0.6301  0.2228
  150SAPE   C2916578  -0.157   3.078   7.231 -0.2469 -0.4490 -0.0209
  150SAPE   H9R16579  -0.125   2.979   7.268  2.5590  1.4608  3.2657
  150SAPE  C21016580  -0.092   3.192   7.297 -0.2672 -0.1174  0.8434
  150SAPE  H10R16581  -0.127   3.287   7.251  1.3884 -0.3368 -0.9872
  150SAPE  H10S16582   0.010   3.182   7.255 -1.0089  1.4926 -1.5738
  150SAPE  C21116583  -0.112   3.191   7.446 -0.0303  0.0835 -0.0057
  150SAPE  H11R16584  -0.213   3.222   7.477 -0.8607 -0.8867 -1.5819
  150SAPE  C21216585  -0.015   3.167   7.533  0.1802  0.6662 -0.5517
  150SAPE  H12R16586  -0.040   3.155   7.640  1.0751  2.4439 -0.0957
  150SAPE  C21316587   0.132   3.138   7.510  0.1165 -0.2979 -0.3672
  150SAPE  H13R16588   0.199   3.189   7.582 -0.6593  0.9630 -0.5200
  150SAPE  H13S16589   0.161   3.183   7.413 -1.3284 -0.8231 -1.0658
  150SAPE  C21416590   0.154   2.982   7.501  0.1049 -0.0561  0.0854
  150SAPE  H14R16591   0.088   2.920   7.438  0.7973  0.7228 -1.4591
  150SAPE  C21516592   0.259   2.921   7.541 -0.1890 -0.4420  0.4560
  150SAPE  H15R16593   0.254   2.815   7.511 -4.2674  0.2136 -1.9857
  150SAPE  C21616594   0.379   2.980   7.609 -0.4971 -0.1537 -0.0025
  150SAPE  H16R16595   0.379   3.090   7.595  1.4881 -0.1642 -0.4015
  150SAPE  H16S16596   0.473   2.948   7.559 -2.3062 -0.8684 -3.2601
  150SAPE  C21716597   0.370   2.953   7.759 -0.0235 -0.4933 -1.1094
  150SAPE  H17R16598   0.358   2.847   7.788  0.5834  0.2359  2.1942
  150SAPE  H17S16599   0.284   3.007   7.804 -0.4464 -1.6262 -0.5266
  150SAPE  C21816600   0.477   3.011   7.844 -0.5168 -0.0782 -0.2710
  150SAPE  H18R16601   0.466   3.120   7.861  0.8492 -0.2712  2.3107
  150SAPE  H18S16602   0.575   2.988   7.798 -0.5187  0.2738 -0.4529
  150SAPE  C21916603   0.462   2.955   7.985 -0.4439  0.6659  0.2101
  150SAPE  H19R16604   0.491   2.848   7.986 -2.8928 -0.0464  1.2985
  150SAPE  H19S16605   0.357   2.964   8.019 -0.1067  1.3762  1.1071
  150SAPE  C22016606   0.549   3.021   8.092  0.0470  0.3481  0.1080
  150SAPE  H20R16607   0.519   2.981   8.191 -1.9668 -0.2573 -0.6913
  150SAPE  H20S16608   0.519   3.128   8.088  1.9854  0.9281 -3.5380
  150SAPE  H20T16609   0.658   3.008   8.074  0.2733  2.1422 -0.0135
  150SAPE   C3316610   0.387   3.280   7.155 -0.6536  0.3545  0.3746
  150SAPE   H3X16611   0.490   3.278   7.112  0.2454  1.0447  2.3515
  150SAPE   H3Y16612   0.358   3.179   7.192 -0.6990  0.0823 -0.3749
  150SAPE   C3416613   0.384   3.372   7.272  0.4511  0.1518  0.0715
  150SAPE   H4X16614   0.279   3.378   7.311  0.8979 -2.8892  2.1576
  150SAPE   H4Y16615   0.421   3.473   7.244  0.1463  0.0480 -0.7317
  150SAPE   C3516616   0.461   3.335   7.398  0.0624  0.4392  0.3625
  150SAPE   H5X16617   0.437   3.239   7.450  2.6073  1.0685  2.9836
  150SAPE   H5Y16618   0.449   3.409   7.480  1.1539  1.0840 -0.0372
  150SAPE   C3616619   0.612   3.330   7.362  0.2655 -0.0760  0.3991
  150SAPE   H6X16620   0.640   3.433   7.333  0.6205 -0.0914  0.6950
  150SAPE   H6Y16621   0.623   3.261   7.275  1.0318  0.8566 -0.2692
  150SAPE   C3716622   0.699   3.273   7.474 -0.3243  0.4175 -0.0788
  150SAPE   H7X16623   0.805   3.280   7.442  0.4532 -1.2429  1.9197
  150SAPE   H7Y16624   0.679   3.164   7.477  0.4052  0.1319 -2.6338
  150SAPE   C3816625   0.670   3.336   7.607 -1.0261  0.0271 -0.8580
  150SAPE   H8X16626   0.564   3.343   7.637 -0.7770  2.5459 -0.3914
  150SAPE   H8Y16627   0.697   3.443   7.594  0.7953 -0.1600  0.9343
  150SAPE   C3916628   0.748   3.275   7.725 -0.2132  0.2362  0.6806
  150SAPE   H9X16629   0.849   3.314   7.698 -0.8059  1.0996 -0.3983
  150SAPE   H9Y16630   0.756   3.165   7.723  1.3540  0.3193  1.0344
  150SAPE  C31016631   0.700   3.333   7.859  0.5699 -0.2834  0.1274
  150SAPE  H10X16632   0.770   3.302   7.940  1.7897  0.2036 -0.7285
  150SAPE  H10Y16633   0.601   3.300   7.899  1.1704  1.2963  3.2437
  150SAPE  C31116634   0.689   3.486   7.868 -0.7235 -0.2121 -0.1947
  150SAPE  H11X16635   0.610   3.523   7.800  2.1896  0.9047 -3.2324
  150SAPE  H11Y16636   0.787   3.528   7.835 -1.4277 -1.3731 -4.3330
  150SAPE  C31216637   0.665   3.527   8.018  0.4549  0.0266 -0.3451
  150SAPE  H12X16638   0.577   3.482   8.067 -0.7179  0.4762 -1.9538
  150SAPE  H12Y16639   0.644   3.636   8.020  2.0957  0.3709  1.9410
  150SAPE  C31316640   0.787   3.515   8.115  0.1889 -0.4298 -0.5323
  150SAPE  H13X16641   0.874   3.565   8.069  0.5677 -1.5450 -1.0792
  150SAPE  H13Y16642   0.804   3.406   8.128 -2.2620 -0.9237 -0.9469
  150SAPE  C31416643   0.764   3.598   8.249 -0.7186 -0.4133  0.3818
  150SAPE  H14X16644   0.685   3.533   8.292 -4.2979  3.1640 -0.1771
  150SAPE  H14Y16645   0.719   3.700   8.243 -0.3034 -0.2486 -0.0039
  150SAPE  C31516646   0.897   3.602   8.327 -0.9194  0.0851 -0.2129
  150SAPE  H15X16647   0.950   3.697   8.305  1.1985 -1.3352 -1.6441
  150SAPE  H15Y16648   0.964   3.524   8.284  0.7645  1.6079 -0.4660
  150SAPE  C31616649   0.888   3.592   8.479 -0.1129  0.7425  0.3407
  150SAPE  H16X16650   0.846   3.499   8.522  0.5152  0.4729  0.3937
  150SAPE  H16Y16651   0.822   3.674   8.515  1.2699  1.6463  0.9331
  150SAPE  C31716652   1.028   3.617   8.539  1.2101  0.0021 -1.0734
  150SAPE  H17X16653   1.050   3.725   8.526 -1.5051  1.0602  1.7796
  150SAPE  H17Y16654   1.101   3.541   8.502  2.2605 -0.0876  1.0075
  150SAPE  C31816655   1.013   3.594   8.684 -0.8590 -0.1871 -0.1462
  150SAPE  H18X16656   0.979   3.493   8.715  0.3947 -0.9881 -1.2530
  150SAPE  H18Y16657   0.940   3.664   8.729 -0.2249 -0.2144  0.9515
  150SAPE  H18Z16658   1.106   3.618   8.739  0.0278 -0.7083 -1.3640
  151SAPE     N16659   1.034   1.092   6.167  0.2186  0.4841  0.2958
  151SAPE   HN116660   0.968   1.107   6.087 -0.4992  0.9459  0.9553
  151SAPE   HN216661   1.112   1.040   6.122 -0.8344  0.7213 -1.9795
  151SAPE   HN316662   0.995   1.024   6.235 -2.4093  1.2760 -0.3092
  151SAPE   C1216663   1.091   1.217   6.225  0.4489  1.2434  0.7876
  151SAPE  H12A16664   1.008   1.266   6.280 -1.7499 -1.1625 -0.1997
  151SAPE  H12B16665   1.108   1.285   6.138 -1.3459  1.2130  0.3761
  151SAPE   C1116666   1.200   1.183   6.320  0.1466 -0.8991  0.1679
  151SAPE  H11A16667   1.177   1.099   6.390 -1.9152  1.5511  2.6491
  151SAPE  H11B16668   1.223   1.275   6.377 -1.2846  0.6338 -1.5956
  151SAPE     P16669   1.440   1.232   6.232 -0.0745 -0.1862  0.0394
  151SAPE   O1316670   1.527   1.183   6.118  0.1222 -0.8903 -0.8627
  151SAPE   O1416671   1.393   1.368   6.210  0.7362  0.2906  0.6067
  151SAPE   O1216672   1.310   1.149   6.234 -0.2294  0.1248  0.5088
  151SAPE   O1116673   1.512   1.211   6.371  0.3013 -0.0492 -0.2530
  151SAPE    C116674   1.524   1.073   6.419  0.5193 -0.3143  0.1222
  151SAPE    HA16675   1.477   0.994   6.357 -0.5329  0.1382  0.3174
  151SAPE    HB16676   1.631   1.050   6.438 -0.0209 -2.0940  1.2692
  151SAPE    C216677   1.468   1.056   6.564  0.2378  0.4197  0.1084
  151SAPE    HS16678   1.357   1.063   6.557  0.1614  2.0301  2.0129
  151SAPE   O2116679   1.521   1.156   6.645  0.1802 -0.6255 -0.4305
  151SAPE   C2116680   1.465   1.184   6.766 -0.5661  0.4158  0.0708
  151SAPE   O2216681   1.357   1.141   6.805  0.1742  0.9004 -0.0290
  151SAPE   C2216682   1.551   1.281   6.846 -0.1733 -0.4452  0.0963
  151SAPE   H2R16683   1.652   1.241   6.868 -0.5760 -1.2095  0.5594
  151SAPE   H2S16684   1.552   1.377   6.790 -2.0851  0.1046  0.9243
  151SAPE    C316685   1.484   0.913   6.620  0.0613 -0.0238 -1.0284
  151SAPE    HX16686   1.430   0.832   6.566 -1.6580  1.0005 -0.9082
  151SAPE    HY16687   1.438   0.917   6.721  1.0877  1.1220 -0.5793
  151SAPE   O3116688   1.622   0.885   6.618  0.3113  0.6893  0.2860
  151SAPE   C3116689   1.681   0.883   6.735  0.5709  0.1194 -0.4511
  151SAPE   O3216690   1.629   0.916   6.841  0.4610  0.0498 -0.2273
  151SAPE   C3216691   1.831   0.858   6.719  0.1954 -0.0815  1.1412
  151SAPE   H2X16692   1.868   0.962   6.707  0.7387 -0.2975  0.9504
  151SAPE   H2Y16693   1.848   0.794   6.630 -0.4168  2.1791 -0.7150
  151SAPE   C2316694   1.513   1.306   6.998 -0.2328  0.0550  0.2263
  151SAPE   H3R16695   1.407   1.330   7.019  0.4163  2.9008  0.7624
  151SAPE   H3S16696   1.575   1.396   7.019 -0.6559  0.5736 -0.6629
  151SAPE   C2416697   1.572   1.197   7.098 -0.6459 -0.1151  0.3933
  151SAPE   H4R16698   1.591   1.255   7.191  0.1965  2.5561 -1.3322
  151SAPE   H4S16699   1.675   1.172   7.065  0.4898  1.4809  2.4526
  151SAPE   C2516700   1.482   1.075   7.113  0.5438 -0.1709 -0.2402
  151SAPE   H5R16701   1.482   1.008   7.025  0.3333 -0.9970  0.3776
  151SAPE   C2616702   1.419   1.042   7.227 -0.4539 -0.0191 -0.2887
  151SAPE   H6R16703   1.353   0.954   7.221 -1.1634  0.5430 -0.8320
  151SAPE   C2716704   1.416   1.107   7.367 -0.9119  0.3733  0.7611
  151SAPE   H7R16705   1.521   1.119   7.400 -1.4584  0.6585  2.4878
  151SAPE   H7S16706   1.375   1.030   7.436  1.0243 -0.3665  1.1335
  151SAPE   C2816707   1.359   1.243   7.384  0.9907  0.6145  0.1407
  151SAPE   H8R16708   1.341   1.300   7.291 -3.1275 -1.3088 -0.4905
  151SAPE   C2916709   1.318   1.295   7.501  0.1732  0.0421 -0.0616
  151SAPE   H9R16710   1.281   1.398   7.495 -1.4071 -0.5372 -0.9815
  151SAPE  C21016711   1.328   1.241   7.645 -0.4476 -0.7463  0.5807
  151SAPE  H10R16712   1.414   1.173   7.661  1.0859  0.7864 -0.7488
  151SAPE  H10S16713   1.236   1.180   7.654 -1.9161  1.0791 -1.2358
  151SAPE  C21116714   1.336   1.353   7.754  0.3304  0.3568 -0.5551
  151SAPE  H11R16715   1.304   1.454   7.722 -2.3074 -0.3974 -0.5279
  151SAPE  C21216716   1.382   1.327   7.873 -0.8157  0.1379  0.2450
  151SAPE  H12R16717   1.394   1.403   7.951  0.7898  0.6104 -0.4193
  151SAPE  C21316718   1.432   1.188   7.915  0.0284 -0.0956 -0.3345
  151SAPE  H13R16719   1.525   1.157   7.861  1.6640  1.1062  1.6312
  151SAPE  H13S16720   1.351   1.119   7.884 -0.3930  1.6027 -3.3296
  151SAPE  C21416721   1.473   1.183   8.060 -0.1630  0.0445 -0.0037
  151SAPE  H14R16722   1.583   1.173   8.067 -0.2210 -0.5841  0.0562
  151SAPE  C21516723   1.403   1.189   8.175  0.3121 -0.5407  0.0920
  151SAPE  H15R16724   1.445   1.197   8.277 -1.7164  1.1804  0.8884
  151SAPE  C21616725   1.253   1.206   8.174 -0.2657  0.6126  0.0150
  151SAPE  H16R16726   1.202   1.115   8.137 -2.4027  1.9389 -0.4442
  151SAPE  H16S16727   1.214   1.286   8.107 -0.4363  1.3760  1.0036
  151SAPE  C21716728   1.201   1.230   8.314  0.1302  0.9381 -0.0565
  151SAPE  H17R16729   1.230   1.332   8.349  0.5754  0.0123  2.5354
  151SAPE  H17S16730   1.252   1.160   8.383 -1.0078  1.2185  1.1135
  151SAPE  C21816731   1.049   1.220   8.338 -0.0667  0.2869 -0.4457
  151SAPE  H18R16732   0.997   1.126   8.311 -3.2187  1.4086  1.2199
  151SAPE  H18S16733   0.997   1.298   8.279 -0.1962  1.6128  1.3481
  151SAPE  C21916734   1.029   1.231   8.489  0.6447  0.2895 -0.2164
  151SAPE  H19R16735   1.043   1.338   8.517  1.6993  0.4597 -1.3392
  151SAPE  H19S16736   1.093   1.158   8.542 -2.7455 -2.9158 -0.1136
  151SAPE  C22016737   0.877   1.213   8.520  0.7415 -0.2875 -1.3270
  151SAPE  H20R16738   0.825   1.131   8.466 -2.0341  0.5109 -0.0453
  151SAPE  H20S16739   0.864   1.203   8.630  0.4613 -0.9556 -1.4158
  151SAPE  H20T16740   0.826   1.304   8.481 -0.3470  0.2123  1.0779
  151SAPE   C3316741   1.899   0.799   6.841 -0.0856 -0.6176  0.2267
  151SAPE   H3X16742   1.882   0.870   6.925  1.5664 -0.2562  0.2888
  151SAPE   H3Y16743   2.009   0.793   6.832  0.1765  1.4398  1.4603
  151SAPE   C3416744   1.844   0.668   6.886 -0.0004 -0.2324  0.6350
  151SAPE   H4X16745   1.879   0.602   6.803 -0.3167 -2.6684  2.3322
  151SAPE   H4Y16746   1.735   0.676   6.906  0.3346 -0.4966  2.8014
  151SAPE   C3516747   1.905   0.601   7.008  0.1540  0.0167 -0.5160
  151SAPE   H5X16748   2.014   0.591   6.991  0.4040  1.5925  0.0199
  151SAPE   H5Y16749   1.856   0.505   7.036 -0.6439  1.0114  1.6982
  151SAPE   C3616750   1.895   0.687   7.131 -0.2669 -0.3905 -0.0359
  151SAPE   H6X16751   1.791   0.723   7.145  0.3758  0.7690  2.5014
  151SAPE   H6Y16752   1.951   0.782   7.119 -0.5925 -0.0359  1.1028
  151SAPE   C3716753   1.935   0.626   7.267 -0.9404  0.1751  0.1229
  151SAPE   H7X16754   2.040   0.590   7.265 -1.0816 -0.2694 -1.7357
  151SAPE   H7Y16755   1.870   0.536   7.274  1.0225 -1.5136 -1.8175
  151SAPE   C3816756   1.912   0.728   7.374  0.0693 -0.2301  0.0395
  151SAPE   H8X16757   1.813   0.775   7.357 -0.7107 -1.4951  0.9042
  151SAPE   H8Y16758   1.989   0.807   7.358  0.0007  0.2063  1.7037
  151SAPE   C3916759   1.940   0.680   7.512 -0.8989  0.8285 -0.3154
  151SAPE   H9X16760   2.015   0.599   7.521 -0.6944  1.0561  0.0401
  151SAPE   H9Y16761   1.853   0.630   7.560 -0.0601 -3.0195 -2.3897
  151SAPE  C31016762   1.978   0.804   7.601 -0.6770  0.8037  0.1928
  151SAPE  H10X16763   1.890   0.869   7.621 -0.5333  0.7946  0.8865
  151SAPE  H10Y16764   2.055   0.870   7.557  0.2009  1.2359  2.2506
  151SAPE  C31116765   2.017   0.751   7.737  0.3491 -0.7286  0.9107
  151SAPE  H11X16766   2.099   0.679   7.718  0.8352  0.3371 -1.3146
  151SAPE  H11Y16767   1.932   0.700   7.786  1.7332 -2.9204  1.1673
  151SAPE  C31216768   2.061   0.861   7.842 -0.0863 -0.2508 -0.9259
  151SAPE  H12X16769   1.967   0.920   7.850 -0.5442 -0.8447 -1.7611
  151SAPE  H12Y16770   2.135   0.927   7.791 -0.7846  1.5973  0.3564
  151SAPE  C31316771   2.119   0.803   7.970 -0.3560 -0.6609 -0.6867
  151SAPE  H13X16772   2.222   0.763   7.953 -1.2588 -2.7787 -1.5881
  151SAPE  H13Y16773   2.055   0.720   8.008  0.0582 -0.3084  0.8624
  151SAPE  C31416774   2.118   0.897   8.096 -0.3010  0.2068  0.0059
  151SAPE  H14X16775   2.011   0.924   8.112 -0.3709  0.0089 -0.1264
  151SAPE  H14Y16776   2.176   0.990   8.078  1.9280 -1.4464 -1.8691
  151SAPE  C31516777   2.156   0.821   8.225  0.8128 -0.3234  0.6927
  151SAPE  H15X16778   2.076   0.745   8.242 -2.7601  1.8326 -3.9729
  151SAPE  H15Y16779   2.144   0.886   8.314 -1.1897  0.0750  0.1792
  151SAPE  C31616780   2.295   0.759   8.227  0.6113  0.4159 -1.0214
  151SAPE  H16X16781   2.366   0.831   8.181  1.3815  0.6092  0.3928
  151SAPE  H16Y16782   2.281   0.667   8.167  0.4232 -0.2745  0.0611
  151SAPE  C31716783   2.346   0.715   8.371 -0.4891  0.3244  0.0570
  151SAPE  H17X16784   2.287   0.623   8.388 -0.6603  0.3681 -0.2857
  151SAPE  H17Y16785   2.319   0.782   8.455  0.2579  0.8329 -0.0961
  151SAPE  C31816786   2.502   0.698   8.367 -0.0967  0.4225  0.0736
  151SAPE  H18X16787   2.541   0.683   8.470 -0.6922  0.8381  0.3595
  151SAPE  H18Y16788   2.536   0.794   8.323 -2.7813  0.9755 -1.0159
  151SAPE  H18Z16789   2.526   0.616   8.295  0.4489  1.2094 -0.6560
  152SAPE     N16790   0.039   4.478   6.253  0.1756  0.4170  0.2439
  152SAPE   HN116791   0.073   4.556   6.313  1.1790  0.6764 -0.6290
  152SAPE   HN216792  -0.063   4.488   6.235  0.1813 -0.8670 -0.6417
  152SAPE   HN316793   0.039   4.386   6.300 -0.3995  0.0150 -0.5223
  152SAPE   C1216794   0.111   4.490   6.116  0.1382 -0.6147 -0.4500
  152SAPE  H12A16795   0.219   4.478   6.139  0.6875  2.9360 -0.7132
  152SAPE  H12B16796   0.092   4.587   6.065 -0.8186 -1.2193 -1.3019
  152SAPE   C1116797   0.056   4.373   6.030  0.4911 -0.0252  0.3024
  152SAPE  H11A16798   0.079   4.391   5.922  0.9558 -0.6450  0.2892
  152SAPE  H11B16799  -0.053   4.357   6.047  0.2749 -0.2844 -1.1784
  152SAPE     P16800   0.077   4.127   6.137  0.4508 -0.3635 -0.0184
  152SAPE   O1316801   0.006   4.045   6.044  0.2150 -0.1771 -0.2690
  152SAPE   O1416802   0.190   4.068   6.214 -0.1682 -0.1217 -0.2791
  152SAPE   O1216803   0.136   4.258   6.067 -0.1123  0.1374  0.2030
  152SAPE   O1116804  -0.022   4.193   6.240 -0.4078 -0.0525  0.2382
  152SAPE    C116805  -0.083   4.111   6.339 -0.8020 -0.0712 -0.0304
  152SAPE    HA16806  -0.190   4.140   6.348 -1.0188 -1.1812  1.2576
  152SAPE    HB16807  -0.081   4.002   6.319  1.0766  0.1032 -0.9960
  152SAPE    C216808  -0.006   4.143   6.470  0.1805 -0.7118  0.7828
  152SAPE    HS16809   0.050   4.236   6.449 -0.7243 -0.2914  0.1906
  152SAPE   O2116810   0.084   4.033   6.495 -0.3551 -0.0649  0.0184
  152SAPE   C2116811   0.193   4.057   6.569 -0.2098  0.4080 -0.3404
  152SAPE   O2216812   0.213   4.162   6.625 -0.3234 -0.8621  0.0854
  152SAPE   C2216813   0.275   3.926   6.583 -0.6783 -0.4311 -0.3011
  152SAPE   H2R16814   0.210   3.843   6.549  1.0985 -1.1447 -2.1682
  152SAPE   H2S16815   0.364   3.935   6.516 -1.0639 -2.0507 -1.0748
  152SAPE    C316816  -0.100   4.167   6.586 -0.2239  0.3136  0.3410
  152SAPE    HX16817  -0.176   4.245   6.566  0.8573  1.6736  1.3569
  152SAPE    HY16818  -0.039   4.209   6.668  0.3310  0.9169 -0.3614
  152SAPE   O3116819  -0.160   4.048   6.639 -0.4904 -0.4138 -0.1325
  152SAPE   C3116820  -0.262   4.067   6.725 -0.0326 -0.2112 -0.5104
  152SAPE   O3216821  -0.299   4.168   6.777 -0.0439  0.4059 -0.1701
  152SAPE   C3216822  -0.329   3.935   6.738 -0.5897  0.0729 -0.0297
  152SAPE   H2X16823  -0.253   3.859   6.710 -0.0613 -0.0092  1.5612
  152SAPE   H2Y16824  -0.398   3.931   6.651 -0.1371  1.0334 -0.4462
  152SAPE   C2316825   0.329   3.903   6.720  0.1715 -0.8033 -0.0713
  152SAPE   H3R16826   0.408   3.975   6.752  2.7905 -3.2504 -0.6469
  152SAPE   H3S16827   0.395   3.815   6.732  2.6644  1.2245  2.5174
  152SAPE   C2416828   0.218   3.877   6.826  0.3748 -0.0869 -0.2337
  152SAPE   H4R16829   0.139   3.954   6.844  0.3777 -0.4941  1.6590
  152SAPE   H4S16830   0.270   3.872   6.924  0.7995 -1.3437 -0.5100
  152SAPE   C2516831   0.139   3.744   6.818  0.1656 -0.0288  0.5481
  152SAPE   H5R16832   0.145   3.694   6.720  0.2606  1.0809 -0.0323
  152SAPE   C2616833   0.067   3.682   6.911 -0.3740 -0.1955  0.0419
  152SAPE   H6R16834   0.019   3.594   6.865  2.0380 -0.0482 -3.1248
  152SAPE   C2716835   0.047   3.725   7.055 -0.1651 -0.3829 -0.3299
  152SAPE   H7R16836  -0.051   3.687   7.090 -1.4933  1.7201 -1.5767
  152SAPE   H7S16837   0.038   3.836   7.060  0.3972 -0.1835 -2.6762
  152SAPE   C2816838   0.146   3.670   7.151 -0.1965 -0.0867 -0.2251
  152SAPE   H8R16839   0.252   3.666   7.123 -0.0671  2.3416 -0.2411
  152SAPE   C2916840   0.124   3.641   7.280  0.4513  0.0783  1.0661
  152SAPE   H9R16841   0.207   3.593   7.333 -0.3655  0.0608  2.3671
  152SAPE  C21016842  -0.003   3.663   7.358  0.3488  0.3114 -0.7401
  152SAPE  H10R16843  -0.037   3.560   7.385  1.4937 -0.4666 -2.0902
  152SAPE  H10S16844  -0.087   3.703   7.298 -0.9788 -0.5797  0.4816
  152SAPE  C21116845   0.025   3.745   7.478  0.6151 -0.5319 -0.0310
  152SAPE  H11R16846   0.079   3.839   7.458  2.3257 -0.7235  3.0502
  152SAPE  C21216847   0.030   3.710   7.609 -0.5855 -0.1046  0.0009
  152SAPE  H12R16848   0.070   3.778   7.685 -1.7376  0.4012  0.1752
  152SAPE  C21316849  -0.000   3.573   7.666 -0.4382  0.3595 -0.3617
  152SAPE  H13R16850   0.098   3.522   7.677 -0.5767  0.5005  1.9489
  152SAPE  H13S16851  -0.065   3.515   7.596  0.2109 -2.7448  1.4193
  152SAPE  C21416852  -0.068   3.582   7.802 -0.1724  0.3947  0.2623
  152SAPE  H14R16853  -0.132   3.670   7.819 -0.5351  0.0213  0.8952
  152SAPE  C21516854  -0.040   3.497   7.900 -0.1587 -0.0608  0.3174
  152SAPE  H15R16855  -0.095   3.498   7.996 -0.4764  0.1200  0.1371
  152SAPE  C21616856   0.057   3.378   7.888 -0.3196  0.3124 -0.0753
  152SAPE  H16R16857   0.031   3.325   7.793 -0.3923 -0.0070  0.1210
  152SAPE  H16S16858   0.026   3.293   7.952  0.9666 -1.7524 -2.0170
  152SAPE  C21716859   0.208   3.401   7.893 -0.0483  0.0271  0.2321
  152SAPE  H17R16860   0.238   3.499   7.848 -1.0461  1.2040  2.0264
  152SAPE  H17S16861   0.246   3.320   7.827  1.7543  0.6725  0.4325
  152SAPE  C21816862   0.265   3.383   8.036 -1.4573 -0.1264  0.4048
  152SAPE  H18R16863   0.374   3.380   8.015 -1.6304 -0.9503 -0.4065
  152SAPE  H18S16864   0.238   3.284   8.078  0.1564 -0.9333 -0.3839
  152SAPE  C21916865   0.230   3.501   8.136  0.4132 -0.1307  0.4682
  152SAPE  H19R16866   0.122   3.524   8.132  0.7937  1.7766  0.0548
  152SAPE  H19S16867   0.274   3.593   8.091 -0.0035 -0.3210 -0.3461
  152SAPE  C22016868   0.275   3.481   8.278 -0.0451 -0.1001  0.1385
  152SAPE  H20R16869   0.384   3.462   8.286  0.6200  2.7450 -0.9542
  152SAPE  H20S16870   0.216   3.392   8.308 -0.1696  0.0685  0.3914
  152SAPE  H20T16871   0.252   3.568   8.343 -0.9039  1.9370 -2.6869
  152SAPE   C3316872  -0.390   3.896   6.878 -0.4717 -0.6263  0.2219
  152SAPE   H3X16873  -0.442   3.798   6.870 -1.1034 -0.1679 -2.2867
  152SAPE   H3Y16874  -0.469   3.967   6.909 -1.0661 -0.3550 -1.7599
  152SAPE   C3416875  -0.287   3.903   6.987 -0.5364  0.6522  0.1995
  152SAPE   H4X16876  -0.247   4.006   6.981 -1.0702  0.9307  1.2146
  152SAPE   H4Y16877  -0.207   3.830   6.961 -3.0901 -1.3543 -2.7898
  152SAPE   C3516878  -0.337   3.889   7.134 -0.6344 -0.0976 -0.6785
  152SAPE   H5X16879  -0.416   3.967   7.143  1.4223  2.1337 -0.9129
  152SAPE   H5Y16880  -0.260   3.913   7.210  0.5138 -0.2501 -1.7689
  152SAPE   C3616881  -0.396   3.748   7.145 -0.1464 -0.5954 -0.3450
  152SAPE   H6X16882  -0.324   3.682   7.093  1.9704 -0.3292  2.0310
  152SAPE   H6Y16883  -0.491   3.734   7.089 -0.0150 -0.9042 -0.4951
  152SAPE   C3716884  -0.434   3.708   7.289 -0.1823  0.2775 -0.4710
  152SAPE   H7X16885  -0.509   3.777   7.333 -3.5212 -2.7923 -0.9045
  152SAPE   H7Y16886  -0.343   3.710   7.353  1.8688 -1.7357 -3.0933
  152SAPE   C3816887  -0.502   3.568   7.310 -0.0736 -0.2375  0.1383
  152SAPE   H8X16888  -0.452   3.489   7.251  0.9970  0.7963 -0.3731
  152SAPE   H8Y16889  -0.607   3.581   7.275  0.1635 -0.1921 -0.5618
  152SAPE   C3916890  -0.497   3.534   7.462  0.1821 -1.0230 -0.3611
  152SAPE   H9X16891  -0.397   3.534   7.510 -0.5751 -0.3799  1.2650
  152SAPE   H9Y16892  -0.534   3.430   7.472 -0.3718 -0.6131  2.4825
  152SAPE  C31016893  -0.585   3.634   7.548  0.0923  0.0824 -0.6984
  152SAPE  H10X16894  -0.666   3.662   7.477  0.1427 -0.3241 -0.9192
  152SAPE  H10Y16895  -0.523   3.725   7.555  0.1792 -0.0621  0.7836
  152SAPE  C31116896  -0.629   3.570   7.678  0.3881 -0.0561 -0.1858
  152SAPE  H11X16897  -0.539   3.512   7.707  1.4356  0.7502 -1.6919
  152SAPE  H11Y16898  -0.714   3.501   7.657 -0.7278  0.7939  1.2802
  152SAPE  C31216899  -0.674   3.656   7.790  0.1393  0.6016  0.7277
  152SAPE  H12X16900  -0.720   3.596   7.871  0.8902  1.2445  1.6611
  152SAPE  H12Y16901  -0.757   3.724   7.761 -2.3315 -1.8318  1.6334
  152SAPE  C31316902  -0.559   3.741   7.850  0.5759 -0.2203 -0.0271
  152SAPE  H13X16903  -0.619   3.808   7.914 -0.7914 -2.0941  0.7584
  152SAPE  H13Y16904  -0.515   3.797   7.764  0.3968  3.1331  1.9126
  152SAPE  C31416905  -0.456   3.675   7.929  0.2868  0.4482 -0.2428
  152SAPE  H14X16906  -0.366   3.736   7.952 -0.2985  0.9427  0.7944
  152SAPE  H14Y16907  -0.416   3.588   7.872 -1.5651 -2.7007  2.8400
  152SAPE  C31516908  -0.513   3.623   8.059 -0.1276  0.9637 -0.0396
  152SAPE  H15X16909  -0.610   3.570   8.045  0.3117 -0.1760  1.0636
  152SAPE  H15Y16910  -0.548   3.706   8.124  2.1558  0.4354  2.0151
  152SAPE  C31616911  -0.421   3.527   8.128 -0.2116  0.9148 -0.3460
  152SAPE  H16X16912  -0.319   3.570   8.137  0.1601 -0.3659  2.2858
  152SAPE  H16Y16913  -0.414   3.439   8.061  1.7671  2.4087 -2.2304
  152SAPE  C31716914  -0.479   3.483   8.264  0.7237  0.2133  0.4079
  152SAPE  H17X16915  -0.574   3.435   8.230  1.0314  0.9756 -1.6780
  152SAPE  H17Y16916  -0.494   3.571   8.330 -2.8230 -0.8498  1.2521
  152SAPE  C31816917  -0.384   3.387   8.355  0.4643 -0.2316  0.9681
  152SAPE  H18X16918  -0.358   3.286   8.317  0.2672 -0.2066  0.7569
  152SAPE  H18Y16919  -0.443   3.365   8.446  1.5219 -0.9219  1.5033
  152SAPE  H18Z16920  -0.293   3.438   8.391 -0.5952  1.3291  1.5357
  153SAPE     N16921   3.159   4.969   6.302 -0.1049 -0.0437  0.3384
  153SAPE   HN116922   3.112   5.057   6.273 -1.1686 -1.2971 -1.9613
  153SAPE   HN216923   3.140   4.943   6.401 -0.9706  0.3139  0.2736
  153SAPE   HN316924   3.258   4.997   6.290 -0.9358  2.3416 -1.7128
  153SAPE   C1216925   3.113   4.869   6.204  0.0483  0.2893 -0.0302
  153SAPE  H12A16926   3.174   4.776   6.211 -1.4871 -0.8964 -1.3463
  153SAPE  H12B16927   3.125   4.918   6.105 -1.1080 -1.5467 -1.1599
  153SAPE   C1116928   2.959   4.828   6.216 -0.2842  0.3240  0.7507
  153SAPE  H11A16929   2.922   4.752   6.144 -0.2823  0.3396  0.7337
  153SAPE  H11B16930   2.903   4.923   6.202  0.4861  0.8640  1.2129
  153SAPE     P16931   2.987   4.628   6.403  0.2450 -0.1026 -0.3638
  153SAPE   O1316932   2.937   4.610   6.541  0.0730  0.8666  0.0316
  153SAPE   O1416933   2.953   4.522   6.296 -0.2232 -0.2721 -0.4654
  153SAPE   O1216934   2.935   4.770   6.345 -0.6881  0.6643 -0.5488
  153SAPE   O1116935   3.148   4.644   6.393  0.2998  0.0408  0.1836
  153SAPE    C116936   3.234   4.528   6.380  0.2125 -0.5166 -0.1257
  153SAPE    HA16937   3.203   4.467   6.291 -1.3728 -3.5281  2.2805
  153SAPE    HB16938   3.339   4.560   6.364  0.5674 -0.0264  2.7935
  153SAPE    C216939   3.233   4.442   6.506  0.3199 -0.5499 -0.2753
  153SAPE    HS16940   3.133   4.395   6.519  0.4935 -0.8830 -0.1493
  153SAPE   O2116941   3.263   4.530   6.616 -0.0841  0.4449 -0.0449
  153SAPE   C2116942   3.223   4.482   6.736 -0.1013 -0.5971  0.5535
  153SAPE   O2216943   3.142   4.394   6.759 -0.0944 -0.7860 -0.2265
  153SAPE   C2216944   3.283   4.564   6.854  0.8379 -0.1775  0.1668
  153SAPE   H2R16945   3.338   4.649   6.807  0.8301 -0.1990  0.1192
  153SAPE   H2S16946   3.193   4.598   6.909  1.3147  2.1327 -0.3504
  153SAPE    C316947   3.332   4.325   6.493  0.2063 -0.1992  0.0724
  153SAPE    HX16948   3.300   4.268   6.403 -2.6049  0.5395  0.4863
  153SAPE    HY16949   3.321   4.263   6.584  2.7856  2.6612  2.5469
  153SAPE   O3116950   3.462   4.371   6.481  0.2038  0.0856 -0.4985
  153SAPE   C3116951   3.541   4.376   6.595  0.4326 -0.5056  0.0046
  153SAPE   O3216952   3.499   4.339   6.704  0.6704  0.7873  0.2044
  153SAPE   C3216953   3.681   4.432   6.558 -0.3632 -0.3029  0.4753
  153SAPE   H2X16954   3.675   4.465   6.451  0.4445 -0.6549  0.3122
  153SAPE   H2Y16955   3.755   4.351   6.545  0.3287  0.2398  0.9520
  153SAPE   C2316956   3.371   4.483   6.953  0.2832  0.0368  0.1159
  153SAPE   H3R16957   3.463   4.459   6.896  0.6179 -2.0540  1.4358
  153SAPE   H3S16958   3.324   4.391   6.994  3.4143 -2.0727 -0.6583
  153SAPE   C2416959   3.435   4.573   7.065 -0.2726  0.7102  0.1646
  153SAPE   H4R16960   3.520   4.624   7.015 -0.4458 -1.2674 -2.2902
  153SAPE   H4S16961   3.475   4.497   7.136  0.3442  0.1650 -0.7525
  153SAPE   C2516962   3.332   4.665   7.134 -0.4733 -0.1380 -0.0811
  153SAPE   H5R16963   3.300   4.744   7.065  1.5559 -0.3871 -1.3956
  153SAPE   C2616964   3.292   4.672   7.265  0.6589  0.5709 -0.2346
  153SAPE   H6R16965   3.224   4.751   7.300 -1.2851 -0.8755 -0.5567
  153SAPE   C2716966   3.340   4.576   7.370 -0.0758  0.6320 -0.1514
  153SAPE   H7R16967   3.413   4.623   7.439 -1.1665 -0.4471  1.8254
  153SAPE   H7S16968   3.395   4.493   7.320 -0.4723  0.7111 -0.7379
  153SAPE   C2816969   3.229   4.523   7.453 -0.0352  0.1673 -0.5674
  153SAPE   H8R16970   3.165   4.448   7.404  0.7234 -1.0476  0.2440
  153SAPE   C2916971   3.206   4.542   7.589  0.1661 -0.1456 -0.0326
  153SAPE   H9R16972   3.119   4.490   7.631  0.9284 -0.3601  1.3337
  153SAPE  C21016973   3.283   4.628   7.690  0.4585 -0.2824  0.9079
  153SAPE  H10R16974   3.229   4.718   7.725 -2.8472 -0.7171 -2.4763
  153SAPE  H10S16975   3.375   4.670   7.642 -0.4590  0.7871  0.0252
  153SAPE  C21116976   3.317   4.536   7.805  0.1903 -0.4929  0.4911
  153SAPE  H11R16977   3.386   4.452   7.791  1.0162  0.0770  1.0299
  153SAPE  C21216978   3.264   4.549   7.935  0.1063 -0.2341 -0.7103
  153SAPE  H12R16979   3.302   4.479   8.010  1.7238 -1.4536 -2.5636
  153SAPE  C21316980   3.167   4.655   7.984 -0.4872  0.3349  0.7062
  153SAPE  H13R16981   3.101   4.629   8.069  1.6095  0.8732  2.6022
  153SAPE  H13S16982   3.098   4.680   7.901  0.2555 -0.4631 -0.1710
  153SAPE  C21416983   3.240   4.784   8.025 -0.3043  0.4236 -0.6029
  153SAPE  H14R16984   3.331   4.820   7.975  0.2781 -0.8077 -0.4813
  153SAPE  C21516985   3.187   4.876   8.111  0.0983  0.4980  0.3603
  153SAPE  H15R16986   3.234   4.969   8.145  0.8096  0.8991 -1.5975
  153SAPE  C21616987   3.059   4.865   8.183 -0.4266 -0.1776  0.1314
  153SAPE  H16R16988   2.980   4.821   8.118 -0.5259 -0.6661  0.5780
  153SAPE  H16S16989   3.024   4.970   8.197 -0.2767 -0.1150  0.0400
  153SAPE  C21716990   3.074   4.812   8.326 -0.3908  0.2631 -0.8456
  153SAPE  H17R16991   3.165   4.855   8.372 -0.3006 -1.5273  0.7972
  153SAPE  H17S16992   3.081   4.702   8.340 -0.4053  0.3249 -0.3509
  153SAPE  C21816993   2.954   4.862   8.416  0.3544 -0.2272 -0.5714
  153SAPE  H18R16994   2.850   4.825   8.402  1.2996 -2.6243 -2.0302
  153SAPE  H18S16995   2.956   4.973   8.415 -0.0495 -0.2176 -0.9155
  153SAPE  C21916996   2.976   4.841   8.568 -0.0033  0.3051  0.0598
  153SAPE  H19R16997   3.059   4.908   8.600  0.8386  0.3025 -1.9928
  153SAPE  H19S16998   2.999   4.737   8.599 -2.8197  0.4302  3.1073
  153SAPE  C22016999   2.855   4.878   8.645 -0.2227  0.1464  0.1530
  153SAPE  H20R17000   2.763   4.861   8.584 -0.0379  2.7125 -0.9979
  153SAPE  H20S17001   2.848   4.984   8.676 -0.8895 -0.0471  0.6798
  153SAPE  H20T17002   2.842   4.808   8.730  0.8555  0.3811  0.5153
  153SAPE   C3317003   3.735   4.541   6.651 -0.6631  0.5631 -0.5939
  153SAPE   H3X17004   3.667   4.629   6.657 -0.7050  0.4756  0.5394
  153SAPE   H3Y17005   3.821   4.584   6.596  0.1089 -0.1567  0.0251
  153SAPE   C3417006   3.793   4.488   6.783  0.0135 -0.5196 -0.0987
  153SAPE   H4X17007   3.865   4.404   6.777  1.8260  0.8453  1.2542
  153SAPE   H4Y17008   3.709   4.463   6.851  0.0759 -2.0819 -0.5759
  153SAPE   C3517009   3.878   4.582   6.862 -0.3636  0.2595  0.2529
  153SAPE   H5X17010   3.841   4.686   6.875  2.6972  1.8630 -2.4837
  153SAPE   H5Y17011   3.977   4.601   6.816 -0.0432 -1.6956  0.0221
  153SAPE   C3617012   3.930   4.531   6.997 -0.0618 -0.3325  0.0924
  153SAPE   H6X17013   3.984   4.612   7.051 -0.6977  0.0575  0.1488
  153SAPE   H6Y17014   4.008   4.452   6.986 -0.9787 -1.1731 -0.5274
  153SAPE   C3717015   3.824   4.490   7.096 -0.4780  0.7436  0.0547
  153SAPE   H7X17016   3.792   4.385   7.079  1.8116 -0.5196  2.6850
  153SAPE   H7Y17017   3.748   4.571   7.094  0.3489  1.5260 -0.9852
  153SAPE   C3817018   3.874   4.492   7.242 -0.4869 -0.5467  0.2840
  153SAPE   H8X17019   3.894   4.599   7.265 -0.8150 -0.8417  2.0191
  153SAPE   H8Y17020   3.961   4.424   7.247 -1.2717 -1.9643 -2.8286
  153SAPE   C3917021   3.772   4.436   7.343  0.1424 -0.2805 -0.3904
  153SAPE   H9X17022   3.739   4.344   7.289 -0.6061  1.3595 -2.9144
  153SAPE   H9Y17023   3.683   4.502   7.346  0.6575  0.4191 -0.0989
  153SAPE  C31017024   3.829   4.415   7.489  0.3804 -0.5775  0.8039
  153SAPE  H10X17025   3.864   4.512   7.529  1.2156 -0.5369  0.0141
  153SAPE  H10Y17026   3.925   4.358   7.488  0.0011 -1.2340  0.8651
  153SAPE  C31117027   3.736   4.346   7.584 -0.1961 -0.3200 -0.9553
  153SAPE  H11X17028   3.715   4.238   7.570 -2.9486 -0.4035  2.4096
  153SAPE  H11Y17029   3.637   4.397   7.591  0.1925  0.2593  3.5647
  153SAPE  C31217030   3.790   4.355   7.731 -0.7247 -0.1175  0.5868
  153SAPE  H12X17031   3.849   4.449   7.725 -0.0738 -0.5086  0.7441
  153SAPE  H12Y17032   3.875   4.284   7.741  0.9935  1.9302  1.4383
  153SAPE  C31317033   3.702   4.366   7.858  0.1935 -0.6255  0.2325
  153SAPE  H13X17034   3.648   4.270   7.876  0.0712 -0.2545  2.0338
  153SAPE  H13Y17035   3.628   4.447   7.843  1.1294 -0.0459 -1.4911
  153SAPE  C31417036   3.777   4.414   7.990  0.7112  0.0388  0.0581
  153SAPE  H14X17037   3.799   4.523   7.982  1.4989 -0.1164  0.0390
  153SAPE  H14Y17038   3.871   4.356   7.999 -1.1227 -2.8999  2.1162
  153SAPE  C31517039   3.692   4.375   8.115 -0.0955  0.2396  0.3875
  153SAPE  H15X17040   3.659   4.270   8.098 -1.1708  0.4772  0.9543
  153SAPE  H15Y17041   3.598   4.434   8.110  0.8019  1.7413  0.7014
  153SAPE  C31617042   3.760   4.393   8.246  0.1125 -0.5878 -0.0708
  153SAPE  H16X17043   3.824   4.303   8.256 -2.5273 -2.4552  1.2032
  153SAPE  H16Y17044   3.679   4.381   8.322 -0.0827  2.2718  0.2928
  153SAPE  C31717045   3.843   4.522   8.268 -0.1607 -0.3302  0.5358
  153SAPE  H17X17046   3.778   4.612   8.276  0.8452  0.2422  3.3536
  153SAPE  H17Y17047   3.909   4.536   8.180 -0.2902  0.4741  0.5599
  153SAPE  C31817048   3.917   4.524   8.402 -0.2895 -0.0975 -0.1522
  153SAPE  H18X17049   4.016   4.473   8.399 -0.1799  0.1386 -2.0166
  153SAPE  H18Y17050   3.858   4.468   8.477 -1.0224 -0.0204 -0.6540
  153SAPE  H18Z17051   3.931   4.626   8.441  0.0227 -0.8111  1.6813
  154SAPE     N17052   0.443   4.052   6.200 -0.3918 -0.0457 -0.8934
  154SAPE   HN117053   0.484   3.962   6.231  0.2681  0.0018 -1.6096
  154SAPE   HN217054   0.486   4.131   6.252 -2.5703 -0.3494  1.6083
  154SAPE   HN317055   0.341   4.065   6.217 -0.5142 -1.9077  0.0363
  154SAPE   C1217056   0.473   4.064   6.051 -0.6819  0.6017 -0.6446
  154SAPE  H12A17057   0.468   4.169   6.015  1.1562  1.1756  0.6367
  154SAPE  H12B17058   0.400   4.000   5.997 -0.1065 -0.4511 -0.2020
  154SAPE   C1117059   0.615   4.017   6.025  0.3517 -0.3149 -0.3825
  154SAPE  H11A17060   0.686   4.102   6.030  0.4725 -0.4682  2.0758
  154SAPE  H11B17061   0.616   3.993   5.917  1.9625  3.5158 -1.3438
  154SAPE     P17062   0.804   3.859   6.099 -0.0435  0.4512 -0.0518
  154SAPE   O1317063   0.794   3.724   6.036  1.0556  0.3728  0.0347
  154SAPE   O1417064   0.895   3.962   6.036  0.2813  0.8052  0.3864
  154SAPE   O1217065   0.652   3.908   6.103 -0.6411  0.0500  0.0840
  154SAPE   O1117066   0.839   3.843   6.248 -0.1087  0.5500  0.3824
  154SAPE    C117067   0.800   3.943   6.343 -0.0732 -0.2154  0.1574
  154SAPE    HA17068   0.749   4.032   6.301  0.7836  0.0777 -0.2709
  154SAPE    HB17069   0.725   3.904   6.416 -2.1834  0.6078 -1.4482
  154SAPE    C217070   0.932   4.000   6.406  0.0226  0.4231  0.1327
  154SAPE    HS17071   0.972   4.070   6.330 -2.9513  0.8091 -1.2069
  154SAPE   O2117072   1.015   3.886   6.452  0.4591 -0.4421 -0.4580
  154SAPE   C2117073   1.140   3.922   6.449  0.3302  0.7333 -0.3556
  154SAPE   O2217074   1.188   4.015   6.387 -0.0861 -0.7539 -0.4714
  154SAPE   C2217075   1.214   3.815   6.537  0.9277 -0.6664  0.1883
  154SAPE   H2R17076   1.158   3.819   6.632 -2.2929  1.5229 -1.6184
  154SAPE   H2S17077   1.207   3.717   6.485 -2.8785 -1.6841  2.2982
  154SAPE    C317078   0.879   4.085   6.530  0.2949 -0.4244 -0.1330
  154SAPE    HX17079   0.823   4.020   6.601 -1.8387 -0.6709 -1.9478
  154SAPE    HY17080   0.807   4.163   6.496  0.1191 -1.3532 -1.9991
  154SAPE   O3117081   0.984   4.152   6.602 -0.1488 -0.1873  0.1608
  154SAPE   C3117082   0.953   4.223   6.710  0.1436 -0.1683  0.9834
  154SAPE   O3217083   0.836   4.239   6.743  0.3910 -0.3969  0.0189
  154SAPE   C3217084   1.077   4.271   6.784 -0.0551 -0.1722  0.0877
  154SAPE   H2X17085   1.048   4.366   6.834 -2.0503 -0.6804 -0.0470
  154SAPE   H2Y17086   1.146   4.299   6.702  1.2346 -1.6056  0.6310
  154SAPE   C2317087   1.359   3.874   6.560  0.4188  0.0154  0.1818
  154SAPE   H3R17088   1.400   3.918   6.467  0.9516 -1.2467 -0.2122
  154SAPE   H3S17089   1.437   3.795   6.572  0.5240 -0.0451 -0.7710
  154SAPE   C2417090   1.363   3.991   6.664  0.0046  0.2695 -0.5988
  154SAPE   H4R17091   1.339   3.952   6.765  1.9829 -0.1210 -0.2437
  154SAPE   H4S17092   1.282   4.059   6.628 -0.6714 -1.1848 -1.9549
  154SAPE   C2517093   1.498   4.060   6.680  0.0644 -0.3668 -0.3719
  154SAPE   H5R17094   1.533   4.107   6.587 -0.3003 -1.2934 -0.9844
  154SAPE   C2617095   1.567   4.077   6.799  0.1249 -0.3983  0.8603
  154SAPE   H6R17096   1.670   4.115   6.793  0.1208 -0.1978  1.8802
  154SAPE   C2717097   1.519   4.027   6.934 -0.3173  0.6035  0.1313
  154SAPE   H7R17098   1.593   3.949   6.962  0.5512  1.2886 -0.1746
  154SAPE   H7S17099   1.416   3.988   6.939 -0.4493  0.9709  0.3371
  154SAPE   C2817100   1.516   4.154   7.023 -0.2884 -0.2499  0.9268
  154SAPE   H8R17101   1.495   4.247   6.969 -2.2258 -0.3225  1.4702
  154SAPE   C2917102   1.530   4.158   7.157 -1.3140 -0.5157  0.2508
  154SAPE   H9R17103   1.522   4.260   7.197 -1.1100 -0.2188 -0.4503
  154SAPE  C21017104   1.551   4.032   7.241  0.6454 -0.1007  0.8986
  154SAPE  H10R17105   1.654   4.044   7.280  0.6751  0.3455  0.6914
  154SAPE  H10S17106   1.553   3.939   7.180 -0.1038  1.9449 -2.5528
  154SAPE  C21117107   1.451   4.007   7.355 -0.6163 -0.1932  0.1207
  154SAPE  H11R17108   1.352   3.962   7.334 -0.5170 -0.8921  1.0767
  154SAPE  C21217109   1.456   4.048   7.474 -0.3668  0.1429 -0.5642
  154SAPE  H12R17110   1.380   4.022   7.548 -0.8542  1.9315 -0.3856
  154SAPE  C21317111   1.553   4.141   7.548  0.5831  0.6157 -0.1976
  154SAPE  H13R17112   1.628   4.178   7.475  0.9954 -1.0206 -0.6484
  154SAPE  H13S17113   1.589   4.085   7.638 -0.3102  1.3936  0.6644
  154SAPE  C21417114   1.464   4.253   7.596 -0.0344  0.2480  0.2000
  154SAPE  H14R17115   1.440   4.322   7.514  0.6942 -1.4549 -1.5159
  154SAPE  C21517116   1.409   4.279   7.715  0.3873  0.0811  0.1319
  154SAPE  H15R17117   1.356   4.375   7.724  0.3908  0.2161 -1.1701
  154SAPE  C21617118   1.418   4.199   7.846  0.0057 -0.1252  0.7993
  154SAPE  H16R17119   1.516   4.147   7.851  0.0267 -0.7529 -3.2190
  154SAPE  H16S17120   1.341   4.120   7.843  0.4574 -0.5419 -0.6119
  154SAPE  C21717121   1.376   4.282   7.969 -0.5595 -0.0586  0.2733
  154SAPE  H17R17122   1.438   4.375   7.972 -0.0486 -0.4130  0.8684
  154SAPE  H17S17123   1.388   4.222   8.062  1.0823 -0.5926 -0.2466
  154SAPE  C21817124   1.228   4.330   7.982  0.5666 -0.1104  0.0746
  154SAPE  H18R17125   1.144   4.259   7.965 -1.9142  2.2071  1.8597
  154SAPE  H18S17126   1.227   4.397   7.894 -0.0145  0.0993  0.2352
  154SAPE  C21917127   1.190   4.427   8.098 -0.5185  0.0555  0.2006
  154SAPE  H19R17128   1.272   4.498   8.121 -1.5160  1.9242 -1.7337
  154SAPE  H19S17129   1.178   4.363   8.188  0.8003  0.0663  0.3932
  154SAPE  C22017130   1.061   4.510   8.090 -0.2310 -0.1178 -0.1890
  154SAPE  H20R17131   0.968   4.451   8.079  0.7016 -1.2079 -3.1021
  154SAPE  H20S17132   1.073   4.590   8.015 -1.9918  1.0885  0.7420
  154SAPE  H20T17133   1.044   4.574   8.179 -1.2723  1.1139 -1.2516
  154SAPE   C3317134   1.141   4.165   6.883 -0.5177  0.0104 -0.5025
  154SAPE   H3X17135   1.235   4.215   6.918 -1.1572 -0.5726  2.3442
  154SAPE   H3Y17136   1.166   4.062   6.852 -1.4206 -0.4799  0.3326
  154SAPE   C3417137   1.060   4.159   7.016 -0.6278  0.3489  0.1699
  154SAPE   H4X17138   0.974   4.090   6.998  0.1857 -0.9526  1.0859
  154SAPE   H4Y17139   1.037   4.266   7.034 -0.8216  0.9384 -3.0141
  154SAPE   C3517140   1.139   4.077   7.124  0.1580  0.0304 -0.3948
  154SAPE   H5X17141   1.209   4.146   7.175 -3.3047  2.5560  1.4037
  154SAPE   H5Y17142   1.204   3.997   7.083 -0.8850 -0.8965 -0.2803
  154SAPE   C3617143   1.055   4.024   7.236 -0.1963  0.7894  0.5818
  154SAPE   H6X17144   1.124   3.958   7.292  1.6545 -0.5333 -2.9653
  154SAPE   H6Y17145   0.974   3.963   7.191  0.0738  0.2383  0.8414
  154SAPE   C3717146   0.994   4.134   7.310 -0.9413 -0.5358 -0.6756
  154SAPE   H7X17147   0.903   4.104   7.365 -1.0693  1.6759  0.4277
  154SAPE   H7Y17148   0.970   4.210   7.233 -0.1256 -0.8618 -1.2699
  154SAPE   C3817149   1.084   4.194   7.423  0.2998  0.1213  0.6386
  154SAPE   H8X17150   1.042   4.294   7.446 -0.4993  0.6541 -2.6727
  154SAPE   H8Y17151   1.184   4.228   7.390  0.1305  1.0831  1.0827
  154SAPE   C3917152   1.104   4.102   7.541 -0.0662 -0.4181  0.2387
  154SAPE   H9X17153   1.187   4.143   7.601  0.4513 -1.7417  0.4737
  154SAPE   H9Y17154   1.151   4.006   7.509  1.7864  0.7724 -0.8021
  154SAPE  C31017155   0.972   4.097   7.631 -0.3028  0.2825  0.1642
  154SAPE  H10X17156   0.903   4.038   7.567 -0.0543  1.1062 -0.8920
  154SAPE  H10Y17157   0.940   4.203   7.639  0.7441  0.8422 -2.1411
  154SAPE  C31117158   0.991   4.036   7.768 -0.5326  0.0588  0.6718
  154SAPE  H11X17159   1.066   4.096   7.824  0.0612 -1.2364  1.3137
  154SAPE  H11Y17160   1.045   3.940   7.757  1.8563  1.5318 -1.3041
  154SAPE  C31217161   0.867   4.018   7.844 -0.3663  0.2282  0.1184
  154SAPE  H12X17162   0.800   3.966   7.772  0.7671  1.9665 -2.3373
  154SAPE  H12Y17163   0.825   4.117   7.873  1.7885  1.1269  0.3535
  154SAPE  C31317164   0.883   3.939   7.973 -0.1745  0.2870  0.3753
  154SAPE  H13X17165   0.948   3.852   7.951  1.4722  1.8755 -1.4693
  154SAPE  H13Y17166   0.779   3.905   7.994 -0.3154  0.0555 -0.6391
  154SAPE  C31417167   0.926   4.028   8.090 -0.1653 -0.2284  0.0147
  154SAPE  H14X17168   0.860   4.117   8.088  1.1429  0.7647 -0.3764
  154SAPE  H14Y17169   1.022   4.078   8.065 -0.9660  1.3643  0.0039
  154SAPE  C31517170   0.911   3.963   8.224  0.2299 -0.0918 -1.2965
  154SAPE  H15X17171   0.989   3.890   8.254 -2.3460 -1.1934  3.5418
  154SAPE  H15Y17172   0.813   3.911   8.230 -0.8513  1.7794 -1.8551
  154SAPE  C31617173   0.893   4.073   8.332 -0.4029 -0.0773  0.1085
  154SAPE  H16X17174   0.818   4.141   8.286 -0.9949 -1.2821 -0.7690
  154SAPE  H16Y17175   0.991   4.123   8.345 -0.1737 -0.6299  0.5692
  154SAPE  C31717176   0.840   4.013   8.457 -0.0214 -0.2642 -0.4884
  154SAPE  H17X17177   0.893   3.916   8.466 -0.3895 -0.3606  0.7733
  154SAPE  H17Y17178   0.731   3.990   8.456  0.3054 -1.9573 -1.4471
  154SAPE  C31817179   0.879   4.098   8.579 -0.1213 -0.2277 -0.0293
  154SAPE  H18X17180   0.799   4.079   8.655 -0.6481 -1.7804 -0.9268
  154SAPE  H18Y17181   0.887   4.207   8.559 -1.7521  0.1614  1.2336
  154SAPE  H18Z17182   0.978   4.063   8.615 -0.5677 -2.0543 -0.4968
  155SAPE     N17183   2.439   4.306   6.250  0.1677 -0.3490  0.4601
  155SAPE   HN117184   2.438   4.204   6.230 -0.7939 -0.2863  0.1563
  155SAPE   HN217185   2.395   4.355   6.170  1.4901 -1.5207 -1.0510
  155SAPE   HN317186   2.534   4.348   6.263 -0.6907  1.9715 -0.1764
  155SAPE   C1217187   2.355   4.311   6.382  0.2356 -0.0322  0.2469
  155SAPE  H12A17188   2.359   4.415   6.423 -0.3223  0.0472  0.1035
  155SAPE  H12B17189   2.404   4.244   6.456  2.1947 -1.3499 -2.1196
  155SAPE   C1117190   2.209   4.278   6.353 -0.5899  0.1152  0.2546
  155SAPE  H11A17191   2.167   4.363   6.294 -0.3554 -0.0260 -0.1155
  155SAPE  H11B17192   2.153   4.292   6.448  0.3037  1.2288  0.6490
  155SAPE     P17193   2.070   4.061   6.330 -0.0051 -0.0510 -0.2491
  155SAPE   O1317194   1.953   4.087   6.244 -0.2760  0.2726 -0.2923
  155SAPE   O1417195   2.113   3.920   6.320 -0.3248 -0.4277 -0.1566
  155SAPE   O1217196   2.186   4.149   6.286  0.1395 -0.4341  0.2618
  155SAPE   O1117197   2.037   4.100   6.483 -0.4369  0.3498 -0.0319
  155SAPE    C117198   2.075   4.001   6.582  0.1926 -0.0733  0.3083
  155SAPE    HA17199   2.046   3.900   6.546 -1.3490  0.6336 -0.5282
  155SAPE    HB17200   2.184   4.001   6.605 -0.0379 -0.6616  1.4639
  155SAPE    C217201   2.001   4.018   6.714  1.1815  0.2223  0.3120
  155SAPE    HS17202   1.893   3.996   6.701  1.3362  0.2605 -1.3507
  155SAPE   O2117203   2.013   4.156   6.754 -0.9193  0.1723  0.0483
  155SAPE   C2117204   1.935   4.246   6.697  0.2251 -0.0608 -0.6307
  155SAPE   O2217205   1.832   4.221   6.635  0.1815  1.0436  0.1512
  155SAPE   C2217206   1.987   4.386   6.733  0.3225  0.4499  0.3839
  155SAPE   H2R17207   2.079   4.382   6.795  1.3797 -1.2987 -1.2089
  155SAPE   H2S17208   2.016   4.420   6.632  0.2313 -0.9730 -0.1358
  155SAPE    C317209   2.057   3.929   6.827 -0.0167 -0.5126 -0.0606
  155SAPE    HX17210   2.158   3.972   6.841  0.1021 -0.5590 -0.7540
  155SAPE    HY17211   2.057   3.823   6.793 -1.5376 -0.2312 -1.0781
  155SAPE   O3117212   1.979   3.941   6.948 -0.1572  0.0602  0.4073
  155SAPE   C3117213   2.040   3.918   7.063  0.4268 -0.3097 -0.2580
  155SAPE   O3217214   2.157   3.888   7.080  0.6802  0.2182 -0.4975
  155SAPE   C3217215   1.932   3.924   7.167 -0.4408  0.1743  0.8952
  155SAPE   H2X17216   1.837   3.886   7.123 -0.4050 -0.2766  1.1997
  155SAPE   H2Y17217   1.908   4.027   7.199 -1.1955 -0.0034  0.9352
  155SAPE   C2317218   1.881   4.490   6.790 -0.6145 -0.0059 -0.0619
  155SAPE   H3R17219   1.781   4.482   6.742 -0.6744 -0.3185  0.1110
  155SAPE   H3S17220   1.910   4.597   6.777 -0.6181  0.1471  1.1091
  155SAPE   C2417221   1.848   4.451   6.933 -0.2955 -0.2566  0.1666
  155SAPE   H4R17222   1.801   4.352   6.946 -2.4210  0.8483  1.4534
  155SAPE   H4S17223   1.766   4.516   6.971 -1.7564 -3.4478  2.9466
  155SAPE   C2517224   1.969   4.466   7.021  0.0291  0.2329  0.0133
  155SAPE   H5R17225   2.050   4.530   6.984 -0.4161  0.6580 -0.2355
  155SAPE   C2617226   1.982   4.414   7.147  0.6522  0.1294 -0.3211
  155SAPE   H6R17227   2.082   4.408   7.192  1.1352 -0.0710 -1.3872
  155SAPE   C2717228   1.875   4.340   7.224 -0.2740  0.0914 -0.3694
  155SAPE   H7R17229   1.918   4.325   7.326 -0.1591 -1.0556 -0.5704
  155SAPE   H7S17230   1.861   4.246   7.166  3.1995  0.4799 -2.0697
  155SAPE   C2817231   1.743   4.412   7.248 -0.0030 -0.1511 -0.0481
  155SAPE   H8R17232   1.686   4.430   7.156  0.0077  2.7651  0.4105
  155SAPE   C2917233   1.697   4.464   7.363  1.2394  0.5573 -0.0527
  155SAPE   H9R17234   1.602   4.520   7.358  1.8724  1.5717 -1.1882
  155SAPE  C21017235   1.771   4.461   7.496 -0.6109  0.5684  0.2494
  155SAPE  H10R17236   1.777   4.365   7.552  2.0382 -0.0768 -1.0206
  155SAPE  H10S17237   1.707   4.517   7.568 -2.4625  0.7203 -1.4389
  155SAPE  C21117238   1.906   4.523   7.502  0.3728 -0.1806 -0.3524
  155SAPE  H11R17239   1.941   4.568   7.408  1.5580  1.9449  1.0171
  155SAPE  C21217240   1.988   4.528   7.607 -0.4072  0.3772 -0.3459
  155SAPE  H12R17241   2.077   4.592   7.595  0.4873 -0.9448 -0.8845
  155SAPE  C21317242   1.959   4.475   7.744 -0.4377  0.3754 -0.3126
  155SAPE  H13R17243   1.852   4.451   7.760 -0.2413  0.6359  1.5656
  155SAPE  H13S17244   1.995   4.554   7.813  2.0487  0.3294 -1.4294
  155SAPE  C21417245   2.031   4.343   7.780  0.9242 -0.4926  0.2353
  155SAPE  H14R17246   2.080   4.281   7.704  2.0189  0.1063  0.4244
  155SAPE  C21517247   2.039   4.292   7.902 -0.4653 -0.1756  0.2791
  155SAPE  H15R17248   2.106   4.204   7.901  1.4107  1.1914  0.2135
  155SAPE  C21617249   1.986   4.343   8.030  0.0491 -0.5002  0.8774
  155SAPE  H16R17250   1.965   4.260   8.100  0.9978  0.6019  2.5298
  155SAPE  H16S17251   1.893   4.397   8.002  0.1334 -1.5766 -1.7583
  155SAPE  C21717252   2.094   4.434   8.102  0.4105 -0.1457  0.6652
  155SAPE  H17R17253   2.037   4.470   8.190 -2.4719 -2.0042 -0.2803
  155SAPE  H17S17254   2.125   4.505   8.023  0.3639  0.2879  1.0348
  155SAPE  C21817255   2.205   4.354   8.170 -0.0874  0.1031  0.3587
  155SAPE  H18R17256   2.201   4.249   8.136 -1.8244  1.1605 -3.2806
  155SAPE  H18S17257   2.179   4.352   8.278  0.5478 -0.4226  0.5098
  155SAPE  C21917258   2.345   4.419   8.150  0.3962  0.4008  0.0582
  155SAPE  H19R17259   2.333   4.528   8.169  0.6503  0.9594 -2.5066
  155SAPE  H19S17260   2.372   4.412   8.042  0.9074 -0.4038  0.2304
  155SAPE  C22017261   2.452   4.351   8.245 -0.0062 -1.0356  0.9486
  155SAPE  H20R17262   2.419   4.372   8.349  2.5820  2.0868  1.3114
  155SAPE  H20S17263   2.539   4.416   8.222 -1.7659  0.7521 -1.0869
  155SAPE  H20T17264   2.463   4.242   8.228  0.6295 -1.3527  3.0804
  155SAPE   C3317265   1.962   3.854   7.299  0.4910  0.3326  0.1548
  155SAPE   H3X17266   2.046   3.908   7.347 -0.1632  1.5711 -0.0319
  155SAPE   H3Y17267   1.986   3.749   7.274 -0.4506  0.2094 -0.3021
  155SAPE   C3417268   1.841   3.852   7.386 -0.4041  1.0315 -0.0745
  155SAPE   H4X17269   1.760   3.799   7.332  0.0541 -0.7667  0.9204
  155SAPE   H4Y17270   1.810   3.957   7.409 -0.3522  0.7512  1.3873
  155SAPE   C3517271   1.873   3.780   7.518 -0.4882 -0.1071  0.1696
  155SAPE   H5X17272   1.957   3.839   7.558 -0.5221  1.1781 -1.5165
  155SAPE   H5Y17273   1.911   3.681   7.486  2.6384  1.6099 -1.9488
  155SAPE   C3617274   1.745   3.779   7.604  0.0042 -0.4227  0.1552
  155SAPE   H6X17275   1.664   3.718   7.558  1.4789 -0.2429 -3.0031
  155SAPE   H6Y17276   1.703   3.881   7.619 -0.3174 -0.5098 -0.1387
  155SAPE   C3717277   1.760   3.725   7.752  0.2750 -0.0585 -0.3381
  155SAPE   H7X17278   1.796   3.621   7.735 -2.8141 -1.2930  0.0366
  155SAPE   H7Y17279   1.653   3.720   7.782 -0.0070  0.4516 -1.2364
  155SAPE   C3817280   1.856   3.802   7.839  0.4445  0.2011  0.2140
  155SAPE   H8X17281   1.822   3.908   7.836  0.6955  0.2783 -0.0419
  155SAPE   H8Y17282   1.955   3.799   7.789 -0.4974  0.0598 -1.7405
  155SAPE   C3917283   1.869   3.766   7.986  0.1252  0.1335  0.0428
  155SAPE   H9X17284   1.919   3.667   7.982 -1.0547 -0.5165  0.8085
  155SAPE   H9Y17285   1.768   3.751   8.032 -0.7029  3.4693 -0.4424
  155SAPE  C31017286   1.955   3.860   8.068  0.2404  0.1950  0.3646
  155SAPE  H10X17287   1.912   3.962   8.054 -0.7804  0.1493  2.8233
  155SAPE  H10Y17288   2.057   3.872   8.025  0.9183  0.5528  2.0122
  155SAPE  C31117289   1.956   3.847   8.222  0.0502  0.2521  0.7905
  155SAPE  H11X17290   1.953   3.739   8.247 -1.9449 -0.4956 -2.0966
  155SAPE  H11Y17291   1.859   3.891   8.256  0.2777  1.2558  0.1704
  155SAPE  C31217292   2.070   3.921   8.289 -0.6333 -0.6600 -0.2452
  155SAPE  H12X17293   2.060   4.029   8.266  1.8458 -0.3643 -0.1633
  155SAPE  H12Y17294   2.167   3.886   8.247 -1.2861 -1.2038 -1.3493
  155SAPE  C31317295   2.065   3.891   8.436  0.4880  0.6373 -0.0734
  155SAPE  H13X17296   2.139   3.954   8.490  0.7185  0.3078 -0.0094
  155SAPE  H13Y17297   2.093   3.786   8.458  0.8492  0.6686 -0.3832
  155SAPE  C31417298   1.934   3.908   8.513  0.1653  0.1040 -0.3682
  155SAPE  H14X17299   1.866   3.829   8.473  2.3995 -1.9693 -0.2813
  155SAPE  H14Y17300   1.896   4.005   8.473 -0.1326  0.7388  1.3969
  155SAPE  C31517301   1.950   3.904   8.663  0.4964 -0.1648 -0.3382
  155SAPE  H15X17302   2.045   3.950   8.698  1.5849  0.0990 -3.3389
  155SAPE  H15Y17303   1.960   3.800   8.701 -1.3691  0.0268  0.8232
  155SAPE  C31617304   1.827   3.965   8.731 -0.1067  0.5818  0.2874
  155SAPE  H16X17305   1.730   3.921   8.700 -0.6700  0.8799  1.5692
  155SAPE  H16Y17306   1.828   4.075   8.714  1.5132  0.6718  0.7844
  155SAPE  C31717307   1.840   3.942   8.882  0.4676 -0.9195 -0.0602
  155SAPE  H17X17308   1.935   3.987   8.917 -0.6235  1.0486  0.5210
  155SAPE  H17Y17309   1.833   3.832   8.888 -0.9094 -0.8193  0.5328
  155SAPE  C31817310   1.734   4.011   8.964  1.0947 -0.5561  0.0499
  155SAPE  H18X17311   1.730   3.962   9.063  1.1942 -1.1592 -0.2432
  155SAPE  H18Y17312   1.635   4.008   8.913  1.0368 -0.7023  0.1734
  155SAPE  H18Z17313   1.758   4.119   8.980 -2.9809  0.7134 -1.1952
  156SAPE     N17314   4.849   4.403   6.022 -0.3527  0.2299  0.0225
  156SAPE   HN117315   4.835   4.408   5.919  2.7208 -0.1421 -0.5174
  156SAPE   HN217316   4.831   4.303   6.040  1.1586 -0.6168 -2.6130
  156SAPE   HN317317   4.798   4.477   6.075  0.6774  1.2452 -0.3423
  156SAPE   C1217318   4.996   4.416   6.047 -0.1296  0.2275  0.9191
  156SAPE  H12A17319   5.021   4.522   6.065 -0.2007  0.4943 -0.4320
  156SAPE  H12B17320   5.057   4.392   5.958  2.0612 -2.3309  2.9351
  156SAPE   C1117321   5.028   4.327   6.168  0.1400  0.2358  0.2014
  156SAPE  H11A17322   4.980   4.226   6.161  0.7845  0.0052 -1.1538
  156SAPE  H11B17323   4.987   4.364   6.265  0.7746  1.4052  0.0339
  156SAPE     P17324   5.269   4.353   6.290 -0.1707  0.0342  0.0734
  156SAPE   O1317325   5.411   4.322   6.246 -0.2624  0.2427  0.5336
  156SAPE   O1417326   5.239   4.492   6.340 -0.0089  0.2905 -0.2460
  156SAPE   O1217327   5.170   4.312   6.170 -0.0153 -0.0090  0.4920
  156SAPE   O1117328   5.227   4.247   6.401  0.3484  0.0381  0.0429
  156SAPE    C117329   5.173   4.282   6.525  0.2648 -1.0649  0.2092
  156SAPE    HA17330   5.237   4.365   6.564 -1.9675  1.2419 -0.7616
  156SAPE    HB17331   5.068   4.316   6.520  0.6785  0.2582  0.0474
  156SAPE    C217332   5.199   4.178   6.634 -0.2775  0.8768  0.1454
  156SAPE    HS17333   5.152   4.213   6.728  0.3430 -1.4444  1.3979
  156SAPE   O2117334   5.334   4.145   6.643 -0.0911  0.0621  0.1288
  156SAPE   C2117335   5.384   4.129   6.773 -0.1955  0.1184  0.1037
  156SAPE   O2217336   5.311   4.124   6.864 -0.0253 -0.6186 -0.5027
  156SAPE   C2217337   5.532   4.110   6.776 -0.4440 -0.0536 -0.9623
  156SAPE   H2R17338   5.548   4.013   6.726 -2.1399 -1.5998  1.2464
  156SAPE   H2S17339   5.580   4.196   6.725 -0.3876 -1.2433 -3.0088
  156SAPE    C317340   5.111   4.049   6.615  0.0612 -0.1974  0.1958
  156SAPE    HX17341   5.132   3.998   6.519 -3.0831 -0.2845 -0.5801
  156SAPE    HY17342   5.003   4.074   6.604 -0.8924 -3.0542  1.8738
  156SAPE   O3117343   5.124   3.951   6.723  0.0048 -0.3530  0.3813
  156SAPE   C3117344   5.038   3.974   6.824  0.3722  0.0533 -0.3174
  156SAPE   O3217345   4.956   4.068   6.822 -0.2305  0.1072 -0.4893
  156SAPE   C3217346   5.059   3.872   6.928  0.0198  0.4002 -0.3607
  156SAPE   H2X17347   5.167   3.871   6.955  0.4338  2.7955 -1.5923
  156SAPE   H2Y17348   5.034   3.773   6.885  1.6987  1.1101 -3.2855
  156SAPE   C2317349   5.578   4.081   6.917 -0.1401  0.7616 -1.0962
  156SAPE   H3R17350   5.682   4.041   6.912 -1.3414 -3.7926  2.5739
  156SAPE   H3S17351   5.525   3.995   6.965 -0.5762  1.6612  0.1051
  156SAPE   C2417352   5.568   4.200   7.018 -0.1074 -0.3474  0.2497
  156SAPE   H4R17353   5.461   4.190   7.047 -0.1981 -1.2366 -0.3701
  156SAPE   H4S17354   5.582   4.287   6.950  1.4546  0.4959  1.5805
  156SAPE   C2517355   5.655   4.191   7.144 -0.8794  0.1432 -0.5031
  156SAPE   H5R17356   5.759   4.180   7.109 -1.0904  0.6305 -1.3135
  156SAPE   C2617357   5.617   4.178   7.271 -0.1484  0.5480  0.4885
  156SAPE   H6R17358   5.697   4.154   7.341 -0.7876 -1.6461  0.5425
  156SAPE   C2717359   5.475   4.168   7.324  0.3964 -0.0064 -0.6626
  156SAPE   H7R17360   5.396   4.148   7.249 -2.6294  1.1156  2.0057
  156SAPE   H7S17361   5.444   4.261   7.376 -0.9361 -0.3758 -0.7615
  156SAPE   C2817362   5.469   4.047   7.414 -0.5432 -0.3007  0.4807
  156SAPE   H8R17363   5.549   3.972   7.407 -0.9400 -1.0193  2.7156
  156SAPE   C2917364   5.376   4.022   7.498 -0.3273 -0.8317 -0.8857
  156SAPE   H9R17365   5.372   3.931   7.559 -2.8664  1.1462  2.2309
  156SAPE  C21017366   5.254   4.114   7.508  0.0607 -0.4895 -0.3295
  156SAPE  H10R17367   5.168   4.052   7.475 -0.7862  0.3795  0.1848
  156SAPE  H10S17368   5.254   4.197   7.435  2.9731 -0.4068 -0.3603
  156SAPE  C21117369   5.204   4.155   7.648  0.4172  0.1028  0.1359
  156SAPE  H11R17370   5.099   4.127   7.668  0.0539  1.5399  0.4003
  156SAPE  C21217371   5.276   4.216   7.745 -0.2865  0.2429  0.0897
  156SAPE  H12R17372   5.223   4.228   7.840  1.2305  0.3056  0.9567
  156SAPE  C21317373   5.414   4.262   7.750  0.2164 -0.6078  0.3138
  156SAPE  H13R17374   5.438   4.321   7.659 -0.7604 -2.7445 -1.3945
  156SAPE  H13S17375   5.486   4.177   7.750  0.3149 -0.5548 -1.6675
  156SAPE  C21417376   5.449   4.358   7.869  0.3463 -0.8334  1.0273
  156SAPE  H14R17377   5.447   4.463   7.835 -0.3542 -0.4814  2.1086
  156SAPE  C21517378   5.456   4.343   8.002  0.9576  1.0928  0.2707
  156SAPE  H15R17379   5.491   4.427   8.064  2.4011  0.3600  0.5104
  156SAPE  C21617380   5.440   4.208   8.071 -0.1142  0.4431 -0.0977
  156SAPE  H16R17381   5.535   4.163   8.106 -1.0484  0.3597  2.4953
  156SAPE  H16S17382   5.395   4.139   7.997  1.8875  1.3033 -2.2568
  156SAPE  C21717383   5.347   4.202   8.196 -0.1453  1.0547  0.7468
  156SAPE  H17R17384   5.348   4.101   8.241  0.3421  0.6399 -0.1848
  156SAPE  H17S17385   5.245   4.212   8.153  0.7611 -0.6523 -2.0460
  156SAPE  C21817386   5.372   4.310   8.305 -0.6352  0.3052 -0.6932
  156SAPE  H18R17387   5.313   4.404   8.306  0.7565  1.2131 -1.7972
  156SAPE  H18S17388   5.479   4.337   8.298 -0.5080 -0.0549 -0.1727
  156SAPE  C21917389   5.368   4.245   8.447  0.3245 -0.1262  0.1983
  156SAPE  H19R17390   5.400   4.321   8.521 -2.7759 -0.1861  1.8143
  156SAPE  H19S17391   5.446   4.166   8.453  0.1340 -0.2233  2.1154
  156SAPE  C22017392   5.230   4.182   8.479  0.2097 -0.0489  0.0388
  156SAPE  H20R17393   5.199   4.095   8.416 -1.9476  2.4032 -2.5789
  156SAPE  H20S17394   5.160   4.268   8.474  1.6553  1.4636  3.1233
  156SAPE  H20T17395   5.235   4.146   8.584  2.3261 -2.9448 -0.9148
  156SAPE   C3317396   4.978   3.908   7.061 -1.3004  0.0323 -0.2346
  156SAPE   H3X17397   4.871   3.880   7.053 -0.7816 -2.4517  0.4765
  156SAPE   H3Y17398   4.976   4.018   7.068 -3.2707  0.1054 -1.3366
  156SAPE   C3417399   5.037   3.843   7.196 -0.1061 -0.0296  0.1432
  156SAPE   H4X17400   5.138   3.889   7.206 -0.8915  1.5523  1.2673
  156SAPE   H4Y17401   5.038   3.732   7.190 -1.7550 -0.2822  3.0307
  156SAPE   C3517402   4.960   3.866   7.327  0.0922 -0.0948  0.5124
  156SAPE   H5X17403   4.861   3.817   7.320 -1.1996  2.5377 -1.2224
  156SAPE   H5Y17404   4.926   3.970   7.341 -3.2006 -1.0897  0.6587
  156SAPE   C3617405   5.024   3.809   7.456 -0.4457 -0.1116  0.0477
  156SAPE   H6X17406   5.131   3.841   7.456 -0.2400 -0.7536  1.1448
  156SAPE   H6Y17407   5.024   3.699   7.448  0.5245 -0.2957  1.9739
  156SAPE   C3717408   4.953   3.872   7.576  0.2001 -0.1777  0.6331
  156SAPE   H7X17409   4.847   3.839   7.582 -0.7083  2.4666  0.6150
  156SAPE   H7Y17410   4.951   3.983   7.567  2.8488 -0.2260 -1.6943
  156SAPE   C3817411   5.021   3.829   7.708 -0.1963  0.2173 -0.0067
  156SAPE   H8X17412   5.119   3.880   7.723 -0.8418  1.7340 -0.6737
  156SAPE   H8Y17413   5.041   3.720   7.705  1.6359  0.5318 -0.6930
  156SAPE   C3917414   4.925   3.848   7.825 -0.0503 -0.0998  0.0690
  156SAPE   H9X17415   4.965   3.811   7.922  0.2703 -0.0185 -0.0304
  156SAPE   H9Y17416   4.828   3.798   7.802 -1.1454  1.8863  0.1583
  156SAPE  C31017417   4.889   3.995   7.847 -0.4916  0.6872  0.3893
  156SAPE  H10X17418   4.824   4.039   7.769 -1.1956  0.2450  0.7213
  156SAPE  H10Y17419   4.985   4.052   7.839  0.7084 -1.3853 -0.8095
  156SAPE  C31117420   4.837   4.018   7.986  0.0424  0.7348 -0.5357
  156SAPE  H11X17421   4.921   3.982   8.049  0.0313 -1.6396 -1.7782
  156SAPE  H11Y17422   4.750   3.953   8.010  0.1264  1.3281  1.6065
  156SAPE  C31217423   4.792   4.157   8.027  0.1453  1.0217  0.2209
  156SAPE  H12X17424   4.706   4.186   7.963  1.7154  0.0125 -2.5691
  156SAPE  H12Y17425   4.879   4.226   8.021 -0.4530  1.7704 -0.0039
  156SAPE  C31317426   4.743   4.146   8.172  0.3117  0.7533  0.9775
  156SAPE  H13X17427   4.816   4.084   8.228  0.1374 -1.6409 -1.2369
  156SAPE  H13Y17428   4.653   4.080   8.178  2.8153 -2.9776  0.8096
  156SAPE  C31417429   4.714   4.271   8.246 -0.7211 -0.1800 -0.1291
  156SAPE  H14X17430   4.622   4.322   8.209  0.5242  2.6639  0.4160
  156SAPE  H14Y17431   4.800   4.336   8.219 -0.7684  0.6232  1.5167
  156SAPE  C31517432   4.701   4.267   8.396  0.1327 -0.1165 -0.6200
  156SAPE  H15X17433   4.602   4.216   8.404 -1.5211  2.2749 -3.5368
  156SAPE  H15Y17434   4.694   4.372   8.430 -0.1389  0.4588 -2.3150
  156SAPE  C31617435   4.811   4.197   8.467  0.0585 -0.3987  0.4840
  156SAPE  H16X17436   4.909   4.225   8.422  0.6116  0.3793  2.1140
  156SAPE  H16Y17437   4.798   4.091   8.436 -0.3387 -0.2121 -0.0140
  156SAPE  C31717438   4.818   4.216   8.616 -0.2405 -0.8282 -0.1536
  156SAPE  H17X17439   4.711   4.198   8.639 -0.2278  0.8907  1.5447
  156SAPE  H17Y17440   4.833   4.323   8.639 -1.1950 -0.8769  0.8136
  156SAPE  C31817441   4.922   4.130   8.697 -0.5345  0.3884  0.0159
  156SAPE  H18X17442   4.942   4.037   8.640 -2.5626 -0.5702  0.7631
  156SAPE  H18Y17443   4.880   4.098   8.795 -3.1383  1.0036 -0.8136
  156SAPE  H18Z17444   5.017   4.185   8.713  0.8640 -2.0191  0.4520
  157SAPE     N17445   0.582   6.683   6.350 -0.2439 -0.6893 -0.0305
  157SAPE   HN117446   0.570   6.652   6.252 -0.0838 -0.1417 -0.2250
  157SAPE   HN217447   0.486   6.706   6.384 -0.0813  2.0693 -1.1766
  157SAPE   HN317448   0.629   6.775   6.351 -0.8227 -0.3811 -0.5296
  157SAPE   C1217449   0.650   6.577   6.438 -0.6012  0.2196  0.9338
  157SAPE  H12A17450   0.638   6.611   6.544 -1.8690 -2.4914  1.7402
  157SAPE  H12B17451   0.759   6.577   6.414 -1.0783  2.4629 -1.6612
  157SAPE   C1117452   0.580   6.436   6.432 -0.3591  0.5802 -0.3431
  157SAPE  H11A17453   0.471   6.452   6.413 -0.1139 -0.2180 -2.8054
  157SAPE  H11B17454   0.588   6.387   6.532  3.1348  0.7276 -0.4554
  157SAPE     P17455   0.619   6.196   6.326 -0.0555 -0.0473 -0.2122
  157SAPE   O1317456   0.482   6.156   6.363 -0.3264 -0.2993 -0.7674
  157SAPE   O1417457   0.667   6.152   6.195  0.6230 -0.3480 -0.1274
  157SAPE   O1217458   0.632   6.351   6.337  0.5420 -0.5076 -0.2504
  157SAPE   O1117459   0.706   6.141   6.443  0.1996 -0.2088 -0.3714
  157SAPE    C117460   0.834   6.194   6.466 -0.0476  0.1264  0.3219
  157SAPE    HA17461   0.913   6.152   6.400 -1.4586  0.1706 -1.4839
  157SAPE    HB17462   0.843   6.305   6.465  0.5574  0.0986  1.6149
  157SAPE    C217463   0.891   6.144   6.607  0.1608  0.3976  0.7676
  157SAPE    HS17464   0.916   6.038   6.589 -2.1187 -0.0353 -0.2871
  157SAPE   O2117465   0.793   6.168   6.711 -0.0285 -0.6189 -0.4448
  157SAPE   C2117466   0.802   6.088   6.810 -0.0092  0.2183  0.2961
  157SAPE   O2217467   0.879   5.992   6.816 -0.1361 -0.0231 -0.4181
  157SAPE   C2217468   0.727   6.153   6.928  0.0407 -0.2807 -0.8846
  157SAPE   H2R17469   0.745   6.262   6.924 -0.7635 -0.1690 -1.9818
  157SAPE   H2S17470   0.620   6.144   6.898 -0.0692 -0.4807 -0.4349
  157SAPE    C317471   1.025   6.219   6.638 -0.5704  0.2006  0.1524
  157SAPE    HX17472   1.003   6.327   6.628 -1.2387  0.1439  0.9319
  157SAPE    HY17473   1.098   6.207   6.555 -1.6143  0.1461 -0.7847
  157SAPE   O3117474   1.081   6.194   6.768 -0.1161 -0.9734 -0.2678
  157SAPE   C3117475   1.158   6.082   6.791 -0.2765 -1.1419  0.4523
  157SAPE   O3217476   1.185   5.999   6.707  0.2577  0.4672 -0.2513
  157SAPE   C3217477   1.183   6.063   6.933 -0.5638  0.1106 -0.5013
  157SAPE   H2X17478   1.285   6.019   6.933 -0.9695 -0.8913 -1.4279
  157SAPE   H2Y17479   1.120   5.980   6.972  1.1295 -0.6575  0.7141
  157SAPE   C2317480   0.747   6.104   7.070  0.6525 -0.2931 -0.2223
  157SAPE   H3R17481   0.856   6.110   7.089  0.6873  0.6672 -0.6758
  157SAPE   H3S17482   0.723   5.996   7.081 -1.2593  0.1462  0.3085
  157SAPE   C2417483   0.671   6.195   7.169  0.2809  0.1491 -1.1797
  157SAPE   H4R17484   0.560   6.196   7.159 -0.1669  2.7341  2.4454
  157SAPE   H4S17485   0.702   6.300   7.151  2.0553  0.5428  3.1733
  157SAPE   C2517486   0.716   6.166   7.315  0.7266 -0.3581  0.0289
  157SAPE   H5R17487   0.825   6.179   7.330  0.5658 -0.5906  1.5118
  157SAPE   C2617488   0.642   6.127   7.423  0.2068  1.1572  1.0295
  157SAPE   H6R17489   0.694   6.107   7.517 -2.6207 -1.3221  2.2193
  157SAPE   C2717490   0.496   6.085   7.420  0.0868 -0.5605  0.2069
  157SAPE   H7R17491   0.480   5.978   7.447  1.2290 -0.3835  1.7180
  157SAPE   H7S17492   0.442   6.097   7.323 -0.3068 -1.8831  0.2438
  157SAPE   C2817493   0.418   6.165   7.521  0.2435 -0.4454  0.1595
  157SAPE   H8R17494   0.396   6.266   7.484  3.0101  0.8713  1.7508
  157SAPE   C2917495   0.406   6.131   7.654 -0.4218  0.1310 -0.0572
  157SAPE   H9R17496   0.373   6.206   7.727 -1.4157  0.6213 -0.9814
  157SAPE  C21017497   0.451   6.000   7.714 -0.1306  0.1533 -0.4984
  157SAPE  H10R17498   0.490   5.928   7.639 -1.4321 -0.3828 -0.6859
  157SAPE  H10S17499   0.361   5.947   7.754 -0.6515  0.6278 -1.0220
  157SAPE  C21117500   0.564   6.019   7.814  0.4540 -0.0065 -0.9925
  157SAPE  H11R17501   0.663   5.984   7.781 -0.5849 -1.3487 -2.8465
  157SAPE  C21217502   0.550   6.061   7.945 -0.1675  0.2682 -0.2279
  157SAPE  H12R17503   0.635   6.090   8.008  0.5506 -1.1617 -0.4790
  157SAPE  C21317504   0.421   6.108   8.008 -0.4249 -0.7570  0.1910
  157SAPE  H13R17505   0.354   6.150   7.930  0.0457 -2.2151 -1.0379
  157SAPE  H13S17506   0.436   6.204   8.062 -1.6244 -1.3513  1.6783
  157SAPE  C21417507   0.348   6.002   8.092 -0.3169 -0.2437  0.3396
  157SAPE  H14R17508   0.302   5.916   8.041 -0.2691  0.0935 -0.2806
  157SAPE  C21517509   0.327   6.011   8.225  0.1927 -0.5219 -0.8554
  157SAPE  H15R17510   0.275   5.925   8.271 -0.1083  1.2946  2.4848
  157SAPE  C21617511   0.357   6.112   8.325  0.1374 -0.1827  0.7660
  157SAPE  H16R17512   0.437   6.179   8.285  0.8059 -0.5153  1.5126
  157SAPE  H16S17513   0.380   6.068   8.424 -1.8590 -0.4166  1.1589
  157SAPE  C21717514   0.237   6.207   8.340 -0.4754  1.6134  0.4337
  157SAPE  H17R17515   0.162   6.149   8.399 -0.0860  0.3184 -0.3149
  157SAPE  H17S17516   0.200   6.235   8.239 -0.5478 -0.0116 -0.0160
  157SAPE  C21817517   0.275   6.336   8.415 -0.2506  0.7244 -0.4734
  157SAPE  H18R17518   0.189   6.405   8.405 -1.9105 -1.0037  1.2430
  157SAPE  H18S17519   0.358   6.388   8.362 -1.1778  1.3829 -1.3213
  157SAPE  C21917520   0.326   6.324   8.563  0.9369  0.6699  0.1537
  157SAPE  H19R17521   0.334   6.426   8.607  0.7630  0.7084  0.0965
  157SAPE  H19S17522   0.431   6.291   8.573  0.7483 -0.1812 -0.5978
  157SAPE  C22017523   0.226   6.239   8.638  0.5085  0.4070 -0.5749
  157SAPE  H20R17524   0.231   6.133   8.604 -2.6655  0.1866 -0.6971
  157SAPE  H20S17525   0.121   6.263   8.611  0.6194  0.3115 -1.1031
  157SAPE  H20T17526   0.215   6.253   8.748 -0.0165  0.5075 -0.6371
  157SAPE   C3317527   1.167   6.195   7.021  0.3673 -0.1663 -0.4777
  157SAPE   H3X17528   1.057   6.210   7.023  0.3015 -0.6907  0.6562
  157SAPE   H3Y17529   1.210   6.283   6.968 -1.5564  0.8621 -0.4539
  157SAPE   C3417530   1.222   6.171   7.157 -0.0029 -0.3052 -0.8112
  157SAPE   H4X17531   1.327   6.136   7.150  0.1508  0.0408 -0.2476
  157SAPE   H4Y17532   1.164   6.090   7.205 -0.3498  0.8544  0.8237
  157SAPE   C3517533   1.211   6.286   7.255  0.8003  0.5026  0.0678
  157SAPE   H5X17534   1.102   6.305   7.264  0.7171  0.2547 -0.4110
  157SAPE   H5Y17535   1.259   6.372   7.204  1.3186  0.0576 -0.2186
  157SAPE   C3617536   1.275   6.257   7.386 -0.1901 -0.7803 -0.5298
  157SAPE   H6X17537   1.317   6.349   7.432  1.2497 -1.2447 -0.8435
  157SAPE   H6Y17538   1.368   6.201   7.361  0.9174  0.3299  0.8799
  157SAPE   C3717539   1.194   6.178   7.489 -0.0462 -0.3676 -0.5892
  157SAPE   H7X17540   1.274   6.124   7.545 -0.7204  0.2746  1.0560
  157SAPE   H7Y17541   1.132   6.101   7.439 -0.4398 -1.8381  1.9873
  157SAPE   C3817542   1.114   6.262   7.589 -0.2278  0.2357 -0.1852
  157SAPE   H8X17543   1.057   6.185   7.645  1.2811 -0.5922  0.2812
  157SAPE   H8Y17544   1.033   6.326   7.549 -0.6745  1.6364  2.7563
  157SAPE   C3917545   1.197   6.336   7.695 -0.0188 -0.1275  0.1018
  157SAPE   H9X17546   1.269   6.392   7.632  0.1577 -1.7550 -1.1816
  157SAPE   H9Y17547   1.253   6.258   7.750  1.6365  1.3805  0.6501
  157SAPE  C31017548   1.113   6.409   7.793  0.3233  0.3129 -0.2431
  157SAPE  H10X17549   1.021   6.350   7.807 -0.2671  1.2054 -0.2918
  157SAPE  H10Y17550   1.088   6.510   7.754  0.1392  0.3695  0.0250
  157SAPE  C31117551   1.181   6.428   7.931 -0.7475  0.4066 -1.2313
  157SAPE  H11X17552   1.250   6.514   7.914  0.7747 -0.8271 -1.5519
  157SAPE  H11Y17553   1.235   6.336   7.960  0.9355  1.4890 -0.7396
  157SAPE  C31217554   1.074   6.459   8.041  0.2849 -0.0759  0.2175
  157SAPE  H12X17555   1.008   6.370   8.053  1.3648 -0.7455  1.3611
  157SAPE  H12Y17556   1.018   6.547   8.000  1.4138  0.6875  0.2710
  157SAPE  C31317557   1.124   6.485   8.184 -0.3002  0.7073 -0.4318
  157SAPE  H13X17558   1.184   6.577   8.168 -0.2814  0.5332 -1.4066
  157SAPE  H13Y17559   1.193   6.413   8.233 -1.3222 -0.0769 -0.1149
  157SAPE  C31417560   1.000   6.514   8.269  0.3013 -0.0539  0.2021
  157SAPE  H14X17561   0.923   6.563   8.206  1.2549  0.2245 -0.7602
  157SAPE  H14Y17562   1.024   6.574   8.360  4.8019 -1.4225  0.1548
  157SAPE  C31517563   0.936   6.386   8.330  0.5751  0.1372  0.4079
  157SAPE  H15X17564   1.012   6.354   8.404  0.9744  0.0386 -0.0408
  157SAPE  H15Y17565   0.931   6.302   8.257 -0.3392 -0.3397  0.9924
  157SAPE  C31617566   0.807   6.396   8.405  0.3127 -0.3285 -0.0563
  157SAPE  H16X17567   0.814   6.478   8.480 -2.2045  0.1225 -0.2216
  157SAPE  H16Y17568   0.790   6.295   8.447 -1.0261 -0.3771 -0.6648
  157SAPE  C31717569   0.682   6.430   8.321 -0.0061  0.3253 -0.7779
  157SAPE  H17X17570   0.708   6.522   8.266  1.1308  1.0237  0.8534
  157SAPE  H17Y17571   0.591   6.455   8.379  0.0335  0.5326 -0.8070
  157SAPE  C31817572   0.652   6.320   8.218 -0.2230  0.6918 -0.5552
  157SAPE  H18X17573   0.732   6.311   8.142  0.8498 -2.0013  0.8008
  157SAPE  H18Y17574   0.556   6.331   8.161 -1.1366 -0.1593  0.7778
  157SAPE  H18Z17575   0.658   6.223   8.270  2.3883  0.4710 -1.1454
  158SAPE     N17576   4.729   2.934   5.892  0.7275 -0.5767  0.6421
  158SAPE   HN117577   4.830   2.913   5.903  1.2130  0.1375 -1.7461
  158SAPE   HN217578   4.685   2.892   5.976 -1.2844  1.4095  0.6693
  158SAPE   HN317579   4.703   2.890   5.801 -0.1288  0.0886  0.5452
  158SAPE   C1217580   4.715   3.083   5.884  0.1731  0.2037 -0.4984
  158SAPE  H12A17581   4.607   3.107   5.895 -0.1275 -0.3653 -1.9717
  158SAPE  H12B17582   4.755   3.120   5.787  1.6332  0.9590  0.3557
  158SAPE   C1117583   4.795   3.156   5.997 -0.4732 -0.4526  0.6576
  158SAPE  H11A17584   4.775   3.265   5.985 -1.6540 -0.7361 -0.0629
  158SAPE  H11B17585   4.903   3.142   5.976 -0.3909  0.7289  0.2208
  158SAPE     P17586   4.630   3.133   6.205  0.2999 -0.0505  0.2550
  158SAPE   O1317587   4.624   3.273   6.238  0.1997 -0.4527  0.0366
  158SAPE   O1417588   4.510   3.079   6.126 -0.9951 -0.3229  0.1363
  158SAPE   O1217589   4.772   3.113   6.130 -0.1535  0.4373 -0.0756
  158SAPE   O1117590   4.649   3.048   6.334 -0.2615 -0.7953  0.0438
  158SAPE    C117591   4.778   3.045   6.405  0.6910 -0.2550  0.0498
  158SAPE    HA17592   4.826   2.948   6.380 -2.1302 -1.6116 -0.5960
  158SAPE    HB17593   4.846   3.129   6.380  0.9462 -0.9057 -1.5871
  158SAPE    C217594   4.758   3.039   6.560  0.1222 -0.1077 -0.4386
  158SAPE    HS17595   4.861   3.040   6.601  0.2641 -0.9869 -0.7550
  158SAPE   O2117596   4.682   2.922   6.599  0.0984  0.2721 -0.5288
  158SAPE   C2117597   4.748   2.803   6.626 -0.0035  0.0437 -0.9241
  158SAPE   O2217598   4.870   2.795   6.600 -0.2527  0.2527  0.5398
  158SAPE   C2217599   4.660   2.695   6.672 -0.0750  0.3782  0.0467
  158SAPE   H2R17600   4.554   2.722   6.652  0.1078 -0.2003 -1.9238
  158SAPE   H2S17601   4.679   2.610   6.603  4.2689  0.4628  0.8567
  158SAPE    C317602   4.679   3.165   6.607  0.5346 -0.5575 -0.4227
  158SAPE    HX17603   4.585   3.178   6.549  1.0986  0.6063 -1.1257
  158SAPE    HY17604   4.736   3.255   6.574 -2.1802  2.1864  1.7761
  158SAPE   O3117605   4.667   3.180   6.752 -0.5568  0.2614 -0.1669
  158SAPE   C3117606   4.557   3.145   6.804 -0.2444  0.3569  0.1486
  158SAPE   O3217607   4.465   3.095   6.742  0.2342 -0.5067  0.5938
  158SAPE   C3217608   4.552   3.176   6.952 -0.4607  0.3209  0.0624
  158SAPE   H2X17609   4.632   3.248   6.979 -0.8972  1.0022 -0.4217
  158SAPE   H2Y17610   4.586   3.085   7.006 -0.4310  0.2918 -0.0066
  158SAPE   C2317611   4.685   2.643   6.820 -0.5564 -0.0122 -0.7757
  158SAPE   H3R17612   4.789   2.606   6.824 -0.1443  1.1384 -0.4856
  158SAPE   H3S17613   4.621   2.553   6.834 -0.3141 -0.1397 -0.4925
  158SAPE   C2417614   4.645   2.756   6.920 -0.1189  0.2309  0.0055
  158SAPE   H4R17615   4.711   2.841   6.891 -1.1572  1.1294  0.1996
  158SAPE   H4S17616   4.680   2.722   7.020 -0.7731  0.3549  0.2866
  158SAPE   C2517617   4.502   2.805   6.918  0.6183 -0.6933  0.5466
  158SAPE   H5R17618   4.466   2.837   6.820 -0.6059 -0.6648  0.9853
  158SAPE   C2617619   4.414   2.794   7.016  0.4746 -0.0088 -0.2504
  158SAPE   H6R17620   4.313   2.832   6.999  0.3366  0.2253  0.9707
  158SAPE   C2717621   4.427   2.722   7.146  0.2948 -0.1572  0.1989
  158SAPE   H7R17622   4.533   2.693   7.162  0.1628 -0.6088  0.2621
  158SAPE   H7S17623   4.365   2.630   7.148  1.0176 -0.6600  1.9012
  158SAPE   C2817624   4.388   2.808   7.266 -0.4839  0.0053 -0.1039
  158SAPE   H8R17625   4.413   2.914   7.252  2.5725 -0.7823 -1.5237
  158SAPE   C2917626   4.330   2.768   7.385 -0.1394 -0.1458  0.8902
  158SAPE   H9R17627   4.286   2.838   7.458 -0.4288  1.3010 -0.5978
  158SAPE  C21017628   4.279   2.631   7.410  0.0400  0.5016  0.1333
  158SAPE  H10R17629   4.302   2.612   7.517  0.0586 -0.7373 -0.0699
  158SAPE  H10S17630   4.343   2.558   7.355 -0.4584  0.5370 -0.5116
  158SAPE  C21117631   4.134   2.594   7.385 -0.2950  0.0952  0.0316
  158SAPE  H11R17632   4.102   2.572   7.283 -1.8700  0.0105  0.5164
  158SAPE  C21217633   4.047   2.585   7.483 -0.6072 -0.6901  0.0712
  158SAPE  H12R17634   3.942   2.561   7.463 -0.3935 -2.0140  0.4238
  158SAPE  C21317635   4.063   2.603   7.633  0.2178  0.2291  0.0572
  158SAPE  H13R17636   3.969   2.645   7.673 -1.5412 -2.0496 -1.4207
  158SAPE  H13S17637   4.143   2.677   7.654  1.8816 -1.7873  1.1818
  158SAPE  C21417638   4.095   2.473   7.702  0.0052 -0.1226 -0.2604
  158SAPE  H14R17639   4.180   2.411   7.671  1.7754  1.4292  1.2609
  158SAPE  C21517640   4.018   2.412   7.802 -0.4313 -0.2306  0.3000
  158SAPE  H15R17641   4.057   2.320   7.849 -0.7608 -0.6565 -0.2543
  158SAPE  C21617642   3.885   2.443   7.863  0.2560 -0.0223  0.8088
  158SAPE  H16R17643   3.800   2.385   7.820  0.6537 -0.4514  0.5838
  158SAPE  H16S17644   3.853   2.548   7.849  2.0016  0.2806 -1.4926
  158SAPE  C21717645   3.866   2.393   8.011  0.2156 -0.4289  0.1905
  158SAPE  H17R17646   3.897   2.288   8.024 -1.6083 -1.0150  0.0804
  158SAPE  H17S17647   3.761   2.400   8.046 -0.0633 -0.1081 -0.6699
  158SAPE  C21817648   3.942   2.485   8.110  0.2925 -0.7635 -0.2448
  158SAPE  H18R17649   4.036   2.517   8.060  0.1717 -0.2454 -0.1542
  158SAPE  H18S17650   3.957   2.452   8.215 -2.7862  1.6067  1.0819
  158SAPE  C21917651   3.870   2.620   8.118  0.1560  0.2968  0.9198
  158SAPE  H19R17652   3.774   2.600   8.172 -0.1443 -2.6587 -0.4793
  158SAPE  H19S17653   3.840   2.661   8.020  0.8326 -1.0432  0.1209
  158SAPE  C22017654   3.948   2.727   8.195 -0.1441  0.4080  0.5567
  158SAPE  H20R17655   4.041   2.747   8.139 -1.2928 -0.1172 -1.6479
  158SAPE  H20S17656   3.970   2.687   8.297  1.9449  1.2063  0.4710
  158SAPE  H20T17657   3.898   2.826   8.202  0.1806  0.5444  1.0505
  158SAPE   C3317658   4.417   3.226   7.004  0.3715 -0.2575  0.3491
  158SAPE   H3X17659   4.338   3.149   6.992  0.2590  0.0264 -1.0058
  158SAPE   H3Y17660   4.377   3.313   6.947 -1.1231 -0.4036  1.1390
  158SAPE   C3417661   4.428   3.274   7.147 -0.4071 -0.4148 -0.2556
  158SAPE   H4X17662   4.505   3.352   7.162  0.5109 -1.1782 -0.9151
  158SAPE   H4Y17663   4.470   3.185   7.200 -0.7303 -1.4829 -1.7457
  158SAPE   C3517664   4.284   3.324   7.197 -0.0420 -0.3182  0.5748
  158SAPE   H5X17665   4.228   3.231   7.221 -0.8582 -0.0663 -0.2984
  158SAPE   H5Y17666   4.239   3.374   7.108  1.6998 -0.3584 -0.3592
  158SAPE   C3617667   4.282   3.406   7.328  0.2799 -0.0969 -0.4110
  158SAPE   H6X17668   4.183   3.456   7.339  0.5641  0.7352 -1.4671
  158SAPE   H6Y17669   4.354   3.490   7.323 -0.3955  0.4343 -2.2342
  158SAPE   C3717670   4.304   3.324   7.453  0.4273  0.0590 -0.6485
  158SAPE   H7X17671   4.233   3.240   7.445 -0.6393  0.5207  2.5951
  158SAPE   H7Y17672   4.408   3.286   7.446  0.2126 -0.4747 -0.9777
  158SAPE   C3817673   4.275   3.397   7.587  0.0216 -0.1633  0.4899
  158SAPE   H8X17674   4.178   3.451   7.579 -0.4001 -0.5762  2.3701
  158SAPE   H8Y17675   4.346   3.478   7.614 -1.2838  1.5826 -0.9920
  158SAPE   C3917676   4.243   3.297   7.702 -0.6284  0.3780  1.2660
  158SAPE   H9X17677   4.334   3.250   7.745  1.9820  1.4952 -2.5987
  158SAPE   H9Y17678   4.189   3.212   7.655 -0.0073 -0.0189  1.2582
  158SAPE  C31017679   4.149   3.360   7.802 -0.0188 -0.3027 -0.5496
  158SAPE  H10X17680   4.058   3.388   7.746 -0.6639 -0.1288  0.5661
  158SAPE  H10Y17681   4.189   3.460   7.829 -1.0200  0.0731 -0.4514
  158SAPE  C31117682   4.125   3.276   7.931 -0.4727  0.0202 -0.4563
  158SAPE  H11X17683   4.097   3.172   7.902  2.6981 -1.3795  0.9860
  158SAPE  H11Y17684   4.036   3.319   7.981  0.6227  0.1878  1.4410
  158SAPE  C31217685   4.248   3.261   8.023  0.7016  0.2107 -0.7288
  158SAPE  H12X17686   4.314   3.350   8.034  0.9138  0.0218 -0.4619
  158SAPE  H12Y17687   4.311   3.180   7.980  0.5841  1.2787 -3.0730
  158SAPE  C31317688   4.217   3.218   8.167  0.0576  0.2896 -0.1339
  158SAPE  H13X17689   4.159   3.295   8.224  0.2754 -0.0929  0.6158
  158SAPE  H13Y17690   4.319   3.212   8.209 -0.4062 -2.1772  0.8413
  158SAPE  C31417691   4.141   3.079   8.176  0.4846  0.2902  0.6592
  158SAPE  H14X17692   4.205   3.014   8.113 -1.5460  0.4713 -1.7635
  158SAPE  H14Y17693   4.034   3.087   8.147  0.1812 -0.6230  1.4596
  158SAPE  C31517694   4.148   3.026   8.319 -0.2488 -0.5703 -0.3725
  158SAPE  H15X17695   4.254   3.008   8.344  0.0596  0.9354 -0.5422
  158SAPE  H15Y17696   4.091   2.931   8.314 -1.4275  0.1339 -0.7317
  158SAPE  C31617697   4.089   3.116   8.435  0.5702  0.8306 -0.7818
  158SAPE  H16X17698   3.998   3.156   8.386 -0.1052 -0.5396 -0.6866
  158SAPE  H16Y17699   4.161   3.199   8.453  0.0851  1.1640 -0.3238
  158SAPE  C31717700   4.055   3.042   8.566  0.1353 -0.0750 -0.5447
  158SAPE  H17X17701   4.049   3.115   8.649  1.3672  0.9907 -1.3358
  158SAPE  H17Y17702   4.147   2.983   8.585 -0.4452 -0.4795  1.1719
  158SAPE  C31817703   3.936   2.946   8.560  0.0726 -0.6678  0.0729
  158SAPE  H18X17704   3.843   3.007   8.550  1.3615  1.0955 -2.1280
  158SAPE  H18Y17705   3.908   2.887   8.650 -1.6666  1.1712  0.8078
  158SAPE  H18Z17706   3.943   2.872   8.477 -2.0990 -4.0308  2.6042
  159SAPE     N17707   2.730   0.078   5.982 -0.0042 -0.5533  0.2029
  159SAPE   HN117708   2.712   0.137   6.065  1.6574 -1.4541  1.2626
  159SAPE   HN217709   2.831   0.073   5.954  0.2048  3.5279 -0.4201
  159SAPE   HN317710   2.676   0.118   5.902 -1.0217 -0.2255  1.0407
  159SAPE   C1217711   2.675  -0.053   6.020  0.5395 -0.3784  0.2023
  159SAPE  H12A17712   2.708  -0.090   6.120 -2.1334  0.5390  1.5295
  159SAPE  H12B17713   2.697  -0.132   5.945  0.9627  0.4744 -0.5801
  159SAPE   C1117714   2.522  -0.038   6.047 -0.3566 -0.1610  0.0439
  159SAPE  H11A17715   2.490  -0.133   6.096 -0.3564  0.1655  0.6883
  159SAPE  H11B17716   2.463  -0.040   5.953  1.1759  0.9405 -0.9872
  159SAPE     P17717   2.353   0.094   6.193  0.1568 -0.0723 -0.1891
  159SAPE   O1317718   2.282   0.216   6.153  0.3423  0.4037  0.0592
  159SAPE   O1417719   2.285  -0.034   6.181  0.1730  0.4881  0.1591
  159SAPE   O1217720   2.493   0.085   6.122  0.6268  0.8244 -0.1491
  159SAPE   O1117721   2.397   0.106   6.345  0.0325  0.1880 -0.1653
  159SAPE    C117722   2.503   0.193   6.378 -0.5274  0.4642 -0.5546
  159SAPE    HA17723   2.595   0.171   6.319 -0.0181 -0.5279  0.5548
  159SAPE    HB17724   2.482   0.301   6.366  2.1617  1.4737  2.3294
  159SAPE    C217725   2.556   0.155   6.517  0.5429 -0.1919 -0.7337
  159SAPE    HS17726   2.604   0.055   6.518  0.4615 -0.2316  0.1966
  159SAPE   O2117727   2.443   0.159   6.612 -0.8993 -0.1899  0.1699
  159SAPE   C2117728   2.438   0.060   6.702  0.2130  0.0126  0.3125
  159SAPE   O2217729   2.515  -0.038   6.705 -0.2893 -0.3587 -0.1223
  159SAPE   C2217730   2.321   0.084   6.798 -0.0527  0.4726 -1.2153
  159SAPE   H2R17731   2.319   0.186   6.841  0.7559  0.4299 -1.0546
  159SAPE   H2S17732   2.227   0.075   6.740 -1.6671  0.2920  1.3059
  159SAPE    C317733   2.677   0.255   6.545  0.1761 -0.0667  0.3930
  159SAPE    HX17734   2.643   0.360   6.534  2.1614  0.3379 -3.3892
  159SAPE    HY17735   2.742   0.235   6.458 -2.8634 -2.3383 -1.5808
  159SAPE   O3117736   2.735   0.222   6.672 -0.0786  0.2528 -0.1722
  159SAPE   C3117737   2.813   0.107   6.680  0.3085  0.1363  0.2202
  159SAPE   O3217738   2.845   0.040   6.583 -0.2077 -0.3584  0.5097
  159SAPE   C3217739   2.867   0.087   6.823 -0.2201 -0.0642 -0.1586
  159SAPE   H2X17740   2.817   0.156   6.895  1.3564  2.2863 -1.1901
  159SAPE   H2Y17741   2.975   0.113   6.822 -0.0673 -0.5374 -2.6326
  159SAPE   C2317742   2.316  -0.023   6.910 -0.6178 -0.0331  0.3454
  159SAPE   H3R17743   2.320  -0.129   6.879 -0.4514 -0.5334  1.9672
  159SAPE   H3S17744   2.226  -0.011   6.974 -1.0599  1.6145 -0.5443
  159SAPE   C2417745   2.445  -0.005   6.999  0.0970 -0.0620  0.2671
  159SAPE   H4R17746   2.425   0.094   7.047  0.8847  0.7930 -1.1160
  159SAPE   H4S17747   2.536  -0.001   6.936 -0.7002  1.2193 -0.8485
  159SAPE   C2517748   2.464  -0.115   7.106  0.1289  0.3675  0.0303
  159SAPE   H5R17749   2.496  -0.215   7.071  0.2158 -0.3819  2.1259
  159SAPE   C2617750   2.448  -0.101   7.239 -0.5343  0.7385 -0.3001
  159SAPE   H6R17751   2.463  -0.199   7.288  0.2742 -0.4485 -2.7492
  159SAPE   C2717752   2.408   0.018   7.324 -0.4355  0.3735 -0.0561
  159SAPE   H7R17753   2.385  -0.008   7.429 -1.3315  0.2787 -0.2677
  159SAPE   H7S17754   2.317   0.069   7.286  1.2107  2.5066 -1.3633
  159SAPE   C2817755   2.528   0.114   7.322  0.1524  0.0639 -0.0681
  159SAPE   H8R17756   2.580   0.123   7.226  1.0653  2.0394  0.5718
  159SAPE   C2917757   2.572   0.188   7.424  0.2640  0.0148 -0.4204
  159SAPE   H9R17758   2.653   0.261   7.416  0.3345 -0.1563 -1.4577
  159SAPE  C21017759   2.506   0.185   7.554  0.2553 -0.1050 -0.6304
  159SAPE  H10R17760   2.395   0.188   7.548  0.3225  1.8952 -1.7614
  159SAPE  H10S17761   2.533   0.284   7.599 -0.2621  0.3757 -1.3570
  159SAPE  C21117762   2.559   0.078   7.640 -0.5803 -0.7943  0.3537
  159SAPE  H11R17763   2.575  -0.016   7.584  3.5171 -0.2772  0.3781
  159SAPE  C21217764   2.586   0.090   7.767 -0.6852 -0.3068  0.0752
  159SAPE  H12R17765   2.632   0.011   7.829 -1.7627 -0.3857  0.8077
  159SAPE  C21317766   2.556   0.213   7.851 -0.7533 -0.2523  0.2388
  159SAPE  H13R17767   2.603   0.309   7.821 -2.3086  0.8429  1.1736
  159SAPE  H13S17768   2.614   0.208   7.946  0.9625 -0.4747 -0.7890
  159SAPE  C21417769   2.402   0.231   7.869  0.1771 -0.1503 -0.0305
  159SAPE  H14R17770   2.344   0.175   7.795  3.6447 -3.1716 -0.7531
  159SAPE  C21517771   2.344   0.305   7.962  0.5626  0.0842 -0.0040
  159SAPE  H15R17772   2.236   0.292   7.978  0.5001  0.3569 -0.2048
  159SAPE  C21617773   2.412   0.380   8.069 -0.1615 -0.5460 -0.0743
  159SAPE  H16R17774   2.347   0.468   8.091 -0.2112 -0.2498 -1.3137
  159SAPE  H16S17775   2.514   0.417   8.048 -0.3874  0.6406  0.7895
  159SAPE  C21717776   2.432   0.297   8.194 -0.8107  0.1277  0.0572
  159SAPE  H17R17777   2.504   0.349   8.261  1.1457 -1.7042 -0.5491
  159SAPE  H17S17778   2.477   0.198   8.175  1.2180  0.6920  1.5697
  159SAPE  C21817779   2.298   0.277   8.270 -0.8112  0.0507 -0.3768
  159SAPE  H18R17780   2.254   0.199   8.204  0.0571 -0.3351 -0.5169
  159SAPE  H18S17781   2.232   0.366   8.272 -2.4467 -1.1168 -0.6812
  159SAPE  C21917782   2.320   0.242   8.419  0.1321 -0.8027  0.1577
  159SAPE  H19R17783   2.381   0.319   8.471 -1.1481  1.8589 -2.0097
  159SAPE  H19S17784   2.368   0.143   8.435 -0.3635 -0.8975  1.1451
  159SAPE  C22017785   2.190   0.232   8.501  0.0780  0.3161 -0.1491
  159SAPE  H20R17786   2.119   0.155   8.465 -0.0390 -0.3271  1.3955
  159SAPE  H20S17787   2.132   0.326   8.486  0.5854  0.6032 -0.3567
  159SAPE  H20T17788   2.205   0.233   8.611 -1.9425 -0.6815  0.1688
  159SAPE   C3317789   2.864  -0.066   6.860 -0.3022 -0.3319  0.2512
  159SAPE   H3X17790   2.894  -0.124   6.770 -1.7793 -0.2076 -0.3515
  159SAPE   H3Y17791   2.760  -0.095   6.888 -1.0943  1.2197 -0.9059
  159SAPE   C3417792   2.953  -0.102   6.981 -0.6877 -0.1165  0.5608
  159SAPE   H4X17793   3.055  -0.057   6.976 -1.4249  1.7815  1.5521
  159SAPE   H4Y17794   2.957  -0.212   6.968 -3.3207 -0.2316  0.1184
  159SAPE   C3517795   2.884  -0.061   7.110  0.4381 -0.2790  0.0312
  159SAPE   H5X17796   2.779  -0.095   7.107  0.1494  0.2590  2.3653
  159SAPE   H5Y17797   2.895   0.050   7.117 -1.5233 -0.1042  1.0270
  159SAPE   C3617798   2.959  -0.102   7.240 -0.1132  0.3454  0.9401
  159SAPE   H6X17799   3.052  -0.044   7.228 -1.0113  1.5927 -0.3416
  159SAPE   H6Y17800   2.994  -0.206   7.224  2.0381  1.1285  0.2487
  159SAPE   C3717801   2.884  -0.082   7.367  0.1818  0.9210 -0.0091
  159SAPE   H7X17802   2.783  -0.127   7.369  0.7843 -0.5994 -1.2947
  159SAPE   H7Y17803   2.867   0.027   7.378  0.4208  1.1086 -1.3377
  159SAPE   C3817804   2.951  -0.143   7.487  0.8479 -0.2649  0.8967
  159SAPE   H8X17805   3.048  -0.091   7.499  1.4275  0.1166 -3.6649
  159SAPE   H8Y17806   2.979  -0.249   7.471  1.4045 -0.3609  2.3511
  159SAPE   C3917807   2.854  -0.148   7.606 -0.9708 -0.1820 -0.1868
  159SAPE   H9X17808   2.783  -0.228   7.576 -1.8393 -0.3546  2.1283
  159SAPE   H9Y17809   2.801  -0.053   7.630 -3.2190 -1.5500  0.6222
  159SAPE  C31017810   2.927  -0.206   7.731 -0.5968 -0.1310 -0.0023
  159SAPE  H10X17811   3.018  -0.143   7.738  1.0169 -2.2176 -1.0506
  159SAPE  H10Y17812   2.970  -0.305   7.704  0.0926  0.2101 -0.1601
  159SAPE  C31117813   2.839  -0.205   7.859 -0.8202 -0.1085 -0.9987
  159SAPE  H11X17814   2.735  -0.239   7.845 -0.4490 -2.5729  1.4094
  159SAPE  H11Y17815   2.835  -0.097   7.884 -0.9939 -0.2122 -0.5724
  159SAPE  C31217816   2.900  -0.279   7.984 -0.1751  0.6052  0.1405
  159SAPE  H12X17817   2.989  -0.229   8.029  0.2326  0.9038 -0.9645
  159SAPE  H12Y17818   2.944  -0.376   7.952 -0.7644  0.4606 -0.2292
  159SAPE  C31317819   2.805  -0.295   8.105 -0.3240  0.1356  0.1722
  159SAPE  H13X17820   2.735  -0.374   8.070 -1.1116  0.1258  1.6938
  159SAPE  H13Y17821   2.751  -0.198   8.119  0.1805  0.3736  0.4928
  159SAPE  C31417822   2.860  -0.336   8.243  0.5530  0.4610 -0.3660
  159SAPE  H14X17823   2.777  -0.373   8.306  0.2975  1.4214 -0.1204
  159SAPE  H14Y17824   2.906  -0.252   8.300  1.2707  0.1005 -0.3967
  159SAPE  C31517825   2.956  -0.449   8.242 -0.8252  0.4291  0.0448
  159SAPE  H15X17826   3.044  -0.410   8.187 -0.4196 -0.3546  0.1205
  159SAPE  H15Y17827   2.916  -0.530   8.177 -0.0469 -0.1842  0.3208
  159SAPE  C31617828   3.009  -0.505   8.378  0.2502  0.3070  1.1203
  159SAPE  H16X17829   2.924  -0.529   8.447 -0.2127 -0.5250  0.2759
  159SAPE  H16Y17830   3.065  -0.436   8.445 -0.1774  0.2821  1.5167
  159SAPE  C31717831   3.092  -0.631   8.352  0.0376 -0.4375  0.1057
  159SAPE  H17X17832   3.181  -0.610   8.290  0.1653  1.6096  0.9413
  159SAPE  H17Y17833   3.032  -0.706   8.296  0.0417  0.5085 -1.2106
  159SAPE  C31817834   3.135  -0.698   8.480 -0.0566  0.2717 -0.3726
  159SAPE  H18X17835   3.202  -0.633   8.540  0.0732 -0.8296  0.7212
  159SAPE  H18Y17836   3.203  -0.784   8.464  1.1165  0.4027  3.0899
  159SAPE  H18Z17837   3.062  -0.751   8.546 -1.5685  0.8753 -1.4915
  160SAPE     N17838   1.963   6.174   6.220 -0.1313  0.4340 -0.1237
  160SAPE   HN117839   1.870   6.129   6.211 -1.4198  3.3526 -3.0429
  160SAPE   HN217840   1.945   6.266   6.177  1.6857  1.8338  1.8867
  160SAPE   HN317841   2.031   6.125   6.158 -1.5749 -1.4371 -0.3333
  160SAPE   C1217842   2.005   6.187   6.362  0.2245 -0.0072 -0.1571
  160SAPE  H12A17843   1.916   6.153   6.419 -2.3950  3.0430 -2.0427
  160SAPE  H12B17844   2.034   6.294   6.375 -0.1490  0.0278  0.4174
  160SAPE   C1117845   2.126   6.106   6.397 -0.5553  0.5939 -0.2783
  160SAPE  H11A17846   2.102   5.998   6.385  0.1495  0.4142 -0.0846
  160SAPE  H11B17847   2.137   6.130   6.505  0.5566 -0.4167 -0.1390
  160SAPE     P17848   2.384   6.105   6.383  0.1532 -0.0098 -0.2707
  160SAPE   O1317849   2.377   5.960   6.416 -0.1742  0.2926 -0.3608
  160SAPE   O1417850   2.481   6.144   6.277 -0.2810 -0.1902 -0.2696
  160SAPE   O1217851   2.241   6.148   6.328 -0.4674  0.2249  0.4742
  160SAPE   O1117852   2.393   6.187   6.511 -0.1380  0.0682 -0.2172
  160SAPE    C117853   2.505   6.268   6.554 -0.3491  0.0780 -0.2978
  160SAPE    HA17854   2.589   6.262   6.481 -0.1137 -0.7646  0.0214
  160SAPE    HB17855   2.483   6.376   6.562 -0.9008  0.2010 -2.6388
  160SAPE    C217856   2.552   6.230   6.697 -0.0149  0.0854 -0.3029
  160SAPE    HS17857   2.644   6.285   6.724 -0.2211  1.1117 -1.5888
  160SAPE   O2117858   2.576   6.087   6.714 -0.0184 -0.5545 -0.2646
  160SAPE   C2117859   2.675   6.041   6.643  0.8928  0.4398 -1.2524
  160SAPE   O2217860   2.758   6.105   6.586 -0.0354 -0.3843  1.0037
  160SAPE   C2217861   2.681   5.888   6.660  0.0628 -0.4571  0.7781
  160SAPE   H2R17862   2.664   5.855   6.765 -0.7070 -0.3593  0.6942
  160SAPE   H2S17863   2.603   5.841   6.597 -0.1908  0.0856  0.6844
  160SAPE    C317864   2.437   6.272   6.792 -0.5181 -0.1880 -0.6600
  160SAPE    HX17865   2.348   6.209   6.772  0.0838 -1.2386 -0.0766
  160SAPE    HY17866   2.408   6.378   6.772  0.2394  0.4612  1.4285
  160SAPE   O3117867   2.475   6.256   6.933 -0.2489  0.2769  0.1124
  160SAPE   C3117868   2.556   6.348   6.985 -0.7598  0.0152  0.0120
  160SAPE   O3217869   2.613   6.434   6.922  0.4733  0.6382  0.0750
  160SAPE   C3217870   2.542   6.344   7.134  0.4913 -0.1791 -0.0299
  160SAPE   H2X17871   2.533   6.237   7.164  0.2331 -0.4957 -1.2029
  160SAPE   H2Y17872   2.448   6.394   7.165 -0.6113 -1.8800 -0.4840
  160SAPE   C2317873   2.816   5.830   6.604 -0.1748 -0.1647  0.3556
  160SAPE   H3R17874   2.834   5.860   6.498 -0.7408 -0.7467  0.0884
  160SAPE   H3S17875   2.796   5.721   6.601  1.4049 -0.4488 -0.6679
  160SAPE   C2417876   2.942   5.869   6.687  0.7859  0.6904  0.5946
  160SAPE   H4R17877   2.946   5.979   6.696 -0.6050  0.7419  0.8387
  160SAPE   H4S17878   3.028   5.851   6.620  0.3079  1.2087 -0.1786
  160SAPE   C2517879   2.939   5.793   6.818  0.1382  0.3534  0.0066
  160SAPE   H5R17880   2.985   5.695   6.802  0.7244  0.9268 -2.0992
  160SAPE   C2617881   2.910   5.839   6.940  0.0210 -0.4955 -0.1787
  160SAPE   H6R17882   2.921   5.769   7.024  0.0732 -0.2044  0.0574
  160SAPE   C2717883   2.872   5.980   6.968 -0.8044  0.2480  0.3497
  160SAPE   H7R17884   2.852   6.037   6.874  0.0597 -0.1278 -0.0709
  160SAPE   H7S17885   2.972   6.016   7.001 -0.2760 -1.4804  0.7121
  160SAPE   C2817886   2.757   5.995   7.059 -0.8302  0.1869  0.2067
  160SAPE   H8R17887   2.655   6.000   7.018 -0.6599  2.0491 -0.0845
  160SAPE   C2917888   2.770   6.002   7.192  0.5160  0.1069 -0.0096
  160SAPE   H9R17889   2.682   6.014   7.257 -1.4465 -2.5255 -1.9475
  160SAPE  C21017890   2.896   6.002   7.274 -0.6036  0.3504  0.3124
  160SAPE  H10R17891   2.867   6.064   7.362 -0.4257 -2.0383  2.1570
  160SAPE  H10S17892   2.973   6.056   7.215 -0.8367 -1.8033 -2.1626
  160SAPE  C21117893   2.946   5.865   7.298 -0.0893  0.6926  0.1777
  160SAPE  H11R17894   2.987   5.820   7.206 -0.9161 -0.8769  0.5359
  160SAPE  C21217895   2.944   5.802   7.418 -0.1799 -0.1110  0.5567
  160SAPE  H12R17896   2.952   5.693   7.419  3.3199  0.0281  2.0230
  160SAPE  C21317897   2.887   5.862   7.542  0.2267 -0.4057 -0.6776
  160SAPE  H13R17898   2.801   5.925   7.511 -1.0397 -0.8920  1.6226
  160SAPE  H13S17899   2.954   5.940   7.583  0.3035 -0.9004  0.1610
  160SAPE  C21417900   2.851   5.769   7.651 -0.2172 -0.1703 -0.4082
  160SAPE  H14R17901   2.930   5.700   7.680 -1.0377 -0.6340  0.7822
  160SAPE  C21517902   2.730   5.759   7.715 -0.6110 -0.0853  0.3449
  160SAPE  H15R17903   2.719   5.672   7.781  1.8360 -1.6696 -1.1669
  160SAPE  C21617904   2.607   5.843   7.698  0.0265  0.3280  0.1781
  160SAPE  H16R17905   2.531   5.784   7.642  1.7580 -1.1035 -0.7812
  160SAPE  H16S17906   2.631   5.934   7.639 -0.0754 -1.3761 -2.6506
  160SAPE  C21717907   2.548   5.890   7.830 -0.6200 -0.0112 -0.8653
  160SAPE  H17R17908   2.482   5.978   7.818  2.5144  2.9239  1.5039
  160SAPE  H17S17909   2.632   5.939   7.883  0.3663 -1.9874 -0.5079
  160SAPE  C21817910   2.495   5.774   7.918 -0.3226 -0.2785  0.0648
  160SAPE  H18R17911   2.578   5.710   7.952 -0.9003 -0.8597  0.3867
  160SAPE  H18S17912   2.435   5.703   7.858 -0.0721  0.9504 -1.7398
  160SAPE  C21917913   2.436   5.826   8.046 -0.4053 -0.7374  0.4495
  160SAPE  H19R17914   2.365   5.907   8.016 -2.4645 -2.4089  0.5841
  160SAPE  H19S17915   2.515   5.868   8.112 -1.7787 -0.8429  2.2389
  160SAPE  C22017916   2.371   5.718   8.129  0.2290  0.3458  0.3188
  160SAPE  H20R17917   2.438   5.646   8.181 -1.3079 -1.2646  0.1948
  160SAPE  H20S17918   2.314   5.658   8.054 -1.8066  0.8347  1.4224
  160SAPE  H20T17919   2.285   5.751   8.191  0.5597 -0.2472  1.1178
  160SAPE   C3317920   2.665   6.403   7.197 -0.1577 -0.4631 -0.1566
  160SAPE   H3X17921   2.659   6.513   7.214 -2.5113 -0.6567  0.6068
  160SAPE   H3Y17922   2.752   6.389   7.129  0.6821 -1.4352  1.0899
  160SAPE   C3417923   2.715   6.338   7.330  0.0884 -0.2577  0.0036
  160SAPE   H4X17924   2.782   6.410   7.382 -1.4604  0.6918  0.7376
  160SAPE   H4Y17925   2.766   6.240   7.311  1.7688 -0.2487  3.6867
  160SAPE   C3517926   2.602   6.318   7.426  0.4797  0.6128 -0.3504
  160SAPE   H5X17927   2.539   6.234   7.391  1.7660 -0.0047 -1.2730
  160SAPE   H5Y17928   2.545   6.413   7.424 -0.2537  0.2341  1.3184
  160SAPE   C3617929   2.661   6.281   7.564  0.4603 -0.1703  0.8064
  160SAPE   H6X17930   2.753   6.336   7.592  1.0199  0.2593 -1.6807
  160SAPE   H6Y17931   2.692   6.176   7.552 -0.5272 -0.3046 -0.9431
  160SAPE   C3717932   2.559   6.281   7.680 -0.5638 -0.6249 -0.6479
  160SAPE   H7X17933   2.468   6.223   7.651  0.5407 -1.9242 -1.6245
  160SAPE   H7Y17934   2.533   6.386   7.706  0.4385 -1.0695  2.6152
  160SAPE   C3817935   2.619   6.234   7.819  0.1732 -0.4085 -0.5425
  160SAPE   H8X17936   2.696   6.307   7.851 -1.1917  0.1223  1.7579
  160SAPE   H8Y17937   2.663   6.133   7.803 -1.3352 -0.7390 -3.0525
  160SAPE   C3917938   2.532   6.230   7.945  0.0770  0.1416  0.5085
  160SAPE   H9X17939   2.441   6.167   7.932  1.3567 -1.5159 -1.0555
  160SAPE   H9Y17940   2.496   6.331   7.972 -2.2930 -0.4570 -0.1885
  160SAPE  C31017941   2.601   6.175   8.072  0.0032 -0.0164  0.1087
  160SAPE  H10X17942   2.700   6.224   8.084 -1.2610  2.6083  0.5980
  160SAPE  H10Y17943   2.625   6.067   8.065 -0.4119 -0.1427  0.6278
  160SAPE  C31117944   2.529   6.201   8.208 -0.2358  0.6641 -0.1046
  160SAPE  H11X17945   2.437   6.139   8.213  0.4207 -0.4185 -0.9725
  160SAPE  H11Y17946   2.492   6.306   8.208  1.5906  1.3708  1.4404
  160SAPE  C31217947   2.616   6.182   8.332  0.6363  0.6750  0.5556
  160SAPE  H12X17948   2.719   6.219   8.314  0.6979  0.3467  0.2340
  160SAPE  H12Y17949   2.618   6.072   8.348 -0.2685  0.2826 -1.7292
  160SAPE  C31317950   2.553   6.264   8.447  0.2876  0.8088 -0.3084
  160SAPE  H13X17951   2.582   6.371   8.434 -0.3225  1.4264  2.6181
  160SAPE  H13Y17952   2.612   6.232   8.536 -2.4117  0.5098  1.5109
  160SAPE  C31417953   2.401   6.254   8.465 -0.1943  0.4566 -0.3477
  160SAPE  H14X17954   2.349   6.157   8.478 -0.5249  0.6988  0.1932
  160SAPE  H14Y17955   2.349   6.317   8.390  0.2562  0.4248 -0.6951
  160SAPE  C31517956   2.362   6.320   8.604 -0.3484 -0.9189 -0.1108
  160SAPE  H15X17957   2.424   6.413   8.604  1.0519 -1.7926 -1.6664
  160SAPE  H15Y17958   2.385   6.254   8.690  0.6580  1.5947  1.6957
  160SAPE  C31617959   2.214   6.349   8.627 -0.3542 -0.9193 -0.1008
  160SAPE  H16X17960   2.165   6.353   8.527  3.2215  0.0395 -1.9920
  160SAPE  H16Y17961   2.210   6.449   8.674  0.2390 -1.3137  0.8151
  160SAPE  C31717962   2.151   6.260   8.736 -0.0766 -0.0142  0.4881
  160SAPE  H17X17963   2.052   6.307   8.752  0.2332  0.6881  0.4146
  160SAPE  H17Y17964   2.218   6.276   8.823  0.9876  2.0235 -0.6322
  160SAPE  C31817965   2.144   6.107   8.706  0.5308  0.3566 -0.1260
  160SAPE  H18X17966   2.066   6.095   8.627 -2.7575  0.9599  2.7888
  160SAPE  H18Y17967   2.111   6.046   8.793  1.0455 -0.6705 -0.6302
  160SAPE  H18Z17968   2.236   6.058   8.668 -0.4245 -1.0966 -0.6703
  161SOPE     N17969   2.498   1.426  10.413 -0.1410 -0.1776 -0.4305
  161SOPE   HN117970   2.502   1.483  10.500 -2.6363  2.3480 -1.8040
  161SOPE   HN217971   2.592   1.405  10.372  0.9267  2.6994  0.3345
  161SOPE   HN317972   2.447   1.492  10.351  0.7673 -0.6370 -1.7185
  161SOPE   C1217973   2.413   1.303  10.426 -0.1611 -0.5754 -0.0769
  161SOPE  H12A17974   2.472   1.213  10.450  0.4004 -0.2665 -0.2811
  161SOPE  H12B17975   2.370   1.295  10.324  0.5067  2.5626 -0.7303
  161SOPE   C1117976   2.294   1.339  10.523  0.1792  0.1310 -0.1150
  161SOPE  H11A17977   2.347   1.358  10.619  1.3868  0.7460 -0.8736
  161SOPE  H11B17978   2.230   1.249  10.534  0.5056  0.0635  1.5299
  161SOPE     P17979   2.109   1.521  10.540 -0.3633 -0.0917  0.2495
  161SOPE   O1317980   2.133   1.666  10.539 -0.3559  0.6709  0.2605
  161SOPE   O1417981   2.094   1.467  10.680 -0.5726 -0.6179  0.0040
  161SOPE   O1217982   2.235   1.457  10.469  0.4634 -0.0744  0.3477
  161SOPE   O1117983   1.987   1.487  10.450 -0.3658 -0.1019  0.4155
  161SOPE    C117984   1.992   1.407  10.330 -0.4360 -0.2515 -0.1165
  161SOPE    HA17985   1.888   1.388  10.297  0.6380 -2.5040 -2.4630
  161SOPE    HB17986   2.064   1.323  10.338  1.5324  1.3537 -0.2554
  161SOPE    C217987   2.051   1.482  10.201  0.0101 -0.6529  0.7244
  161SOPE    HS17988   2.161   1.486  10.215 -0.1118 -0.3235  1.6345
  161SOPE   O2117989   1.982   1.604  10.180  0.3793 -0.1653 -0.3258
  161SOPE   C2117990   2.051   1.718  10.184 -0.3512  0.5231 -0.1566
  161SOPE   O2217991   2.170   1.721  10.184  0.3410 -0.0863  0.0918
  161SOPE   C2217992   1.958   1.829  10.171  0.4644  0.6507 -1.2725
  161SOPE   H2R17993   1.950   1.886  10.266  1.2547 -1.2588 -0.0004
  161SOPE   H2S17994   1.856   1.791  10.151  0.9062 -0.1683 -2.0206
  161SOPE    C317995   2.031   1.402  10.068  0.0970  0.7220  0.3674
  161SOPE    HX17996   1.921   1.396  10.050 -0.0245  0.4786  1.1630
  161SOPE    HY17997   2.071   1.299  10.083 -0.5327  0.5707  1.0924
  161SOPE   O3117998   2.089   1.470   9.956  0.2703 -0.3443  0.1322
  161SOPE   C3117999   2.224   1.457   9.940 -0.1821 -0.1698  0.9353
  161SOPE   O3218000   2.291   1.379  10.010  0.1077  0.3472  0.4069
  161SOPE   C3218001   2.279   1.564   9.847 -0.0149 -1.0596  0.8314
  161SOPE   H2X18002   2.389   1.549   9.842 -0.3396 -3.5477 -0.7091
  161SOPE   H2Y18003   2.249   1.660   9.894  0.5852  0.0942 -1.0718
  161SOPE   C2318004   2.009   1.937  10.070  0.4914  0.0930  0.1620
  161SOPE   H3R18005   2.106   1.970  10.112 -0.9511  2.2988  1.9580
  161SOPE   H3S18006   1.934   2.018  10.073 -1.3062 -1.5316  0.9115
  161SOPE   C2418007   2.008   1.884   9.924  0.3985 -0.5581 -0.2593
  161SOPE   H4R18008   2.080   1.801   9.911  1.0451 -0.2932  1.3519
  161SOPE   H4S18009   1.905   1.845   9.905 -0.3292  2.2987 -3.1903
  161SOPE   C2518010   2.024   2.003   9.829 -0.1380 -0.0557  0.2307
  161SOPE   H5R18011   1.940   2.070   9.858  1.2734  2.1713 -0.5541
  161SOPE   H5S18012   2.122   2.052   9.849 -0.5873  1.2401 -0.5639
  161SOPE   C2618013   2.030   1.967   9.679 -0.2631  0.2076  0.3719
  161SOPE   H6R18014   2.118   1.904   9.653 -0.6251 -0.7488  1.3839
  161SOPE   H6S18015   1.951   1.904   9.634  1.4972  0.1386 -2.8987
  161SOPE   C2718016   2.045   2.096   9.588 -0.0976  0.1000 -0.1993
  161SOPE   H7R18017   1.963   2.168   9.610 -0.5392 -0.4293 -0.0849
  161SOPE   H7S18018   2.136   2.151   9.620 -0.8406  2.5345 -1.9891
  161SOPE   C2818019   2.049   2.069   9.442  0.2303 -0.0219 -0.4341
  161SOPE   H8R18020   1.957   2.009   9.424  0.8976 -1.6857  1.3392
  161SOPE   H8S18021   2.044   2.148   9.363  2.0805 -0.1374 -0.7012
  161SOPE   C2918022   2.167   1.994   9.398 -0.3982  0.2151 -0.3114
  161SOPE   H9118023   2.248   1.994   9.472 -1.2123  3.0968  0.7162
  161SOPE  C21018024   2.185   1.930   9.277 -0.2766 -0.2931 -0.2619
  161SOPE  H10118025   2.283   1.881   9.265 -0.2509 -1.0196  2.2189
  161SOPE  C21118026   2.096   1.932   9.161 -0.1984 -0.1288 -0.2131
  161SOPE  H11R18027   2.033   2.018   9.128  0.1159  0.6074  1.0324
  161SOPE  H11S18028   2.012   1.861   9.174 -0.7233  0.7140  1.2534
  161SOPE  C21218029   2.165   1.881   9.034 -0.4167  0.7817 -0.4612
  161SOPE  H12R18030   2.082   1.860   8.963  0.0177  0.3093 -0.8354
  161SOPE  H12S18031   2.223   1.787   9.046 -0.7804  0.6422  0.2449
  161SOPE  C21318032   2.261   1.982   8.970  0.6321  0.8601  0.0707
  161SOPE  H13R18033   2.340   2.004   9.046  1.0689  0.7910 -0.3573
  161SOPE  H13S18034   2.212   2.076   8.936  0.5702  1.6368  2.1598
  161SOPE  C21418035   2.338   1.913   8.848 -0.8285  0.6401 -0.4276
  161SOPE  H14R18036   2.395   1.826   8.888  0.2425  2.3076  1.9097
  161SOPE  H14S18037   2.422   1.980   8.820  1.6711 -1.2687  1.9033
  161SOPE  C21518038   2.242   1.877   8.723 -0.3359  1.1589 -0.7938
  161SOPE  H15R18039   2.171   1.796   8.752 -0.7609  1.5695 -0.6790
  161SOPE  H15S18040   2.311   1.829   8.650  0.7345 -2.7672  2.3821
  161SOPE  C21618041   2.167   1.989   8.651  0.8896 -0.8302 -0.1480
  161SOPE  H16R18042   2.222   2.085   8.651 -2.6299  1.3980  1.5439
  161SOPE  H16S18043   2.094   2.026   8.726  2.1486  0.3036  0.5469
  161SOPE  C21718044   2.119   1.958   8.513 -0.1483 -0.4404 -0.0106
  161SOPE  H17R18045   2.077   2.058   8.490  1.7211  0.8260  1.7879
  161SOPE  H17S18046   2.035   1.885   8.515 -0.0162 -0.5996 -0.2054
  161SOPE  C21818047   2.223   1.914   8.418  0.0034 -0.0250  0.2249
  161SOPE  H18R18048   2.288   1.828   8.447 -1.7489 -1.0135  1.4191
  161SOPE  H18S18049   2.297   1.996   8.406  1.6918 -1.6262 -1.0598
  161SOPE  H18T18050   2.179   1.887   8.319 -1.1455  1.7480  0.2162
  161SOPE   C3318051   2.231   1.583   9.699  0.5335  0.0379  0.5348
  161SOPE   H3X18052   2.120   1.587   9.696  0.4695  0.9905  2.7052
  161SOPE   H3Y18053   2.261   1.494   9.640  2.0314 -0.2297  1.6421
  161SOPE   C3418054   2.309   1.694   9.639 -0.5861 -0.4439  0.3891
  161SOPE   H4X18055   2.418   1.689   9.661 -0.0128  0.5959 -1.9161
  161SOPE   H4Y18056   2.284   1.793   9.682  1.5222 -0.4337  1.7916
  161SOPE   C3518057   2.294   1.691   9.489 -0.1311 -0.6389 -0.4693
  161SOPE   H5X18058   2.300   1.796   9.452 -1.4632 -0.0882  0.7570
  161SOPE   H5Y18059   2.192   1.665   9.453 -1.1487  1.4031  0.7725
  161SOPE   C3618060   2.395   1.605   9.411  0.4560  0.5016 -0.8377
  161SOPE   H6X18061   2.380   1.499   9.440  0.5752  0.4735 -0.8768
  161SOPE   H6Y18062   2.501   1.615   9.442 -0.4862  2.3499  2.3667
  161SOPE   C3718063   2.394   1.620   9.259  0.2006 -0.1693  0.3386
  161SOPE   H7X18064   2.422   1.721   9.224  1.8648 -0.9725 -0.7497
  161SOPE   H7Y18065   2.293   1.592   9.221  0.6980 -3.3821  1.0354
  161SOPE   C3818066   2.473   1.518   9.183  0.4977  0.1446  0.0704
  161SOPE   H8X18067   2.440   1.418   9.218  1.4070 -0.3984 -0.5504
  161SOPE   H8Y18068   2.581   1.529   9.207  1.0808  0.2163 -2.3166
  161SOPE   C3918069   2.462   1.516   9.031 -0.6557  0.3160 -0.0990
  161SOPE   H9X18070   2.460   1.622   8.997  0.1389  0.9512  1.6760
  161SOPE   H9Y18071   2.357   1.487   9.011 -1.1964  1.5109  0.8581
  161SOPE  C31018072   2.566   1.442   8.959  0.2255  0.7841  0.6278
  161SOPE  H10X18073   2.575   1.342   9.007 -2.5682 -0.5299 -1.3173
  161SOPE  H10Y18074   2.657   1.504   8.970  0.2736  0.8873 -0.2314
  161SOPE  C31118075   2.542   1.420   8.807  1.0250 -0.8082 -0.4988
  161SOPE  H11X18076   2.464   1.340   8.802  0.0999 -0.0228  0.6533
  161SOPE  H11Y18077   2.633   1.366   8.772  1.4540 -2.1660  2.4026
  161SOPE  C31218078   2.513   1.538   8.721 -0.2970  0.5586 -0.4987
  161SOPE  H12X18079   2.593   1.616   8.721  0.7726 -0.5018  0.0516
  161SOPE  H12Y18080   2.429   1.598   8.761  0.3814  1.1772  0.0499
  161SOPE  C31318081   2.465   1.505   8.579 -0.1083  0.3906 -0.0563
  161SOPE  H13X18082   2.355   1.493   8.587 -0.0135 -0.3851  0.1857
  161SOPE  H13Y18083   2.504   1.402   8.563 -1.5265 -0.4263  1.5035
  161SOPE  C31418084   2.518   1.605   8.469 -0.3493  0.0748 -1.1850
  161SOPE  H14X18085   2.629   1.609   8.472 -0.3205  1.1429 -2.5826
  161SOPE  H14Y18086   2.490   1.710   8.494  1.6813  0.4581 -0.3047
  161SOPE  C31518087   2.479   1.570   8.321  0.4321  0.3591  0.2291
  161SOPE  H15X18088   2.371   1.582   8.297  0.3360 -0.6749  0.0951
  161SOPE  H15Y18089   2.502   1.462   8.305  0.4609  0.2488  0.9918
  161SOPE  C31618090   2.554   1.658   8.218  0.2119 -0.5098 -1.0592
  161SOPE  H16X18091   2.657   1.617   8.208  1.3602  1.3721  1.6723
  161SOPE  H16Y18092   2.565   1.758   8.266  0.3086 -0.7437 -0.5975
  161SOPE  C31718093   2.490   1.689   8.082  0.1037  0.6042 -0.1192
  161SOPE  H17X18094   2.563   1.730   8.010 -0.2883  1.0991 -0.2394
  161SOPE  H17Y18095   2.412   1.763   8.111  0.2940  0.7632 -0.0131
  161SOPE  C31818096   2.434   1.562   8.016 -0.5632 -0.5740  0.1081
  161SOPE  H18X18097   2.355   1.532   8.089 -0.2044  1.1911  1.2679
  161SOPE  H18Y18098   2.524   1.499   8.001  1.6740  1.9163  2.1199
  161SOPE  H18Z18099   2.385   1.581   7.919  0.1900  0.5375 -0.0624
  162SOPE     N18100   6.609   2.800  10.699  0.1310 -0.2730  0.2243
  162SOPE   HN118101   6.593   2.891  10.651  1.2966 -1.4528 -2.5852
  162SOPE   HN218102   6.515   2.770  10.733  0.8328 -1.8060  0.8933
  162SOPE   HN318103   6.674   2.818  10.778 -1.4138 -1.0059  1.7379
  162SOPE   C1218104   6.656   2.688  10.605  0.4036 -0.7480  0.4128
  162SOPE  H12A18105   6.750   2.722  10.556  0.4887 -1.3385  0.1631
  162SOPE  H12B18106   6.573   2.661  10.537  1.5962 -0.5023 -1.2075
  162SOPE   C1118107   6.688   2.560  10.680  0.3691  0.0760  0.3274
  162SOPE  H11A18108   6.736   2.502  10.599 -1.7683  0.7941 -1.5540
  162SOPE  H11B18109   6.593   2.511  10.712 -1.6171  2.7859 -0.9583
  162SOPE     P18110   6.838   2.460  10.866  0.1443 -0.2378 -0.3078
  162SOPE   O1318111   6.740   2.427  10.972  0.2909  0.0371 -0.5798
  162SOPE   O1418112   6.981   2.488  10.898  0.7494 -0.2325  0.1786
  162SOPE   O1218113   6.770   2.584  10.793  0.1408 -0.5512  0.6016
  162SOPE   O1118114   6.849   2.340  10.755  0.0503 -0.0390 -0.2348
  162SOPE    C118115   6.808   2.209  10.790  0.2349 -0.2499 -0.0985
  162SOPE    HA18116   6.699   2.207  10.813  0.0008 -0.5915 -1.1930
  162SOPE    HB18117   6.868   2.173  10.876  2.1230 -0.2617 -1.3656
  162SOPE    C218118   6.834   2.119  10.675  0.3296  0.2353 -0.3176
  162SOPE    HS18119   6.796   2.021  10.712  0.3311 -0.2144 -1.4608
  162SOPE   O2118120   6.973   2.119  10.620  0.0020 -0.3828 -0.2679
  162SOPE   C2118121   7.055   2.044  10.693  0.3142  0.4959 -0.6350
  162SOPE   O2218122   7.028   1.982  10.794  0.0229 -0.4291  0.4857
  162SOPE   C2218123   7.194   2.053  10.625 -0.4313  0.1381 -0.4920
  162SOPE   H2R18124   7.275   2.029  10.698  0.5861  1.5042 -1.1448
  162SOPE   H2S18125   7.200   2.161  10.601 -0.0935 -0.2286 -2.1493
  162SOPE    C318126   6.736   2.168  10.560  0.2473  0.3045 -0.0779
  162SOPE    HX18127   6.771   2.269  10.528 -1.1775  0.7865 -0.1508
  162SOPE    HY18128   6.642   2.184  10.615  1.2541  0.5857  1.6430
  162SOPE   O3118129   6.724   2.066  10.456 -0.2634  0.0867 -0.0495
  162SOPE   C3118130   6.803   2.087  10.354  0.6533 -0.2676 -0.3534
  162SOPE   O3218131   6.860   2.189  10.326 -0.5199 -0.0260 -0.5516
  162SOPE   C3218132   6.822   1.956  10.283  0.1382 -0.1613 -0.2442
  162SOPE   H2X18133   6.747   1.879  10.311 -1.4639  1.0489 -1.0592
  162SOPE   H2Y18134   6.925   1.923  10.309  0.5541  1.1932 -0.1301
  162SOPE   C2318135   7.199   1.967  10.493 -0.4055  0.5495 -1.2459
  162SOPE   H3R18136   7.281   2.011  10.433  0.1761 -1.3362 -1.8855
  162SOPE   H3S18137   7.108   1.986  10.432 -1.0543 -0.4314 -0.6141
  162SOPE   C2418138   7.224   1.820  10.514 -0.0713  0.5622  0.2052
  162SOPE   H4R18139   7.290   1.803  10.601 -1.9377 -1.5801  1.3150
  162SOPE   H4S18140   7.126   1.769  10.527  0.4671 -0.0106  2.4638
  162SOPE   C2518141   7.277   1.742  10.389 -0.6569 -0.8888 -0.5421
  162SOPE   H5R18142   7.376   1.785  10.363 -1.7197  4.2986  2.5713
  162SOPE   H5S18143   7.281   1.633  10.413 -2.1536 -0.6041  1.2046
  162SOPE   C2618144   7.192   1.740  10.258  0.1834  0.5994 -0.2364
  162SOPE   H6R18145   7.085   1.721  10.281 -0.7028  3.2282 -1.7727
  162SOPE   H6S18146   7.204   1.843  10.218  0.0455  0.3946 -0.8118
  162SOPE   C2718147   7.261   1.654  10.151 -0.5074  0.5422 -1.0606
  162SOPE   H7R18148   7.372   1.667  10.156 -0.5559  0.8196 -0.6742
  162SOPE   H7S18149   7.233   1.549  10.171 -1.2510  1.2572  2.2842
  162SOPE   C2818150   7.224   1.717  10.009 -0.0159 -0.1127 -0.1200
  162SOPE   H8R18151   7.250   1.825  10.013  0.6275 -0.2995  1.1719
  162SOPE   H8S18152   7.299   1.673   9.939  0.3485  1.0863 -0.4986
  162SOPE   C2918153   7.083   1.693   9.964  0.3103 -0.0322 -0.1967
  162SOPE   H9118154   7.020   1.639  10.036 -1.0491  0.0845 -1.2458
  162SOPE  C21018155   7.044   1.712   9.838  0.3108 -0.4429  0.4587
  162SOPE  H10118156   6.945   1.678   9.802  0.0293  0.3850  0.4341
  162SOPE  C21118157   7.128   1.771   9.723  0.4490  0.2489  0.4125
  162SOPE  H11R18158   7.234   1.792   9.751 -0.1363  0.6109  2.4862
  162SOPE  H11S18159   7.078   1.862   9.684  0.0811  0.7621  2.0266
  162SOPE  C21218160   7.135   1.658   9.620 -0.1748 -0.4407 -0.2469
  162SOPE  H12R18161   7.032   1.628   9.591 -0.2993  0.3877 -0.6928
  162SOPE  H12S18162   7.182   1.565   9.660  1.9663 -0.8317 -3.3543
  162SOPE  C21318163   7.206   1.694   9.495  0.2216  0.4259  0.5439
  162SOPE  H13R18164   7.300   1.747   9.519 -0.1249  2.2089 -1.7466
  162SOPE  H13S18165   7.147   1.770   9.440  2.3394  2.2286  0.6259
  162SOPE  C21418166   7.214   1.575   9.404 -0.7737  0.6080  0.4529
  162SOPE  H14R18167   7.112   1.538   9.381  0.5669 -1.5557 -2.6245
  162SOPE  H14S18168   7.274   1.502   9.462  3.2947  4.5211  1.7882
  162SOPE  C21518169   7.272   1.592   9.267  0.3238  0.1345 -0.1857
  162SOPE  H15R18170   7.379   1.623   9.262  0.7070 -1.2756 -1.2024
  162SOPE  H15S18171   7.202   1.650   9.203 -0.1336 -0.5459 -0.3089
  162SOPE  C21618172   7.264   1.459   9.193 -0.5925 -0.4374  0.1292
  162SOPE  H16R18173   7.161   1.418   9.200 -0.9279  0.4592  0.5419
  162SOPE  H16S18174   7.339   1.393   9.241  2.0608  1.5744 -0.9595
  162SOPE  C21718175   7.291   1.475   9.044  0.0559  0.4445  0.3652
  162SOPE  H17R18176   7.385   1.530   9.020 -0.0773  0.5274  0.0268
  162SOPE  H17S18177   7.203   1.515   8.989  1.7026  1.1909 -1.8864
  162SOPE  C21818178   7.293   1.330   8.982 -0.4620  0.3947 -0.7964
  162SOPE  H18R18179   7.325   1.315   8.877  0.8143 -2.9451 -0.0718
  162SOPE  H18S18180   7.186   1.298   8.978  0.3861 -2.6321 -2.6623
  162SOPE  H18T18181   7.357   1.269   9.050 -3.0149 -0.1845  1.2609
  162SOPE   C3318182   6.800   1.957  10.132  0.3142 -0.3603 -0.2898
  162SOPE   H3X18183   6.827   1.853  10.103  0.8064 -0.2958 -0.0804
  162SOPE   H3Y18184   6.874   2.021  10.080  0.5345 -1.8931 -1.9671
  162SOPE   C3418185   6.656   1.979  10.090 -0.0874 -0.5862 -0.3175
  162SOPE   H4X18186   6.639   2.086  10.064 -0.4120 -0.2394  1.2325
  162SOPE   H4Y18187   6.586   1.957  10.173  0.6489  1.9831  1.1017
  162SOPE   C3518188   6.625   1.888   9.964  0.6134  0.2832 -0.1485
  162SOPE   H5X18189   6.516   1.898   9.946  0.9405  0.1395 -2.4819
  162SOPE   H5Y18190   6.650   1.783   9.992 -2.1400  0.0229  1.8129
  162SOPE   C3618191   6.710   1.915   9.841  0.0585 -0.1422  0.0418
  162SOPE   H6X18192   6.814   1.899   9.877  0.2549  1.8689  0.5033
  162SOPE   H6Y18193   6.702   2.020   9.806 -0.4745  0.1184  0.9198
  162SOPE   C3718194   6.677   1.820   9.728 -0.1855  0.3823  0.4748
  162SOPE   H7X18195   6.569   1.820   9.701 -0.1008  3.5401 -0.2914
  162SOPE   H7Y18196   6.709   1.718   9.754  2.7361  0.3409 -2.5904
  162SOPE   C3818197   6.758   1.863   9.607  1.2228 -0.2276 -0.0313
  162SOPE   H8X18198   6.863   1.886   9.634  0.5025  3.2265  0.2886
  162SOPE   H8Y18199   6.725   1.961   9.568  4.0018  0.5152 -0.7443
  162SOPE   C3918200   6.743   1.758   9.495 -0.0335  0.0855 -1.3003
  162SOPE   H9X18201   6.637   1.746   9.465  0.1603  0.4942 -2.1558
  162SOPE   H9Y18202   6.768   1.658   9.537  0.3833  1.0283  0.8187
  162SOPE  C31018203   6.830   1.784   9.372  0.0339  0.3504  0.8705
  162SOPE  H10X18204   6.939   1.788   9.391  0.6204 -2.0850 -1.5097
  162SOPE  H10Y18205   6.799   1.884   9.334  1.9692  1.3948  1.9091
  162SOPE  C31118206   6.809   1.668   9.269  0.3583 -0.2931  0.4165
  162SOPE  H11X18207   6.702   1.651   9.243  0.5466  0.9770 -1.4087
  162SOPE  H11Y18208   6.861   1.582   9.316 -0.4713 -2.0444 -1.6928
  162SOPE  C31218209   6.877   1.694   9.137  0.1783 -0.0527  0.9597
  162SOPE  H12X18210   6.880   1.602   9.075 -0.6826  1.0020 -0.7415
  162SOPE  H12Y18211   6.977   1.729   9.172  0.2901  0.6587 -0.0136
  162SOPE  C31318212   6.800   1.802   9.050  0.3500  0.3493 -1.7000
  162SOPE  H13X18213   6.800   1.904   9.094 -3.6555  0.4853 -1.6643
  162SOPE  H13Y18214   6.693   1.776   9.040 -0.1447  0.3437  2.0952
  162SOPE  C31418215   6.860   1.829   8.911 -0.1008 -0.3122 -0.0557
  162SOPE  H14X18216   6.968   1.858   8.915  0.2484 -1.4727 -0.6873
  162SOPE  H14Y18217   6.811   1.926   8.889  0.8587  0.5223  1.3127
  162SOPE  C31518218   6.854   1.720   8.813  0.5620 -0.2158  0.2883
  162SOPE  H15X18219   6.749   1.692   8.786  0.5970 -1.9316  1.6599
  162SOPE  H15Y18220   6.899   1.627   8.854 -1.3307 -1.2397  0.1838
  162SOPE  C31618221   6.922   1.754   8.679 -0.3190 -0.0798  0.4401
  162SOPE  H16X18222   6.972   1.853   8.688 -1.6100  0.5640  0.8343
  162SOPE  H16Y18223   6.838   1.767   8.608 -0.7999  3.2761  1.4503
  162SOPE  C31718224   7.023   1.650   8.628  0.0233  0.5171 -0.1719
  162SOPE  H17X18225   7.039   1.655   8.518  1.4096  0.5351  0.0070
  162SOPE  H17Y18226   6.984   1.551   8.659 -1.6524  1.0883 -0.3269
  162SOPE  C31818227   7.161   1.675   8.689  0.5660 -0.7474 -0.4045
  162SOPE  H18X18228   7.196   1.777   8.662  2.3393 -0.7885  1.4993
  162SOPE  H18Y18229   7.241   1.612   8.644  0.5774 -0.5942 -0.5977
  162SOPE  H18Z18230   7.165   1.660   8.799  0.2055 -0.3027 -0.3322
  163SOPE     N18231   1.848   6.038  10.671  0.4787  0.2487 -0.7594
  163SOPE   HN118232   1.780   5.961  10.687  1.9321 -0.7772  1.0737
  163SOPE   HN218233   1.897   6.012  10.583  0.8768 -0.6910 -0.2724
  163SOPE   HN318234   1.912   6.027  10.753 -1.2674 -1.2133  0.5191
  163SOPE   C1218235   1.788   6.169  10.655  0.2418 -0.1665  0.1187
  163SOPE  H12A18236   1.847   6.222  10.578  1.0527  1.1247  1.5541
  163SOPE  H12B18237   1.812   6.216  10.753  1.7426 -1.4652  0.4060
  163SOPE   C1118238   1.638   6.169  10.610  0.3913  0.0054 -0.9020
  163SOPE  H11A18239   1.640   6.126  10.507  0.9532  0.0175 -0.9003
  163SOPE  H11B18240   1.604   6.272  10.585 -1.8768 -1.1577 -3.1116
  163SOPE     P18241   1.390   6.119  10.675  0.3853 -0.1513  0.0820
  163SOPE   O1318242   1.358   6.262  10.637 -0.3232 -0.3085 -0.0525
  163SOPE   O1418243   1.320   6.065  10.790 -0.5087 -0.4364  0.3011
  163SOPE   O1218244   1.542   6.108  10.704  0.6649  0.2960  0.4523
  163SOPE   O1118245   1.370   6.023  10.551 -0.2746 -0.2558  0.0896
  163SOPE    C118246   1.238   6.008  10.503  0.1737  0.0403  0.1737
  163SOPE    HA18247   1.186   6.106  10.493  1.1452  0.4405 -1.2725
  163SOPE    HB18248   1.177   5.941  10.567  0.2254 -0.8825 -0.7262
  163SOPE    C218249   1.245   5.947  10.364 -0.2884 -0.1083  0.1418
  163SOPE    HS18250   1.323   5.870  10.352  0.2025  0.3555  0.3471
  163SOPE   O2118251   1.269   6.058  10.278 -0.1943 -0.0960  0.3898
  163SOPE   C2118252   1.392   6.086  10.258 -0.3680  0.2083 -0.0490
  163SOPE   O2218253   1.486   6.018  10.305 -0.1187 -0.3221 -0.2355
  163SOPE   C2218254   1.403   6.211  10.168  0.0742  0.9443 -0.3329
  163SOPE   H2R18255   1.325   6.276  10.213  1.2840  1.6219  0.8166
  163SOPE   H2S18256   1.373   6.169  10.069 -0.8641 -0.1104  0.3728
  163SOPE    C318257   1.102   5.894  10.333  0.5524  0.3305 -0.7993
  163SOPE    HX18258   1.045   5.990  10.334  0.9197  0.5556 -1.0632
  163SOPE    HY18259   1.063   5.829  10.414 -0.9348  1.3485 -0.6405
  163SOPE   O3118260   1.081   5.838  10.200 -0.2405  0.3508 -0.2375
  163SOPE   C3118261   0.946   5.816  10.177 -1.0642  0.0993  0.1018
  163SOPE   O3218262   0.855   5.820  10.261  0.1676 -0.1505  0.2855
  163SOPE   C3218263   0.919   5.804  10.022  0.0381  0.1356 -0.1688
  163SOPE   H2X18264   0.917   5.696   9.995 -1.7523  0.3145 -0.8973
  163SOPE   H2Y18265   0.982   5.872   9.960  0.7145 -0.5673 -0.2795
  163SOPE   C2318266   1.544   6.266  10.172  0.4576 -0.1859 -0.0236
  163SOPE   H3R18267   1.623   6.190  10.187  0.4408 -0.1167  0.4316
  163SOPE   H3S18268   1.547   6.316  10.271 -1.6632  2.3220 -1.1032
  163SOPE   C2418269   1.569   6.375  10.067  0.1445 -0.0131  0.2117
  163SOPE   H4R18270   1.479   6.439  10.053  1.8905  2.2529 -1.2318
  163SOPE   H4S18271   1.643   6.442  10.115  0.0250 -0.4410  1.0149
  163SOPE   C2518272   1.613   6.324   9.937  0.1776  0.3936  0.1304
  163SOPE   H5R18273   1.701   6.258   9.951 -0.1629 -0.5410 -1.8863
  163SOPE   H5S18274   1.541   6.258   9.885  2.7169 -1.9733 -0.5903
  163SOPE   C2618275   1.632   6.434   9.828  0.2744  0.5613 -0.2541
  163SOPE   H6R18276   1.530   6.473   9.809 -0.5545 -1.9412 -1.3643
  163SOPE   H6S18277   1.700   6.515   9.865 -0.6006  0.9845  0.4621
  163SOPE   C2718278   1.690   6.384   9.694  0.2749 -0.0115  0.0597
  163SOPE   H7R18279   1.780   6.321   9.709 -1.6796 -3.3544 -1.0212
  163SOPE   H7S18280   1.608   6.323   9.650  0.0375  0.4614 -0.1674
  163SOPE   C2818281   1.733   6.496   9.593  0.4091 -0.7634 -0.1172
  163SOPE   H8R18282   1.800   6.568   9.646  0.8020 -0.8171 -0.5281
  163SOPE   H8S18283   1.788   6.445   9.511  3.1060 -1.1064  1.7819
  163SOPE   C2918284   1.602   6.564   9.555 -0.4008  0.2920  0.3466
  163SOPE   H9118285   1.548   6.613   9.638 -0.7073  0.2206  0.1903
  163SOPE  C21018286   1.543   6.561   9.443 -0.1630  0.0282  0.2678
  163SOPE  H10118287   1.449   6.617   9.430 -0.7291 -1.2784 -1.7079
  163SOPE  C21118288   1.587   6.500   9.314  0.4721 -0.2374  0.0030
  163SOPE  H11R18289   1.659   6.418   9.334 -1.5891 -1.7902  1.4826
  163SOPE  H11S18290   1.632   6.575   9.245 -0.4327 -1.9071 -2.5355
  163SOPE  C21218291   1.473   6.440   9.224 -0.1938  0.3200 -0.0502
  163SOPE  H12R18292   1.409   6.370   9.283 -0.5366  0.7185  0.0574
  163SOPE  H12S18293   1.514   6.394   9.132 -0.4623 -1.2127  0.5694
  163SOPE  C21318294   1.381   6.554   9.183 -0.1933  0.2329  0.5130
  163SOPE  H13R18295   1.325   6.600   9.267  0.5435  1.0689  0.5660
  163SOPE  H13S18296   1.305   6.507   9.118  2.4825 -1.8336 -1.3850
  163SOPE  C21418297   1.451   6.660   9.097 -0.4887  0.4077  0.3150
  163SOPE  H14R18298   1.558   6.636   9.077 -0.4649 -0.4032  1.3659
  163SOPE  H14S18299   1.442   6.751   9.159 -0.2778 -0.1461  1.1693
  163SOPE  C21518300   1.382   6.682   8.955  0.5402 -0.2590  0.9373
  163SOPE  H15R18301   1.424   6.774   8.910 -0.8658 -0.9350 -1.9913
  163SOPE  H15S18302   1.273   6.702   8.968 -0.2745 -2.2147 -1.7815
  163SOPE  C21618303   1.394   6.570   8.852 -0.1066 -0.4708  0.1199
  163SOPE  H16R18304   1.323   6.497   8.895 -0.4071 -0.2725 -0.0397
  163SOPE  H16S18305   1.500   6.536   8.856  0.9782  2.5977  0.1752
  163SOPE  C21718306   1.349   6.614   8.709  0.5162  0.1905 -0.4816
  163SOPE  H17R18307   1.419   6.687   8.664 -0.6385 -0.3555 -3.4533
  163SOPE  H17S18308   1.256   6.672   8.728 -1.9380 -3.1503 -1.2071
  163SOPE  C21818309   1.316   6.496   8.614 -0.3641  1.1050  0.3732
  163SOPE  H18R18310   1.411   6.445   8.586 -2.1788 -0.5135 -3.4166
  163SOPE  H18S18311   1.274   6.532   8.519  0.1840  0.1915 -0.2337
  163SOPE  H18T18312   1.250   6.423   8.664 -0.6866  0.6955 -0.6329
  163SOPE   C3318313   0.768   5.833   9.993  0.0041  0.8397  0.8083
  163SOPE   H3X18314   0.745   5.928  10.046  2.5484  1.8758  0.1762
  163SOPE   H3Y18315   0.707   5.757  10.048  0.5039  1.3921  2.1770
  163SOPE   C3418316   0.747   5.822   9.844 -0.9019 -0.6544  0.3723
  163SOPE   H4X18317   0.760   5.721   9.800  0.2968  0.0373 -0.9314
  163SOPE   H4Y18318   0.808   5.883   9.775 -0.5760  0.1341  1.3415
  163SOPE   C3518319   0.600   5.851   9.804  0.5566  0.4244  0.0121
  163SOPE   H5X18320   0.581   5.960   9.813 -0.8468  0.4718 -2.4301
  163SOPE   H5Y18321   0.527   5.797   9.868 -1.1228  1.9897 -0.4963
  163SOPE   C3618322   0.558   5.817   9.656 -0.0682 -0.7248  0.2065
  163SOPE   H6X18323   0.449   5.803   9.637 -0.1407  0.3672 -0.2157
  163SOPE   H6Y18324   0.612   5.722   9.638  0.5908 -0.1737 -0.7459
  163SOPE   C3718325   0.599   5.936   9.564  1.1124  0.7863  0.2169
  163SOPE   H7X18326   0.695   5.977   9.603  1.7064 -0.2732 -0.1017
  163SOPE   H7Y18327   0.521   6.014   9.582 -2.2926 -1.4903 -3.2874
  163SOPE   C3818328   0.618   5.901   9.416 -0.1498  0.5224 -0.8691
  163SOPE   H8X18329   0.533   5.840   9.378 -1.2871  1.5069 -0.0012
  163SOPE   H8Y18330   0.705   5.832   9.414  1.5738  2.2329  3.1857
  163SOPE   C3918331   0.627   6.016   9.323  0.7813 -0.2831 -0.4957
  163SOPE   H9X18332   0.734   6.047   9.331  0.7462  0.2066 -1.5791
  163SOPE   H9Y18333   0.543   6.081   9.356  0.2754  0.1439 -2.4478
  163SOPE  C31018334   0.614   5.978   9.172  0.0499 -0.3422 -0.0681
  163SOPE  H10X18335   0.518   5.924   9.159  1.5801 -2.9998 -1.1211
  163SOPE  H10Y18336   0.695   5.907   9.146  0.2471 -0.2682  0.3402
  163SOPE  C31118337   0.617   6.102   9.076 -0.1197 -0.9505  0.0253
  163SOPE  H11X18338   0.715   6.154   9.077 -0.1397 -0.5911 -3.7230
  163SOPE  H11Y18339   0.524   6.153   9.111  0.0305 -0.6093 -0.0743
  163SOPE  C31218340   0.603   6.057   8.928 -0.4445  0.4722 -0.4848
  163SOPE  H12X18341   0.584   6.145   8.863  0.0381  0.3783 -0.7580
  163SOPE  H12Y18342   0.513   5.993   8.926  0.1492 -0.4429 -3.5038
  163SOPE  C31318343   0.738   5.994   8.883 -0.0023  0.0266 -0.0595
  163SOPE  H13X18344   0.759   5.912   8.955  2.6024  0.6817  0.0285
  163SOPE  H13Y18345   0.827   6.061   8.877 -0.2009  0.7554  3.2244
  163SOPE  C31418346   0.728   5.936   8.738  0.8342 -0.2508  0.4008
  163SOPE  H14X18347   0.664   5.846   8.740  0.8193 -0.2639 -0.5441
  163SOPE  H14Y18348   0.827   5.895   8.707  0.0565 -2.9875  1.3299
  163SOPE  C31518349   0.687   6.053   8.644  0.0800 -0.3040 -0.1112
  163SOPE  H15X18350   0.740   6.146   8.671  0.4422  0.2485 -2.5699
  163SOPE  H15Y18351   0.580   6.078   8.661  0.8854  1.9812  2.3066
  163SOPE  C31618352   0.714   6.030   8.495 -0.1231 -0.4541  0.6463
  163SOPE  H16X18353   0.821   6.039   8.467 -0.6852 -0.6702 -1.7763
  163SOPE  H16Y18354   0.655   6.104   8.438 -0.6297 -1.2419  0.1291
  163SOPE  C31718355   0.672   5.893   8.433  0.2737 -0.9123  0.2789
  163SOPE  H17X18356   0.566   5.878   8.464 -0.3835  2.4499  0.0392
  163SOPE  H17Y18357   0.735   5.818   8.487 -0.1232 -0.2651  1.6926
  163SOPE  C31818358   0.692   5.889   8.281 -0.7353  0.0273 -0.6352
  163SOPE  H18X18359   0.615   5.949   8.228  0.0751  0.6264 -1.1818
  163SOPE  H18Y18360   0.681   5.783   8.251  1.8886 -0.4550 -0.1484
  163SOPE  H18Z18361   0.794   5.921   8.248 -0.0849 -1.0837  0.2109
  164SOPE     N18362   4.245   4.018  10.743  0.9821 -0.5976 -0.2337
  164SOPE   HN118363   4.242   3.931  10.800  0.1711 -0.1729  0.3831
  164SOPE   HN218364   4.221   4.082  10.820 -0.0039 -0.1317 -0.9064
  164SOPE   HN318365   4.162   4.008  10.681 -0.9546  0.7790  1.9785
  164SOPE   C1218366   4.382   4.026  10.686  0.3135  0.4073 -0.0930
  164SOPE  H12A18367   4.459   4.003  10.762 -1.0027 -1.6659  0.6968
  164SOPE  H12B18368   4.398   4.126  10.639  2.7864 -0.1334 -0.5234
  164SOPE   C1118369   4.393   3.917  10.578 -0.0620  0.4082 -0.1286
  164SOPE  H11A18370   4.472   3.938  10.504 -0.9079 -0.4635 -1.3196
  164SOPE  H11B18371   4.303   3.930  10.514  0.9690  0.7607 -1.5252
  164SOPE     P18372   4.279   3.700  10.678  0.0794 -0.2569 -0.6707
  164SOPE   O1318373   4.233   3.758  10.805 -0.3163 -0.4615 -0.1097
  164SOPE   O1418374   4.309   3.555  10.678  0.4592 -0.0140  0.1125
  164SOPE   O1218375   4.407   3.792  10.637 -0.0577  0.0670 -0.3382
  164SOPE   O1118376   4.180   3.731  10.563 -0.0069 -0.0635 -0.3675
  164SOPE    C118377   4.151   3.630  10.469 -0.0297  0.4183 -0.1472
  164SOPE    HA18378   4.054   3.660  10.423 -1.3083 -0.0347  2.1111
  164SOPE    HB18379   4.113   3.534  10.509  0.6274 -1.4457 -3.5771
  164SOPE    C218380   4.262   3.610  10.354  0.1746 -1.0330  0.3785
  164SOPE    HS18381   4.354   3.576  10.407  0.2811 -0.1506  0.7817
  164SOPE   O2118382   4.289   3.732  10.283  0.0487 -0.4727 -0.4156
  164SOPE   C2118383   4.416   3.755  10.256 -0.7240 -0.1744 -0.2212
  164SOPE   O2218384   4.514   3.689  10.290 -0.1334 -0.0651 -0.0487
  164SOPE   C2218385   4.412   3.879  10.170 -0.2857  0.4864 -0.5725
  164SOPE   H2R18386   4.400   3.968  10.235  0.9077 -0.2923  0.7888
  164SOPE   H2S18387   4.324   3.885  10.102 -0.3192  2.2752 -0.4048
  164SOPE    C318388   4.228   3.495  10.252 -0.3697  1.0290 -0.0261
  164SOPE    HX18389   4.213   3.402  10.310 -1.2846  1.0070 -0.2781
  164SOPE    HY18390   4.317   3.490  10.187 -1.4163  1.0141 -1.5254
  164SOPE   O3118391   4.107   3.519  10.177  0.6140  0.5461  0.0309
  164SOPE   C3118392   4.112   3.565  10.053  0.2498 -0.0942  0.3432
  164SOPE   O3218393   4.212   3.587   9.994  0.2985  0.4313 -0.1977
  164SOPE   C3218394   3.971   3.607  10.009  0.3243  0.7287 -0.0801
  164SOPE   H2X18395   3.917   3.637  10.101  4.4587  0.6657  2.5754
  164SOPE   H2Y18396   3.921   3.521   9.958  0.1165  1.0784 -0.4833
  164SOPE   C2318397   4.533   3.879  10.075  0.5515  0.7282 -0.9432
  164SOPE   H3R18398   4.621   3.864  10.141  0.8908  1.1343 -1.2975
  164SOPE   H3S18399   4.543   3.984  10.040 -0.5309  1.9706  2.1339
  164SOPE   C2418400   4.531   3.778   9.961 -0.0308  0.1650 -0.2925
  164SOPE   H4R18401   4.631   3.781   9.911  1.1332  0.2518  1.8930
  164SOPE   H4S18402   4.519   3.674   9.998  1.0008  1.0294  2.7486
  164SOPE   C2518403   4.432   3.814   9.852  0.5854  0.1514  0.3588
  164SOPE   H5R18404   4.330   3.819   9.897  0.8302  0.3510  0.8950
  164SOPE   H5S18405   4.451   3.918   9.817 -0.8138  1.1213  2.2794
  164SOPE   C2618406   4.428   3.714   9.735 -0.4374 -0.6123  0.1909
  164SOPE   H6R18407   4.532   3.695   9.702 -0.1876 -0.5494  0.9328
  164SOPE   H6S18408   4.391   3.615   9.768 -1.5848 -1.1567 -2.4148
  164SOPE   C2718409   4.338   3.758   9.623  0.3032  0.2486 -0.1263
  164SOPE   H7R18410   4.371   3.697   9.536 -0.6759 -3.1625  1.7056
  164SOPE   H7S18411   4.234   3.730   9.650  0.9793 -0.9848  1.3922
  164SOPE   C2818412   4.351   3.902   9.572 -0.7639 -0.9218 -0.0932
  164SOPE   H8R18413   4.342   3.980   9.650  0.6605  0.4958 -1.2733
  164SOPE   H8S18414   4.452   3.919   9.530 -0.7608 -1.5746 -0.3587
  164SOPE   C2918415   4.243   3.937   9.482  0.1852 -0.2144 -0.1592
  164SOPE   H9118416   4.149   3.959   9.536  1.2435  0.1871  1.6104
  164SOPE  C21018417   4.232   3.913   9.352 -0.1683 -0.2697  0.8525
  164SOPE  H10118418   4.150   3.953   9.291  2.0892  0.6899 -1.7569
  164SOPE  C21118419   4.341   3.872   9.257  0.4871  0.0697 -0.6657
  164SOPE  H11R18420   4.335   3.763   9.236 -0.6549  0.0207 -0.1817
  164SOPE  H11S18421   4.439   3.884   9.307 -0.7976  1.7490  1.6907
  164SOPE  C21218422   4.336   3.949   9.124  0.5876 -0.9840 -0.0938
  164SOPE  H12R18423   4.339   4.059   9.135  0.6566 -0.6245 -2.9592
  164SOPE  H12S18424   4.235   3.936   9.078  0.7525  2.1113 -1.6134
  164SOPE  C21318425   4.460   3.917   9.038 -0.3708  0.1410  0.4379
  164SOPE  H13R18426   4.447   3.973   8.943 -1.4293  0.6510  0.8616
  164SOPE  H13S18427   4.456   3.808   9.015  0.5394  0.6345 -2.3990
  164SOPE  C21418428   4.602   3.937   9.093  0.0807  0.2293  0.5405
  164SOPE  H14R18429   4.680   3.896   9.025  0.4456  0.4466  0.8279
  164SOPE  H14S18430   4.601   3.870   9.182 -1.6136 -1.5133 -0.6927
  164SOPE  C21518431   4.647   4.079   9.127 -0.5666 -0.3250 -0.3527
  164SOPE  H15R18432   4.585   4.118   9.211 -0.3230  1.4827 -0.9669
  164SOPE  H15S18433   4.638   4.133   9.030 -0.2564 -2.4317 -1.6133
  164SOPE  C21618434   4.793   4.084   9.172 -0.7033  0.6867  0.4747
  164SOPE  H16R18435   4.820   4.190   9.195  0.0043  0.8212 -0.9047
  164SOPE  H16S18436   4.861   4.055   9.089 -0.3494 -0.0446  1.0065
  164SOPE  C21718437   4.836   4.010   9.305 -0.5955 -0.4355  0.2347
  164SOPE  H17R18438   4.815   3.902   9.286 -0.3622 -0.1042 -2.1535
  164SOPE  H17S18439   4.787   4.068   9.387 -1.8047 -1.6886  0.4450
  164SOPE  C21818440   4.985   4.023   9.323 -0.1975  1.0302 -0.0815
  164SOPE  H18R18441   5.019   4.128   9.326 -1.7653  1.7165 -2.7651
  164SOPE  H18S18442   5.041   3.969   9.244 -2.1458 -3.8756  1.5185
  164SOPE  H18T18443   5.011   3.976   9.420  1.2118 -1.8057 -1.7037
  164SOPE   C3318444   3.959   3.719   9.904 -0.1778  0.2010  0.4279
  164SOPE   H3X18445   4.020   3.696   9.814 -0.9965  1.3279 -0.4451
  164SOPE   H3Y18446   4.010   3.806   9.950  0.9044 -0.3948  0.3882
  164SOPE   C3418447   3.812   3.749   9.861 -0.3577 -0.2798 -0.6509
  164SOPE   H4X18448   3.758   3.785   9.951  0.4219 -1.7534  0.4575
  164SOPE   H4Y18449   3.770   3.650   9.834 -0.3530 -1.0153  1.8261
  164SOPE   C3518450   3.808   3.845   9.741  0.0450 -0.5103  0.5741
  164SOPE   H5X18451   3.877   3.801   9.665 -2.5690 -1.8061 -1.1941
  164SOPE   H5Y18452   3.856   3.935   9.785 -1.3020  0.4503  0.1299
  164SOPE   C3618453   3.672   3.861   9.677  1.3589 -0.2953  0.4846
  164SOPE   H6X18454   3.597   3.895   9.751 -0.6808  1.1283 -2.0420
  164SOPE   H6Y18455   3.632   3.767   9.635  0.7963 -1.5833  3.6468
  164SOPE   C3718456   3.670   3.974   9.566 -1.2044  0.1451  1.0218
  164SOPE   H7X18457   3.720   4.062   9.610  0.4783 -0.3260  0.1497
  164SOPE   H7Y18458   3.564   3.992   9.540 -0.9973  0.4538  0.3511
  164SOPE   C3818459   3.748   3.934   9.443 -0.1213 -0.5756  0.3319
  164SOPE   H8X18460   3.715   3.833   9.409  0.2408 -1.0286  1.2814
  164SOPE   H8Y18461   3.857   3.921   9.456 -0.1103 -0.4795  0.3384
  164SOPE   C3918462   3.726   4.032   9.328 -0.0049 -0.4878  0.2058
  164SOPE   H9X18463   3.757   4.135   9.354 -0.7452 -0.1608 -0.1740
  164SOPE   H9Y18464   3.616   4.029   9.311 -0.3231 -1.2997  2.0939
  164SOPE  C31018465   3.779   3.989   9.191  0.8341  0.1104 -0.0137
  164SOPE  H10X18466   3.730   3.893   9.168  0.1788  0.7055 -1.1669
  164SOPE  H10Y18467   3.888   3.972   9.208  1.1707  0.6774 -1.4280
  164SOPE  C31118468   3.745   4.092   9.087  0.5249  0.4601 -0.4394
  164SOPE  H11X18469   3.780   4.194   9.113 -0.0542  0.0996  2.0628
  164SOPE  H11Y18470   3.634   4.099   9.081  0.4558  3.3136  2.0104
  164SOPE  C31218471   3.803   4.061   8.946 -0.0612  0.8532  0.4768
  164SOPE  H12X18472   3.913   4.051   8.958 -0.0487  1.8904  1.4564
  164SOPE  H12Y18473   3.800   4.148   8.877  0.9046  0.2233 -0.3789
  164SOPE  C31318474   3.739   3.948   8.869 -0.3212  0.0217 -0.2573
  164SOPE  H13X18475   3.630   3.969   8.867  0.0482  3.0826  2.4488
  164SOPE  H13Y18476   3.760   3.853   8.922 -1.5689  0.1994  0.5969
  164SOPE  C31418477   3.796   3.937   8.720 -0.4729 -0.6151 -0.0761
  164SOPE  H14X18478   3.906   3.947   8.709 -0.6963  0.0981 -2.2449
  164SOPE  H14Y18479   3.756   4.030   8.673 -0.6817 -1.3977 -1.5234
  164SOPE  C31518480   3.742   3.811   8.648  1.1048  0.1713 -0.1373
  164SOPE  H15X18481   3.637   3.798   8.684  0.6229 -0.5676 -1.7101
  164SOPE  H15Y18482   3.783   3.716   8.689 -2.0075 -0.5432  1.6838
  164SOPE  C31618483   3.763   3.814   8.498 -0.0382  0.7866 -0.3934
  164SOPE  H16X18484   3.801   3.718   8.458  0.8813  0.9895 -0.0397
  164SOPE  H16Y18485   3.841   3.888   8.470  0.3157  0.2444 -0.8534
  164SOPE  C31718486   3.638   3.848   8.419  0.1071  0.4719  0.0357
  164SOPE  H17X18487   3.671   3.894   8.324 -0.3617 -1.6461 -1.2082
  164SOPE  H17Y18488   3.596   3.929   8.483  1.7754  0.3227  1.3997
  164SOPE  C31818489   3.541   3.723   8.413 -0.6395  0.0957  0.0866
  164SOPE  H18X18490   3.532   3.690   8.518  0.2240  1.6351  0.6757
  164SOPE  H18Y18491   3.573   3.646   8.340  0.6978  0.3505  0.3780
  164SOPE  H18Z18492   3.447   3.770   8.378  0.2646  0.6905 -1.7207
  165SOPE     N18493   2.934   4.298  10.922 -0.3779  0.3880  0.1282
  165SOPE   HN118494   2.853   4.339  10.972 -0.3783 -0.7556  1.0897
  165SOPE   HN218495   2.901   4.245  10.839 -1.2818  0.0660  0.6785
  165SOPE   HN318496   2.982   4.222  10.974 -2.8289 -0.9240  0.6136
  165SOPE   C1218497   3.017   4.415  10.860 -0.1502 -0.8056 -1.2132
  165SOPE  H12A18498   3.107   4.373  10.810  0.2647 -1.4547  0.0406
  165SOPE  H12B18499   3.035   4.477  10.950 -2.4468  1.1301 -1.9828
  165SOPE   C1118500   2.931   4.498  10.758 -0.4769 -0.1126 -0.7395
  165SOPE  H11A18501   2.863   4.430  10.704 -2.6796 -0.1129  1.8381
  165SOPE  H11B18502   3.007   4.546  10.693 -0.3952  1.5032  0.4924
  165SOPE     P18503   2.799   4.706  10.733 -0.2366  0.0613 -0.3728
  165SOPE   O1318504   2.878   4.836  10.758 -0.1779 -0.3444 -0.0575
  165SOPE   O1418505   2.656   4.717  10.771  0.7866  0.2134 -0.4035
  165SOPE   O1218506   2.858   4.597  10.829  0.2763  0.6524  0.0361
  165SOPE   O1118507   2.829   4.651  10.588  0.2526 -0.3269  0.4538
  165SOPE    C118508   2.740   4.659  10.473  0.0354  0.2531 -0.0279
  165SOPE    HA18509   2.803   4.681  10.384 -0.7484  2.6603 -0.0590
  165SOPE    HB18510   2.664   4.738  10.489 -1.9351 -1.3652 -1.0332
  165SOPE    C218511   2.659   4.531  10.467 -0.2683 -0.1344 -0.0308
  165SOPE    HS18512   2.632   4.513  10.573  1.8813 -0.2420  0.5525
  165SOPE   O2118513   2.747   4.424  10.422  0.2144  0.0693  0.7947
  165SOPE   C2118514   2.714   4.301  10.455 -0.2621 -0.6492 -0.2740
  165SOPE   O2218515   2.620   4.275  10.528  0.1772 -0.4294  0.0560
  165SOPE   C2218516   2.794   4.196  10.383  0.1588 -0.1124  0.1760
  165SOPE   H2R18517   2.803   4.105  10.446  0.3624 -0.8580 -0.9106
  165SOPE   H2S18518   2.897   4.234  10.365  0.6558 -0.3088  2.3659
  165SOPE    C318519   2.529   4.541  10.386  0.5410  0.2959 -0.3874
  165SOPE    HX18520   2.450   4.594  10.444 -1.9902 -1.4711 -2.0270
  165SOPE    HY18521   2.499   4.438  10.356 -0.1417  0.0456  1.0842
  165SOPE   O3118522   2.558   4.615  10.269  0.1544 -0.0499 -0.0728
  165SOPE   C3118523   2.454   4.649  10.183 -0.3780 -0.4938  0.1927
  165SOPE   O3218524   2.340   4.601  10.188 -0.7283 -1.0287  0.4412
  165SOPE   C3218525   2.502   4.743  10.070  0.7034  0.7360 -0.4620
  165SOPE   H2X18526   2.583   4.696  10.010  0.6860 -0.6920  0.5669
  165SOPE   H2Y18527   2.531   4.844  10.104 -1.9126  1.0624  1.0687
  165SOPE   C2318528   2.727   4.139  10.248 -0.3420  0.4400 -0.5769
  165SOPE   H3R18529   2.619   4.114  10.257 -0.3971  0.9705  0.3360
  165SOPE   H3S18530   2.780   4.044  10.222 -0.1836  0.4159 -0.1811
  165SOPE   C2418531   2.746   4.252  10.142 -0.2053 -0.3909 -0.6055
  165SOPE   H4R18532   2.683   4.333  10.182  1.4799 -0.1307  1.7267
  165SOPE   H4S18533   2.852   4.288  10.144 -1.1599  2.8631 -1.8717
  165SOPE   C2518534   2.700   4.204  10.006  0.5860  0.1709  0.0094
  165SOPE   H5R18535   2.778   4.149   9.950  2.7492  3.5091 -0.4696
  165SOPE   H5S18536   2.603   4.151  10.024  0.0680  0.9669 -0.3989
  165SOPE   C2618537   2.670   4.329   9.920  0.3373 -0.7034 -0.9411
  165SOPE   H6R18538   2.631   4.295   9.821  1.0319  0.5454 -1.6719
  165SOPE   H6S18539   2.590   4.386   9.971  1.4780  0.1408 -0.0393
  165SOPE   C2718540   2.780   4.425   9.892 -0.0810  0.3051 -0.0616
  165SOPE   H7R18541   2.796   4.481   9.987  1.6840  0.1282 -0.2268
  165SOPE   H7S18542   2.871   4.367   9.868 -0.9893 -1.2413  0.0961
  165SOPE   C2818543   2.739   4.539   9.787  0.7139  0.3623 -0.6097
  165SOPE   H8R18544   2.645   4.587   9.820 -0.0567 -1.8693  0.6614
  165SOPE   H8S18545   2.816   4.619   9.791 -1.7194  3.1344 -3.9127
  165SOPE   C2918546   2.729   4.490   9.648 -0.5694  0.1052  0.3622
  165SOPE   H9118547   2.734   4.381   9.634  0.9456 -0.1167  2.1985
  165SOPE  C21018548   2.711   4.581   9.551 -0.6973  0.1243 -0.5492
  165SOPE  H10118549   2.718   4.544   9.448 -0.2795 -1.1971 -0.0648
  165SOPE  C21118550   2.699   4.735   9.573 -0.6396  0.2738  0.3084
  165SOPE  H11R18551   2.774   4.771   9.645 -0.1192  1.9483 -1.0096
  165SOPE  H11S18552   2.597   4.748   9.615 -0.5077  0.5491  0.5438
  165SOPE  C21218553   2.694   4.824   9.451  0.2652  0.1100  0.1762
  165SOPE  H12R18554   2.792   4.826   9.399  0.0615  0.8729 -0.1951
  165SOPE  H12S18555   2.645   4.920   9.480 -1.9933  0.4263 -3.9511
  165SOPE  C21318556   2.600   4.770   9.343  0.3221  0.2778 -0.0774
  165SOPE  H13R18557   2.493   4.769   9.371 -0.1064  0.8884 -1.5987
  165SOPE  H13S18558   2.628   4.673   9.296 -1.7237  0.0086 -0.8352
  165SOPE  C21418559   2.591   4.869   9.228  0.0093  0.1571  0.6676
  165SOPE  H14R18560   2.541   4.962   9.261  1.7865  0.8256  1.6271
  165SOPE  H14S18561   2.522   4.824   9.153 -0.4701  1.9436 -0.0333
  165SOPE  C21518562   2.727   4.885   9.163  0.0478 -0.0708  0.8219
  165SOPE  H15R18563   2.782   4.789   9.167  0.1381 -0.0097  1.0589
  165SOPE  H15S18564   2.778   4.971   9.212  0.9551  0.0708 -0.3346
  165SOPE  C21618565   2.714   4.936   9.013 -0.3882  0.2123  0.4054
  165SOPE  H16R18566   2.639   4.872   8.962  0.1363 -0.6295  0.6764
  165SOPE  H16S18567   2.804   4.918   8.951 -1.1792 -0.4458 -0.5725
  165SOPE  C21718568   2.680   5.085   8.996 -0.0490 -0.4475 -0.5650
  165SOPE  H17R18569   2.763   5.141   9.044  0.7141 -2.8007  1.0792
  165SOPE  H17S18570   2.592   5.106   9.061  0.0485  2.4690 -1.2446
  165SOPE  C21818571   2.658   5.142   8.857 -0.3076 -0.4063 -0.4203
  165SOPE  H18R18572   2.727   5.103   8.779 -1.1687  0.9134 -1.9007
  165SOPE  H18S18573   2.672   5.252   8.865 -0.4256 -0.4754  1.1350
  165SOPE  H18T18574   2.552   5.131   8.825 -0.1987 -0.9897 -0.6011
  165SOPE   C3318575   2.388   4.757   9.973  0.6130 -0.5409 -0.1348
  165SOPE   H3X18576   2.290   4.771  10.024  0.4771 -2.8262  0.3461
  165SOPE   H3Y18577   2.387   4.665   9.910 -0.2847  0.6337 -1.9242
  165SOPE   C3418578   2.410   4.871   9.873  0.1888  0.1769  0.1634
  165SOPE   H4X18579   2.509   4.856   9.824  0.4031  0.5291  0.4847
  165SOPE   H4Y18580   2.399   4.966   9.929 -2.3469  0.9256 -1.4301
  165SOPE   C3518581   2.308   4.870   9.762  0.1490  0.5120  0.3657
  165SOPE   H5X18582   2.216   4.918   9.802 -2.5829 -3.0909 -1.0694
  165SOPE   H5Y18583   2.283   4.768   9.727  2.2658 -0.3036  1.0897
  165SOPE   C3618584   2.353   4.961   9.644  0.4120  0.0847 -0.1897
  165SOPE   H6X18585   2.439   4.906   9.601 -0.7200 -1.6344 -0.3350
  165SOPE   H6Y18586   2.387   5.058   9.687 -0.0277  0.4012 -0.5434
  165SOPE   C3718587   2.242   4.973   9.544 -0.1810 -0.6791 -0.4710
  165SOPE   H7X18588   2.155   5.025   9.590 -0.8222 -1.7414 -0.4595
  165SOPE   H7Y18589   2.201   4.877   9.507  0.3455  0.4504 -4.4613
  165SOPE   C3818590   2.298   5.040   9.412  0.5950 -0.0926  1.0723
  165SOPE   H8X18591   2.406   5.018   9.407  0.0914 -3.2155  1.7050
  165SOPE   H8Y18592   2.284   5.149   9.432 -2.5701 -0.6892  2.8542
  165SOPE   C3918593   2.231   4.989   9.288  0.3621  0.2661  1.0595
  165SOPE   H9X18594   2.124   4.987   9.316  0.7991  1.7514  3.0040
  165SOPE   H9Y18595   2.259   4.885   9.260 -0.2442 -0.7677  3.9975
  165SOPE  C31018596   2.239   5.094   9.174  0.2726  0.1966 -1.3047
  165SOPE  H10X18597   2.346   5.107   9.151  1.6051  0.0760  3.7555
  165SOPE  H10Y18598   2.201   5.188   9.219  0.7025 -0.7849  1.2765
  165SOPE  C31118599   2.157   5.052   9.044  0.5545  0.2973  0.4233
  165SOPE  H11X18600   2.054   5.032   9.080  1.2105 -2.4819  0.9541
  165SOPE  H11Y18601   2.185   4.951   9.009  0.5010 -0.4167  2.3200
  165SOPE  C31218602   2.168   5.160   8.931 -0.4139 -0.3119 -0.1508
  165SOPE  H12X18603   2.275   5.148   8.906 -0.4156 -1.0521  0.1849
  165SOPE  H12Y18604   2.149   5.265   8.963  1.2799  0.3614 -1.2255
  165SOPE  C31318605   2.087   5.128   8.806 -0.0626 -0.1587  0.9575
  165SOPE  H13X18606   1.981   5.142   8.837 -0.7602 -3.0933  0.1978
  165SOPE  H13Y18607   2.098   5.019   8.788  0.9745 -0.2099  1.8107
  165SOPE  C31418608   2.114   5.212   8.681 -0.4362  0.5167  0.3667
  165SOPE  H14X18609   2.223   5.201   8.662 -0.3691  0.0644  0.9781
  165SOPE  H14Y18610   2.089   5.320   8.694 -1.4507  0.3568 -0.1961
  165SOPE  C31518611   2.042   5.160   8.556  0.1473 -0.5482  0.4879
  165SOPE  H15X18612   1.934   5.177   8.573 -0.2540 -0.9906 -1.4600
  165SOPE  H15Y18613   2.064   5.053   8.540  2.2043  0.0374 -1.0143
  165SOPE  C31618614   2.073   5.241   8.421 -0.0238 -0.1330  0.1689
  165SOPE  H16X18615   2.179   5.274   8.422 -0.0780  0.2708 -2.3092
  165SOPE  H16Y18616   2.007   5.330   8.422  1.6470  1.2939  4.2015
  165SOPE  C31718617   2.040   5.153   8.296 -0.0597  0.0597  0.6662
  165SOPE  H17X18618   2.093   5.061   8.328 -0.8537  0.2102  2.5771
  165SOPE  H17Y18619   2.086   5.188   8.201 -3.2137  0.4134 -0.8348
  165SOPE  C31818620   1.891   5.139   8.276 -0.0238  0.4715 -0.3304
  165SOPE  H18X18621   1.835   5.109   8.366  0.1040  1.9714  0.2883
  165SOPE  H18Y18622   1.870   5.067   8.194 -0.0479  2.2947 -2.0029
  165SOPE  H18Z18623   1.853   5.237   8.239 -1.2280  0.6146  1.2292
  166SOPE     N18624   0.168   3.292  10.731 -0.4018 -0.0939 -0.0193
  166SOPE   HN118625   0.180   3.393  10.752  2.1485 -0.4560  0.7145
  166SOPE   HN218626   0.112   3.241  10.802  2.0772 -1.3849  1.1558
  166SOPE   HN318627   0.256   3.237  10.740 -0.6242 -0.1501  2.6020
  166SOPE   C1218628   0.119   3.271  10.593 -0.0791  0.1013 -0.5591
  166SOPE  H12A18629   0.103   3.161  10.585 -2.1519  0.4631 -2.4940
  166SOPE  H12B18630   0.174   3.321  10.510  0.9466 -0.2702 -0.1232
  166SOPE   C1118631  -0.027   3.323  10.592  0.4454 -0.0461  0.4995
  166SOPE  H11A18632  -0.065   3.329  10.488 -2.1798  1.2828  1.4305
  166SOPE  H11B18633  -0.017   3.430  10.619  0.3406  0.2148 -0.4598
  166SOPE     P18634  -0.269   3.206  10.645 -0.1809 -0.0718  0.3458
  166SOPE   O1318635  -0.359   3.297  10.731  0.1456  1.4887  1.0221
  166SOPE   O1418636  -0.298   3.058  10.651 -0.3017 -0.2021  0.4766
  166SOPE   O1218637  -0.118   3.245  10.666  0.3606 -0.2980 -0.1753
  166SOPE   O1118638  -0.283   3.250  10.498 -0.0373  0.4614  0.3358
  166SOPE    C118639  -0.323   3.386  10.458 -0.1923 -0.3355  0.5159
  166SOPE    HA18640  -0.247   3.416  10.383 -0.9734 -1.5795 -0.8450
  166SOPE    HB18641  -0.337   3.464  10.535 -3.3074  0.8898 -1.1100
  166SOPE    C218642  -0.466   3.394  10.402  0.0806 -0.4489  0.1360
  166SOPE    HS18643  -0.532   3.360  10.484 -0.3146  0.9492  0.4243
  166SOPE   O2118644  -0.476   3.307  10.286 -0.2103 -0.1780  0.3087
  166SOPE   C2118645  -0.591   3.239  10.281 -0.6182  0.3093 -0.6918
  166SOPE   O2218646  -0.664   3.224  10.375  0.2604  0.4212 -0.0268
  166SOPE   C2218647  -0.624   3.184  10.137 -0.5572 -0.1819 -0.6651
  166SOPE   H2R18648  -0.715   3.243  10.112  0.1759  0.7287 -1.2581
  166SOPE   H2S18649  -0.654   3.078  10.150 -1.9401  0.5284  3.0413
  166SOPE    C318650  -0.515   3.544  10.374 -0.2028  0.3774 -0.1182
  166SOPE    HX18651  -0.529   3.603  10.467 -2.9823  0.6285 -0.6106
  166SOPE    HY18652  -0.618   3.539  10.332  0.2819 -0.6041 -1.2526
  166SOPE   O3118653  -0.437   3.618  10.278  0.1307 -0.0528  0.5199
  166SOPE   C3118654  -0.340   3.695  10.318 -0.1004 -0.4532 -0.8192
  166SOPE   O3218655  -0.293   3.698  10.432  0.3692  0.5425  0.0741
  166SOPE   C3218656  -0.288   3.791  10.213 -0.7893 -0.3764  0.2181
  166SOPE   H2X18657  -0.205   3.852  10.254 -0.2909  0.1556 -1.4931
  166SOPE   H2Y18658  -0.355   3.864  10.162  1.2923  1.0696 -0.5826
  166SOPE   C2318659  -0.528   3.208  10.013 -0.3174 -0.7998 -0.2148
  166SOPE   H3R18660  -0.440   3.140  10.017  2.3606  2.3397 -1.1588
  166SOPE   H3S18661  -0.483   3.309  10.027  0.9204 -1.5367  1.4752
  166SOPE   C2418662  -0.600   3.223   9.881  0.0517  0.2606  0.4165
  166SOPE   H4R18663  -0.649   3.123   9.880 -1.2551  0.8851  0.6344
  166SOPE   H4S18664  -0.681   3.298   9.882 -0.2169 -0.0074  2.4740
  166SOPE   C2518665  -0.498   3.244   9.776 -0.7566  0.2986  0.0481
  166SOPE   H5R18666  -0.423   3.324   9.789  1.4294 -1.2973 -1.7888
  166SOPE   H5S18667  -0.424   3.161   9.782  0.6408  1.3365 -1.7112
  166SOPE   C2618668  -0.567   3.275   9.642  0.7302  0.2501  0.4447
  166SOPE   H6R18669  -0.615   3.178   9.616  0.2056  0.5977  0.0996
  166SOPE   H6S18670  -0.645   3.354   9.651 -1.0703 -0.9113 -3.1217
  166SOPE   C2718671  -0.460   3.299   9.538  0.0080 -0.6459  0.3566
  166SOPE   H7R18672  -0.417   3.399   9.562  2.0000 -1.7498  1.6697
  166SOPE   H7S18673  -0.371   3.233   9.552 -0.9898 -2.0143  0.4007
  166SOPE   C2818674  -0.517   3.288   9.397 -0.2011 -0.1574 -0.1390
  166SOPE   H8R18675  -0.438   3.278   9.320  0.1794  1.1143  0.0716
  166SOPE   H8S18676  -0.573   3.192   9.391 -1.7427  0.7848 -1.5286
  166SOPE   C2918677  -0.616   3.395   9.352  0.6397 -0.1143 -0.4576
  166SOPE   H9118678  -0.717   3.375   9.389  1.3674 -1.6406  0.8291
  166SOPE  C21018679  -0.596   3.497   9.266 -0.0876 -0.4480  0.1080
  166SOPE  H10118680  -0.659   3.587   9.257  2.8612  1.6598 -1.2294
  166SOPE  C21118681  -0.466   3.535   9.196 -0.2201  0.6368 -0.1577
  166SOPE  H11R18682  -0.384   3.465   9.221  1.0476  1.3850 -2.0346
  166SOPE  H11S18683  -0.428   3.632   9.233  2.9732 -0.5302 -0.0674
  166SOPE  C21218684  -0.490   3.530   9.042  0.2460 -0.7904 -0.5271
  166SOPE  H12R18685  -0.556   3.609   9.002 -1.8539 -1.4659  1.3737
  166SOPE  H12S18686  -0.536   3.433   9.012 -2.6443 -0.6316  2.8420
  166SOPE  C21318687  -0.355   3.539   8.966 -0.2530  0.5115  0.5858
  166SOPE  H13R18688  -0.290   3.450   8.984  2.5659  1.8474 -2.0659
  166SOPE  H13S18689  -0.308   3.631   9.005  2.4838 -0.9478  0.9818
  166SOPE  C21418690  -0.371   3.554   8.812 -0.2208 -0.1947 -0.4014
  166SOPE  H14R18691  -0.424   3.652   8.801 -0.7706 -0.2378  1.4352
  166SOPE  H14S18692  -0.447   3.479   8.780 -2.5163  0.7761  2.3137
  166SOPE  C21518693  -0.247   3.546   8.723 -0.4457  0.1990  0.3685
  166SOPE  H15R18694  -0.173   3.625   8.750  0.6524 -0.6072 -0.1918
  166SOPE  H15S18695  -0.278   3.570   8.619 -2.6493 -2.1447  0.3856
  166SOPE  C21618696  -0.191   3.410   8.728 -0.3746  0.0026 -0.4852
  166SOPE  H16R18697  -0.278   3.340   8.723  1.7635 -2.8830 -0.2068
  166SOPE  H16S18698  -0.137   3.401   8.824  1.8238  1.8011 -1.4558
  166SOPE  C21718699  -0.090   3.377   8.616 -0.8770  0.0459  0.3055
  166SOPE  H17R18700  -0.143   3.408   8.524 -2.1550 -0.3346  0.8896
  166SOPE  H17S18701  -0.080   3.267   8.610  0.6767  0.1405  0.6412
  166SOPE  C21818702   0.038   3.454   8.634 -0.1779  0.3989 -0.5394
  166SOPE  H18R18703   0.099   3.460   8.542 -1.0650  1.7600 -1.0703
  166SOPE  H18S18704   0.104   3.397   8.702 -0.0675  1.4808  0.2865
  166SOPE  H18T18705   0.014   3.558   8.663 -0.6074 -0.2696  1.7472
  166SOPE   C3318706  -0.231   3.703  10.095 -0.0482  0.5448  0.3586
  166SOPE   H3X18707  -0.310   3.647  10.041  0.9440  1.4281 -2.1864
  166SOPE   H3Y18708  -0.170   3.621  10.137 -1.4222 -1.1012 -0.7181
  166SOPE   C3418709  -0.152   3.793  10.002 -0.1495  0.1334 -0.1533
  166SOPE   H4X18710  -0.077   3.841  10.068 -2.5150  0.7239  2.2946
  166SOPE   H4Y18711  -0.222   3.865   9.953  2.2643  3.2035  0.6021
  166SOPE   C3518712  -0.089   3.710   9.886  0.5696 -0.3156 -0.7479
  166SOPE   H5X18713  -0.161   3.697   9.803  0.9713 -0.1865 -1.1188
  166SOPE   H5Y18714  -0.050   3.616   9.930  0.4293  0.1113  0.3229
  166SOPE   C3618715   0.033   3.772   9.815  0.2703 -0.1097  0.4972
  166SOPE   H6X18716   0.052   3.707   9.727 -0.6745  0.2166  0.0353
  166SOPE   H6Y18717   0.125   3.742   9.870  0.7799 -3.7566 -1.9895
  166SOPE   C3718718   0.022   3.915   9.767  0.5721  0.1115 -0.5379
  166SOPE   H7X18719   0.033   3.985   9.852 -2.3592 -0.3481  0.3175
  166SOPE   H7Y18720  -0.084   3.928   9.738  0.1496 -2.7076 -0.5864
  166SOPE   C3818721   0.125   3.960   9.662  0.7439  0.8027 -0.1294
  166SOPE   H8X18722   0.120   3.904   9.566 -0.1772  2.5422 -1.1379
  166SOPE   H8Y18723   0.226   3.930   9.697  0.4840  1.9711  1.7721
  166SOPE   C3918724   0.123   4.113   9.639 -0.2830  0.8928  0.9313
  166SOPE   H9X18725   0.100   4.161   9.736 -0.9823  0.2088  1.1156
  166SOPE   H9Y18726   0.040   4.132   9.567  0.7765 -0.1040 -0.6225
  166SOPE  C31018727   0.255   4.166   9.579  0.0694  0.0652  0.6247
  166SOPE  H10X18728   0.281   4.118   9.483 -0.8768  0.3582  0.2171
  166SOPE  H10Y18729   0.338   4.158   9.653  0.3588  1.4967  0.4755
  166SOPE  C31118730   0.238   4.319   9.542 -0.2858  0.6618  0.0712
  166SOPE  H11X18731   0.205   4.378   9.630  0.1006  0.2176  0.5202
  166SOPE  H11Y18732   0.156   4.308   9.468 -0.7411 -1.1341  0.7732
  166SOPE  C31218733   0.371   4.372   9.501  0.1845 -0.3035  1.3036
  166SOPE  H12X18734   0.414   4.317   9.415 -1.7804 -0.6010  0.4558
  166SOPE  H12Y18735   0.445   4.376   9.583  2.1746  0.9791 -0.4418
  166SOPE  C31318736   0.374   4.519   9.459  0.0237  0.5555 -0.5285
  166SOPE  H13X18737   0.473   4.568   9.469  0.7483 -0.7565 -1.0372
  166SOPE  H13Y18738   0.308   4.577   9.527 -0.5815 -1.3362  0.5717
  166SOPE  C31418739   0.327   4.528   9.314 -0.0394 -0.2144  0.1998
  166SOPE  H14X18740   0.276   4.625   9.296  0.4268 -0.2216 -1.3354
  166SOPE  H14Y18741   0.264   4.441   9.288 -1.0842  0.8878 -1.0874
  166SOPE  C31518742   0.446   4.525   9.210  0.4512  0.2180 -0.1221
  166SOPE  H15X18743   0.515   4.443   9.239  0.6435  1.2005  2.4630
  166SOPE  H15Y18744   0.509   4.616   9.214  1.9791 -0.7100 -1.7557
  166SOPE  C31618745   0.397   4.529   9.065 -0.6418 -0.5138  0.1058
  166SOPE  H16X18746   0.480   4.537   8.992 -1.9066  0.1094 -1.3371
  166SOPE  H16Y18747   0.333   4.619   9.051 -0.5830 -0.4197  0.4524
  166SOPE  C31718748   0.310   4.419   9.028 -0.4608  0.1969  0.4152
  166SOPE  H17X18749   0.214   4.426   9.083 -0.4211 -0.6222  0.5995
  166SOPE  H17Y18750   0.366   4.324   9.045 -1.1269 -0.3266 -0.2448
  166SOPE  C31818751   0.271   4.439   8.878  0.7667 -0.2899 -0.7169
  166SOPE  H18X18752   0.222   4.341   8.861  0.6498 -1.3398  4.1489
  166SOPE  H18Y18753   0.366   4.435   8.821  0.2129 -0.2813 -1.6562
  166SOPE  H18Z18754   0.217   4.535   8.868 -0.1403 -0.6315  0.6405
  167SOPE     N18755   1.897   1.449   6.114 -0.4888 -0.0624 -0.2367
  167SOPE   HN118756   1.946   1.495   6.034  2.7650 -0.9543  1.0572
  167SOPE   HN218757   1.934   1.351   6.117 -1.4671 -0.4280  0.1835
  167SOPE   HN318758   1.794   1.445   6.101 -0.3989 -1.1294 -0.7341
  167SOPE   C1218759   1.929   1.515   6.242  0.6159  0.1902  0.7368
  167SOPE  H12A18760   2.026   1.467   6.266  1.4686  0.1581 -2.4018
  167SOPE  H12B18761   1.850   1.478   6.310 -1.1736  0.5406 -1.0522
  167SOPE   C1118762   1.958   1.668   6.225  0.5052 -0.3261 -0.3809
  167SOPE  H11A18763   2.009   1.701   6.319 -1.5707 -1.0632  1.0829
  167SOPE  H11B18764   1.866   1.729   6.223  1.1243  0.6167 -0.8344
  167SOPE     P18765   2.168   1.760   6.110  0.3759 -0.0880  0.2785
  167SOPE   O1318766   2.151   1.905   6.144  0.1015 -0.1133  0.4432
  167SOPE   O1418767   2.232   1.727   5.978  0.3850  0.2328  0.0472
  167SOPE   O1218768   2.026   1.692   6.101  0.2880 -0.1533 -0.2790
  167SOPE   O1118769   2.245   1.677   6.223 -0.1643  0.0640 -0.2014
  167SOPE    C118770   2.284   1.741   6.341 -0.2292  0.0731 -0.2456
  167SOPE    HA18771   2.200   1.782   6.400  0.8602  2.4731 -0.1996
  167SOPE    HB18772   2.328   1.840   6.314 -0.6169  0.8322  1.7374
  167SOPE    C218773   2.371   1.650   6.441  0.1234 -0.4036 -0.3909
  167SOPE    HS18774   2.469   1.626   6.393  0.4063 -1.5117  0.6628
  167SOPE   O2118775   2.294   1.529   6.459  0.7961 -0.1924  0.3698
  167SOPE   C2118776   2.366   1.422   6.489 -0.5906  0.0151 -0.3570
  167SOPE   O2218777   2.488   1.414   6.494  0.0047  0.5899 -0.4735
  167SOPE   C2218778   2.282   1.306   6.525 -0.2513 -0.4158 -0.9242
  167SOPE   H2R18779   2.245   1.256   6.432  1.5386  0.0423 -1.9133
  167SOPE   H2S18780   2.193   1.337   6.583  0.7096 -0.6205  0.7181
  167SOPE    C318781   2.396   1.723   6.573 -0.0006  0.1444  0.6085
  167SOPE    HX18782   2.300   1.734   6.628 -0.2077  1.0314  0.0876
  167SOPE    HY18783   2.433   1.825   6.547  0.4259 -0.3753 -0.9194
  167SOPE   O3118784   2.475   1.643   6.662 -0.7594 -0.0429 -0.5522
  167SOPE   C3118785   2.606   1.659   6.644  0.5260  0.1609 -0.0880
  167SOPE   O3218786   2.662   1.732   6.563  0.2250 -0.7458  0.0637
  167SOPE   C3218787   2.676   1.573   6.752 -0.3523  0.1224  0.0814
  167SOPE   H2X18788   2.651   1.465   6.741  0.4384 -0.0575  0.0190
  167SOPE   H2Y18789   2.637   1.603   6.852  1.6668  0.0124  0.9540
  167SOPE   C2318790   2.353   1.211   6.628 -0.2489 -0.5443 -0.4582
  167SOPE   H3R18791   2.369   1.265   6.724 -1.4415  1.5405 -1.3733
  167SOPE   H3S18792   2.454   1.176   6.599 -0.0652 -0.1472 -0.3138
  167SOPE   C2418793   2.256   1.099   6.641 -0.5938  0.0913  0.3205
  167SOPE   H4R18794   2.238   1.037   6.550 -1.1442  0.1022  0.4184
  167SOPE   H4S18795   2.313   1.037   6.713 -1.1659 -2.1537 -1.0516
  167SOPE   C2518796   2.117   1.124   6.701  0.0469  0.7005 -0.1105
  167SOPE   H5R18797   2.044   1.178   6.639  0.6074  0.6163 -0.8518
  167SOPE   H5S18798   2.068   1.024   6.708  0.3511  0.3230 -2.5433
  167SOPE   C2618799   2.116   1.189   6.838  1.1611 -0.5366 -0.0938
  167SOPE   H6R18800   2.190   1.136   6.902  2.8696  2.7622  0.8364
  167SOPE   H6S18801   2.150   1.294   6.829  3.1223 -0.9650  1.5851
  167SOPE   C2718802   1.974   1.192   6.898  0.0625 -0.1835  0.2918
  167SOPE   H7R18803   1.918   1.257   6.827  1.8814 -0.9497 -1.9780
  167SOPE   H7S18804   1.934   1.089   6.889  0.1496 -0.1806 -0.1387
  167SOPE   C2818805   1.964   1.227   7.048 -0.2988  0.4049 -0.2441
  167SOPE   H8R18806   2.028   1.317   7.061 -1.4898  1.4570 -1.3563
  167SOPE   H8S18807   1.860   1.259   7.072 -1.1747 -0.5051 -2.5770
  167SOPE   C2918808   1.992   1.106   7.137  0.1794 -0.0272 -0.0253
  167SOPE   H9118809   1.914   1.029   7.127  0.6456 -0.3733 -1.2321
  167SOPE  C21018810   2.095   1.099   7.228 -0.3234  0.1005 -0.1825
  167SOPE  H10118811   2.108   1.003   7.281  1.7335  0.3875 -0.0750
  167SOPE  C21118812   2.203   1.201   7.235  0.4355 -0.3735 -0.5413
  167SOPE  H11R18813   2.206   1.259   7.140  1.1246  1.2508  0.4436
  167SOPE  H11S18814   2.302   1.151   7.247  1.1713  1.1138 -0.1290
  167SOPE  C21218815   2.184   1.311   7.347  0.4906  0.3385 -0.1147
  167SOPE  H12R18816   2.085   1.355   7.324 -0.3758 -0.9471  0.9891
  167SOPE  H12S18817   2.264   1.388   7.351 -0.7612  1.7427 -1.0911
  167SOPE  C21318818   2.176   1.257   7.496 -0.2731  0.4048  0.2267
  167SOPE  H13R18819   2.237   1.165   7.513 -1.3941  0.0384  2.8672
  167SOPE  H13S18820   2.071   1.221   7.507 -0.1370  0.4821  2.3273
  167SOPE  C21418821   2.209   1.367   7.596 -0.0827 -0.0755  0.0871
  167SOPE  H14R18822   2.126   1.437   7.623  0.6806  0.1952  1.8668
  167SOPE  H14S18823   2.286   1.437   7.557  0.5120 -1.0520 -0.5345
  167SOPE  C21518824   2.274   1.307   7.729  0.2303 -0.5218 -0.2015
  167SOPE  H15R18825   2.218   1.221   7.772  1.1967 -2.8467 -3.2187
  167SOPE  H15S18826   2.270   1.390   7.802 -1.5772 -1.3536  0.6991
  167SOPE  C21618827   2.417   1.258   7.713 -0.5227 -0.2265 -0.2561
  167SOPE  H16R18828   2.487   1.344   7.714 -0.8545  0.0600 -1.0906
  167SOPE  H16S18829   2.428   1.229   7.607  2.6489  0.5739 -0.2249
  167SOPE  C21718830   2.472   1.145   7.801 -0.0323  0.0999 -0.6852
  167SOPE  H17R18831   2.547   1.077   7.756  0.8449 -0.2877  1.2753
  167SOPE  H17S18832   2.388   1.081   7.838  1.1344 -0.3099  1.3640
  167SOPE  C21818833   2.540   1.199   7.925 -0.6102  0.3729  0.0210
  167SOPE  H18R18834   2.572   1.127   8.004  1.1667  0.0378 -0.9557
  167SOPE  H18S18835   2.474   1.268   7.982  0.8957  0.5952  1.5884
  167SOPE  H18T18836   2.631   1.255   7.895 -0.8034 -0.8323 -3.1446
  167SOPE   C3318837   2.832   1.585   6.730 -0.6274 -0.0712 -1.1511
  167SOPE   H3X18838   2.866   1.687   6.760 -1.8023  0.6912 -2.2856
  167SOPE   H3Y18839   2.847   1.577   6.620  1.4944  0.3646 -0.9476
  167SOPE   C3418840   2.905   1.472   6.792 -0.6656  0.0552 -0.4150
  167SOPE   H4X18841   3.015   1.490   6.783 -0.6997  2.0435  2.0571
  167SOPE   H4Y18842   2.872   1.374   6.750 -0.6155 -0.0647 -0.1774
  167SOPE   C3518843   2.888   1.461   6.949 -0.7742 -1.1161  0.4332
  167SOPE   H5X18844   2.784   1.428   6.971 -2.1162  0.6317 -2.6201
  167SOPE   H5Y18845   2.908   1.565   6.983 -1.0775 -1.1501  0.7230
  167SOPE   C3618846   2.988   1.374   7.024 -0.3309 -0.0371  0.3500
  167SOPE   H6X18847   3.092   1.412   7.008 -0.2757 -1.0474 -2.0524
  167SOPE   H6Y18848   2.995   1.273   6.979  0.5620  0.8238 -1.5399
  167SOPE   C3718849   2.973   1.373   7.176 -0.1293  0.2121  0.1321
  167SOPE   H7X18850   2.878   1.318   7.195  0.1761  0.0001  1.1102
  167SOPE   H7Y18851   2.967   1.479   7.209 -0.9105  0.1910  0.0775
  167SOPE   C3818852   3.093   1.300   7.246  0.0555 -0.7451 -0.5611
  167SOPE   H8X18853   3.187   1.342   7.203 -1.1205  0.3868 -2.1630
  167SOPE   H8Y18854   3.107   1.196   7.211 -1.4698 -1.6548  1.3180
  167SOPE   C3918855   3.097   1.305   7.395  0.3885  0.2693  0.2563
  167SOPE   H9X18856   3.140   1.206   7.425  1.0843  0.1486 -1.0807
  167SOPE   H9Y18857   2.995   1.311   7.438 -0.2459 -2.8807 -0.5106
  167SOPE  C31018858   3.200   1.405   7.450 -0.0966  0.3176 -0.2921
  167SOPE  H10X18859   3.189   1.508   7.410 -2.4035  1.4715  2.8387
  167SOPE  H10Y18860   3.304   1.369   7.434  0.3265  0.7420  1.2492
  167SOPE  C31118861   3.186   1.410   7.600 -0.1999 -0.2822 -0.3335
  167SOPE  H11X18862   3.216   1.316   7.651 -3.9355 -0.2568  2.3835
  167SOPE  H11Y18863   3.078   1.411   7.629 -0.4431  1.1682 -1.2302
  167SOPE  C31218864   3.257   1.536   7.652 -0.3759 -0.2629 -0.0016
  167SOPE  H12X18865   3.243   1.623   7.585  0.7523 -0.1987 -0.1736
  167SOPE  H12Y18866   3.367   1.518   7.659  0.4016  4.1225  2.7006
  167SOPE  C31318867   3.223   1.586   7.801 -0.3660 -0.0417 -0.4797
  167SOPE  H13X18868   3.253   1.504   7.870  0.5407 -0.8066 -1.7305
  167SOPE  H13Y18869   3.115   1.608   7.807  0.0642  2.3004 -0.3090
  167SOPE  C31418870   3.283   1.722   7.844  0.5124  0.2956 -0.1451
  167SOPE  H14X18871   3.218   1.767   7.921  0.7058  0.8932 -0.3232
  167SOPE  H14Y18872   3.290   1.800   7.765 -0.8167  0.5736 -0.0044
  167SOPE  C31518873   3.431   1.702   7.879 -0.2306 -0.1951 -0.2847
  167SOPE  H15X18874   3.487   1.791   7.842 -0.1894 -0.8507 -1.8612
  167SOPE  H15Y18875   3.480   1.617   7.828  2.5469  1.2000 -0.1391
  167SOPE  C31618876   3.466   1.693   8.035  0.4912  0.3449  0.3473
  167SOPE  H16X18877   3.411   1.606   8.078 -0.9335  2.1962  2.4785
  167SOPE  H16Y18878   3.413   1.778   8.084 -3.1321 -1.2174 -0.5596
  167SOPE  C31718879   3.613   1.680   8.066 -0.3533  0.4743 -0.4091
  167SOPE  H17X18880   3.663   1.768   8.019  1.0460 -1.0440 -1.9030
  167SOPE  H17Y18881   3.651   1.586   8.021 -0.7585  0.9653 -1.8470
  167SOPE  C31818882   3.647   1.690   8.215  0.6379  0.1460 -0.4543
  167SOPE  H18X18883   3.724   1.619   8.251 -0.6011 -1.7179 -1.3224
  167SOPE  H18Y18884   3.553   1.682   8.274  0.7647  1.3510 -0.0464
  167SOPE  H18Z18885   3.677   1.789   8.255 -0.8105 -0.4465  2.3530
  168SOPE     N18886   0.388   0.434   6.486  0.4445 -0.4374 -0.3601
  168SOPE   HN118887   0.386   0.333   6.513  0.3537 -0.3856 -0.1703
  168SOPE   HN218888   0.320   0.489   6.543 -0.5916 -1.2460 -0.7738
  168SOPE   HN318889   0.359   0.455   6.388  1.9473  2.7414 -0.2407
  168SOPE   C1218890   0.524   0.495   6.512 -0.1874 -0.1011 -0.0159
  168SOPE  H12A18891   0.549   0.505   6.620  3.7690  0.5900 -0.8662
  168SOPE  H12B18892   0.504   0.600   6.480 -0.9563 -0.0477  0.5919
  168SOPE   C1118893   0.631   0.436   6.432  0.3212  0.4812  0.1280
  168SOPE  H11A18894   0.719   0.503   6.444 -0.2031  0.9004  2.0039
  168SOPE  H11B18895   0.602   0.421   6.326  0.6108 -0.3158  0.1566
  168SOPE     P18896   0.766   0.218   6.416 -0.2049 -0.0668 -0.0401
  168SOPE   O1318897   0.780   0.277   6.283  0.9114 -0.3621  0.2206
  168SOPE   O1418898   0.734   0.075   6.431  0.0667 -0.6502 -0.4313
  168SOPE   O1218899   0.656   0.303   6.495 -0.2085 -0.2740  0.5204
  168SOPE   O1118900   0.904   0.237   6.485  0.0907 -0.1598  0.0886
  168SOPE    C118901   0.948   0.364   6.532  0.5097 -0.7306 -0.1577
  168SOPE    HA18902   0.870   0.420   6.588  0.0999 -0.3448 -1.0969
  168SOPE    HB18903   0.973   0.430   6.446  0.3409  1.2715  1.2617
  168SOPE    C218904   1.080   0.361   6.611 -0.2996  0.1105 -0.5323
  168SOPE    HS18905   1.163   0.340   6.540 -0.3455 -1.1247 -0.2355
  168SOPE   O2118906   1.076   0.246   6.700  0.0072 -0.4386 -0.2619
  168SOPE   C2118907   1.188   0.184   6.723 -0.6020  0.1302  0.0183
  168SOPE   O2218908   1.291   0.189   6.656 -0.1906  0.0949  0.4245
  168SOPE   C2218909   1.169   0.092   6.842  0.9379 -0.0754 -0.5800
  168SOPE   H2R18910   1.115   0.002   6.806  1.4376 -0.7698  0.3732
  168SOPE   H2S18911   1.118   0.149   6.922  0.9342 -0.2461 -0.4603
  168SOPE    C318912   1.098   0.499   6.686  0.9355 -0.5970 -0.0065
  168SOPE    HX18913   0.999   0.522   6.732 -0.9747 -1.2393 -3.4861
  168SOPE    HY18914   1.115   0.573   6.605  0.6766 -2.3814 -1.7517
  168SOPE   O3118915   1.208   0.487   6.779  0.4920  0.1425 -0.6035
  168SOPE   C3118916   1.324   0.539   6.744 -0.0871 -0.1194  0.0099
  168SOPE   O3218917   1.345   0.593   6.632  0.2586 -0.0197 -0.2329
  168SOPE   C3218918   1.424   0.538   6.858 -0.2267 -0.0808 -0.2561
  168SOPE   H2X18919   1.519   0.528   6.801 -0.4488 -0.3174 -0.5891
  168SOPE   H2Y18920   1.406   0.445   6.916 -2.3725  1.0938  1.0815
  168SOPE   C2318921   1.293   0.016   6.895  0.3415 -0.3376 -0.5493
  168SOPE   H3R18922   1.377   0.020   6.823 -1.9251 -0.6512 -3.4281
  168SOPE   H3S18923   1.278  -0.091   6.920  0.5828 -0.5898 -1.4290
  168SOPE   C2418924   1.347   0.091   7.017  0.6002 -0.3279  0.6072
  168SOPE   H4R18925   1.443   0.044   7.049 -0.1080 -2.2390  0.0530
  168SOPE   H4S18926   1.377   0.194   6.986  0.4007  0.0361  1.5962
  168SOPE   C2518927   1.253   0.096   7.136 -0.6749 -0.0884  0.0008
  168SOPE   H5R18928   1.168   0.167   7.123  0.3056  1.0081 -0.6281
  168SOPE   H5S18929   1.226  -0.008   7.161 -2.5344  0.7382  1.7201
  168SOPE   C2618930   1.333   0.140   7.261 -0.6281 -0.2547  0.2035
  168SOPE   H6R18931   1.402   0.060   7.296 -0.6009 -0.0767  0.5597
  168SOPE   H6S18932   1.400   0.225   7.236  1.1889 -2.2607 -2.2532
  168SOPE   C2718933   1.249   0.165   7.383 -0.5764  0.2494  0.5884
  168SOPE   H7R18934   1.308   0.178   7.476 -0.4768 -1.3687  0.7813
  168SOPE   H7S18935   1.182   0.252   7.364  2.3296  2.3938 -0.6769
  168SOPE   C2818936   1.170   0.032   7.417  0.1303  0.2178  0.2554
  168SOPE   H8R18937   1.100   0.044   7.502 -0.2167  0.9318 -0.1221
  168SOPE   H8S18938   1.103   0.016   7.330 -1.3939  0.5069  1.3292
  168SOPE   C2918939   1.249  -0.097   7.449 -0.2405  0.5466  0.9205
  168SOPE   H9118940   1.258  -0.161   7.359 -2.4117 -1.6536  2.1385
  168SOPE  C21018941   1.284  -0.137   7.570  0.7245  0.1465 -0.2915
  168SOPE  H10118942   1.338  -0.232   7.575  0.9979  0.3183  0.0552
  168SOPE  C21118943   1.264  -0.068   7.703  0.2595  0.0131 -0.9318
  168SOPE  H11R18944   1.188  -0.113   7.770  0.7902  0.1469 -0.2285
  168SOPE  H11S18945   1.201   0.023   7.692 -1.0585 -0.6068  0.9655
  168SOPE  C21218946   1.390  -0.045   7.789 -0.3893  0.4671 -0.6616
  168SOPE  H12R18947   1.471  -0.003   7.726 -0.4735 -2.2594 -2.7534
  168SOPE  H12S18948   1.419  -0.148   7.821 -0.3446  0.1323 -1.7518
  168SOPE  C21318949   1.358   0.044   7.912  0.1787 -1.0254  0.6771
  168SOPE  H13R18950   1.279  -0.006   7.972 -1.4303 -0.1801 -0.6566
  168SOPE  H13S18951   1.310   0.139   7.880 -0.1127 -1.5439 -0.4410
  168SOPE  C21418952   1.474   0.067   8.014 -0.2005  0.9629 -0.7638
  168SOPE  H14R18953   1.561   0.096   7.952 -0.9403  0.1079 -2.2498
  168SOPE  H14S18954   1.502  -0.033   8.054 -0.0442  1.0665 -0.6143
  168SOPE  C21518955   1.441   0.149   8.142  0.1404  0.0501  0.2798
  168SOPE  H15R18956   1.378   0.237   8.117 -0.1842 -0.6380 -1.4542
  168SOPE  H15S18957   1.532   0.182   8.196  1.0765 -0.0200 -1.2071
  168SOPE  C21618958   1.345   0.063   8.232 -0.3170 -0.2443 -0.5729
  168SOPE  H16R18959   1.395  -0.031   8.264 -0.2195 -0.1128 -0.3341
  168SOPE  H16S18960   1.258   0.036   8.170 -0.3289  2.2093 -1.7423
  168SOPE  C21718961   1.307   0.126   8.366 -0.1524 -0.9134  0.0231
  168SOPE  H17R18962   1.237   0.208   8.338  0.7480  0.1627  0.8057
  168SOPE  H17S18963   1.395   0.181   8.405 -0.8093  0.6790 -0.6570
  168SOPE  C21818964   1.258   0.042   8.481 -0.4731  0.1040 -0.0226
  168SOPE  H18R18965   1.344  -0.027   8.494 -0.1927  0.3645 -0.4616
  168SOPE  H18S18966   1.170  -0.022   8.460 -0.6200  0.8268 -1.7802
  168SOPE  H18T18967   1.248   0.089   8.581  3.3125  0.9478  0.1018
  168SOPE   C3318968   1.395   0.657   6.946 -0.4421  0.2000  0.1288
  168SOPE   H3X18969   1.286   0.671   6.961 -0.7623 -2.1714  0.4175
  168SOPE   H3Y18970   1.431   0.749   6.895 -1.2482 -0.1166 -1.0269
  168SOPE   C3418971   1.461   0.648   7.081  0.2162 -0.4557 -0.0002
  168SOPE   H4X18972   1.455   0.748   7.130 -0.1963 -0.5729  0.1906
  168SOPE   H4Y18973   1.568   0.619   7.079  1.1670  2.3343  2.3261
  168SOPE   C3518974   1.386   0.547   7.169  0.3489 -0.7920  0.1712
  168SOPE   H5X18975   1.403   0.451   7.117  2.7816  0.8179 -2.2968
  168SOPE   H5Y18976   1.276   0.565   7.177  0.5876  0.7416  0.4242
  168SOPE   C3618977   1.442   0.529   7.311 -0.3170  0.2240  1.3025
  168SOPE   H6X18978   1.550   0.507   7.299 -0.6451 -0.1935 -1.6554
  168SOPE   H6Y18979   1.404   0.434   7.355 -1.9905 -0.1064 -0.7085
  168SOPE   C3718980   1.416   0.644   7.410  0.1166  1.3259  0.6035
  168SOPE   H7X18981   1.308   0.671   7.414  0.5174  2.9005  1.7617
  168SOPE   H7Y18982   1.465   0.735   7.368  2.0557 -0.0244 -0.1863
  168SOPE   C3818983   1.471   0.611   7.549  0.7991  0.5075 -0.0027
  168SOPE   H8X18984   1.582   0.608   7.546  0.9089  0.9802  1.9590
  168SOPE   H8Y18985   1.433   0.510   7.575 -0.8789  1.4940  1.6835
  168SOPE   C3918986   1.423   0.715   7.643 -0.2646  0.5908  0.2439
  168SOPE   H9X18987   1.313   0.703   7.654 -0.0868 -0.5259  0.9816
  168SOPE   H9Y18988   1.453   0.811   7.596 -2.9757  1.9685  1.1000
  168SOPE  C31018989   1.478   0.704   7.787 -0.4246  0.5326 -0.4533
  168SOPE  H10X18990   1.444   0.607   7.831 -0.8078 -0.9597 -3.6770
  168SOPE  H10Y18991   1.434   0.780   7.854 -0.7292  0.2660 -0.3445
  168SOPE  C31118992   1.635   0.704   7.787  0.2612 -0.3003 -0.9718
  168SOPE  H11X18993   1.654   0.809   7.755 -0.0591  0.8801  2.3320
  168SOPE  H11Y18994   1.683   0.626   7.723  0.1174 -0.1643 -1.2501
  168SOPE  C31218995   1.689   0.685   7.933 -0.0958  0.3876 -0.4482
  168SOPE  H12X18996   1.788   0.637   7.917 -0.8516 -1.3122 -0.2612
  168SOPE  H12Y18997   1.633   0.602   7.981  1.0460 -0.7230 -0.9590
  168SOPE  C31318998   1.692   0.817   8.010 -0.7437 -0.4863 -0.5489
  168SOPE  H13X18999   1.597   0.873   7.995 -1.0306 -0.2934  1.6324
  168SOPE  H13Y19000   1.778   0.876   7.971 -0.8465 -1.1917 -1.9064
  168SOPE  C31419001   1.697   0.805   8.164 -0.5853 -0.1187  0.4974
  168SOPE  H14X19002   1.785   0.747   8.196 -1.7426 -3.1249 -1.3841
  168SOPE  H14Y19003   1.609   0.749   8.203 -1.2510 -0.5024 -1.4282
  168SOPE  C31519004   1.706   0.934   8.243 -0.1609  0.4201  0.0169
  168SOPE  H15X19005   1.604   0.975   8.258 -0.8219 -0.3475 -2.0334
  168SOPE  H15Y19006   1.776   0.998   8.185 -0.6229 -0.4787 -1.5803
  168SOPE  C31619007   1.752   0.910   8.390  0.3010  0.3904  0.5438
  168SOPE  H16X19008   1.840   0.845   8.408 -0.1497 -0.1356  0.8897
  168SOPE  H16Y19009   1.663   0.862   8.437 -0.4393  0.8613 -0.3388
  168SOPE  C31719010   1.770   1.044   8.472  0.1673 -0.8759 -0.1334
  168SOPE  H17X19011   1.851   1.109   8.431 -1.8286  1.4024 -0.6810
  168SOPE  H17Y19012   1.783   1.020   8.580 -2.0414 -0.1137  0.3467
  168SOPE  C31819013   1.651   1.146   8.481  0.4205  0.3121  0.3865
  168SOPE  H18X19014   1.665   1.219   8.563 -0.0573 -0.7934  1.4874
  168SOPE  H18Y19015   1.551   1.101   8.497 -1.0727  3.7375  1.6814
  168SOPE  H18Z19016   1.649   1.203   8.386  1.2722  0.1643  0.2784
  169SOPE     N19017   5.035   2.101   6.395  0.1693  0.1327 -0.5750
  169SOPE   HN119018   4.948   2.046   6.382 -0.1211  0.7971 -1.5923
  169SOPE   HN219019   5.019   2.200   6.366 -1.1486  0.1460  0.1302
  169SOPE   HN319020   5.098   2.056   6.326 -0.4682 -1.6366 -0.0409
  169SOPE   C1219021   5.104   2.098   6.531 -0.0835  0.0390 -0.0603
  169SOPE  H12A19022   5.053   2.168   6.602  1.8782 -0.8035  2.3349
  169SOPE  H12B19023   5.212   2.122   6.523  0.6882 -1.8047  3.0646
  169SOPE   C1119024   5.114   1.953   6.595 -0.2994  0.1587 -0.8631
  169SOPE  H11A19025   5.016   1.909   6.625 -0.0607  0.8523  1.0405
  169SOPE  H11B19026   5.174   1.964   6.688  1.0851 -2.0164 -1.4572
  169SOPE     P19027   5.309   1.791   6.513 -0.4561 -0.2183 -0.3580
  169SOPE   O1319028   5.407   1.905   6.518  0.0832 -0.2584 -0.4461
  169SOPE   O1419029   5.315   1.691   6.404 -0.5191 -0.4008  0.1589
  169SOPE   O1219030   5.171   1.863   6.498  0.1013  0.4220 -0.3687
  169SOPE   O1119031   5.291   1.722   6.654  0.6291 -0.0598  0.4647
  169SOPE    C119032   5.175   1.636   6.692 -0.3171 -0.6748  0.3251
  169SOPE    HA19033   5.145   1.569   6.609  1.2415 -1.0264  0.0109
  169SOPE    HB19034   5.082   1.690   6.717 -0.7315 -0.7336 -0.9930
  169SOPE    C219035   5.220   1.545   6.804  0.2713 -1.0191 -0.9753
  169SOPE    HS19036   5.312   1.494   6.769  2.8221  1.8941  0.9431
  169SOPE   O2119037   5.107   1.461   6.826 -0.3860  0.1920  0.2828
  169SOPE   C2119038   5.139   1.338   6.869 -0.0817  0.5138 -0.1828
  169SOPE   O2219039   5.252   1.300   6.893 -0.4828 -0.4378  0.0175
  169SOPE   C2219040   5.013   1.249   6.890  0.2045  0.0792  0.7438
  169SOPE   H2R19041   4.977   1.200   6.797 -1.7134 -2.3189  2.6408
  169SOPE   H2S19042   4.934   1.315   6.931 -1.4588 -0.2117 -1.7784
  169SOPE    C319043   5.255   1.637   6.925  0.1841 -0.0811  0.6877
  169SOPE    HX19044   5.179   1.715   6.945  0.8734  0.6778  0.4148
  169SOPE    HY19045   5.339   1.700   6.889 -0.5662  1.3193  1.3137
  169SOPE   O3119046   5.284   1.565   7.044 -0.1096 -0.7592 -0.3283
  169SOPE   C3119047   5.405   1.517   7.049  0.6903 -0.5038 -0.0241
  169SOPE   O3219048   5.498   1.537   6.970  0.6040  1.0449 -0.7444
  169SOPE   C3219049   5.422   1.435   7.174  0.1631 -0.3471 -0.1575
  169SOPE   H2X19050   5.526   1.396   7.170 -1.4421 -5.7274  1.1395
  169SOPE   H2Y19051   5.360   1.342   7.178 -0.9341  0.3027 -1.4965
  169SOPE   C2319052   5.038   1.132   6.987 -0.7460  0.1087 -0.2082
  169SOPE   H3R19053   5.117   1.065   6.947  0.5172  1.8895 -0.7970
  169SOPE   H3S19054   4.947   1.068   6.990  0.1430 -1.2574 -0.9141
  169SOPE   C2419055   5.047   1.178   7.135  0.1669  0.0192 -0.3457
  169SOPE   H4R19056   5.144   1.230   7.147  1.1922 -2.1682  1.7757
  169SOPE   H4S19057   4.965   1.253   7.147 -0.9268 -0.6311 -3.0401
  169SOPE   C2519058   5.051   1.070   7.241  0.7075 -0.3713  0.9966
  169SOPE   H5R19059   4.959   1.008   7.244  1.1598 -1.0553  0.8788
  169SOPE   H5S19060   5.135   1.001   7.221  1.4107  0.7250  0.0466
  169SOPE   C2619061   5.076   1.132   7.375 -0.6904 -0.2288 -0.6523
  169SOPE   H6R19062   5.085   1.050   7.449  2.4786 -0.7713 -1.5324
  169SOPE   H6S19063   5.176   1.179   7.378 -0.5589 -0.4934  2.8267
  169SOPE   C2719064   4.974   1.232   7.436 -0.5732  0.8125 -0.2800
  169SOPE   H7R19065   4.926   1.289   7.353 -0.8621  0.0676 -0.6277
  169SOPE   H7S19066   4.899   1.166   7.484  1.7623 -0.3774  1.9945
  169SOPE   C2819067   5.038   1.332   7.540 -0.1620  0.4294 -0.1437
  169SOPE   H8R19068   5.088   1.277   7.623  1.0528 -2.9084 -2.8308
  169SOPE   H8S19069   5.126   1.373   7.485 -0.5634 -1.5459 -2.4661
  169SOPE   C2919070   4.947   1.443   7.579 -0.0058 -0.1346 -0.3189
  169SOPE   H9119071   4.897   1.484   7.490  1.2487  1.3712 -0.3765
  169SOPE  C21019072   4.902   1.494   7.696  0.0915 -0.9179 -0.2433
  169SOPE  H10119073   4.841   1.584   7.681  1.7457  0.3709  0.3852
  169SOPE  C21119074   4.943   1.449   7.832  0.0533 -0.2670 -0.7807
  169SOPE  H11R19075   4.991   1.350   7.818  1.1845  0.4290 -2.0612
  169SOPE  H11S19076   4.855   1.439   7.899  0.7216  1.1409  0.3359
  169SOPE  C21219077   5.030   1.542   7.917  0.5909  0.0748  0.9424
  169SOPE  H12R19078   5.109   1.568   7.844 -0.1705 -0.2970 -0.0474
  169SOPE  H12S19079   5.084   1.494   8.001  1.0481  0.2741  0.7627
  169SOPE  C21319080   4.977   1.672   7.965  1.3644 -0.8018  0.5143
  169SOPE  H13R19081   4.871   1.655   7.991  0.8289  0.2858 -0.8455
  169SOPE  H13S19082   4.988   1.753   7.890 -0.0047 -0.1151  1.0199
  169SOPE  C21419083   5.045   1.727   8.092 -0.3043  0.3228  0.0076
  169SOPE  H14R19084   5.145   1.771   8.071 -0.0345 -0.0081  0.5677
  169SOPE  H14S19085   5.054   1.646   8.167 -1.5929  1.0397  0.9683
  169SOPE  C21519086   4.970   1.838   8.164 -0.1519 -0.5476 -0.0834
  169SOPE  H15R19087   5.029   1.876   8.251 -2.3521 -0.6110  1.5224
  169SOPE  H15S19088   4.874   1.800   8.206  0.0834  1.4575  2.5212
  169SOPE  C21619089   4.947   1.949   8.066  0.4366  0.7978  0.1161
  169SOPE  H16R19090   4.878   1.919   7.985  1.3558  0.6940 -0.6363
  169SOPE  H16S19091   5.049   1.955   8.024  0.7415 -0.7152  0.5858
  169SOPE  C21719092   4.898   2.085   8.116  0.9040  0.0849 -1.1381
  169SOPE  H17R19093   4.965   2.118   8.198 -1.4486 -0.1205  1.0093
  169SOPE  H17S19094   4.799   2.075   8.167  0.5387 -1.9460 -2.1471
  169SOPE  C21819095   4.891   2.193   8.009 -0.7167  0.0888  0.5711
  169SOPE  H18R19096   4.888   2.295   8.052 -2.0130 -0.3216  1.5150
  169SOPE  H18S19097   4.801   2.167   7.948 -0.5532  2.0738 -0.6218
  169SOPE  H18T19098   4.974   2.185   7.935  0.4713 -0.3901  1.9120
  169SOPE   C3319099   5.412   1.524   7.303  0.3527  0.3464  0.6581
  169SOPE   H3X19100   5.325   1.592   7.314  0.4700  0.7719 -0.7677
  169SOPE   H3Y19101   5.492   1.601   7.298  1.1343 -0.5005 -0.4787
  169SOPE   C3419102   5.431   1.445   7.425  0.5512  0.1727 -0.8893
  169SOPE   H4X19103   5.530   1.397   7.413  0.3905  0.0038 -1.5729
  169SOPE   H4Y19104   5.360   1.359   7.428  0.2673  0.2326 -3.7780
  169SOPE   C3519105   5.432   1.520   7.560 -0.6599  0.2881  0.2139
  169SOPE   H5X19106   5.341   1.582   7.572  0.0161  1.2598  0.4501
  169SOPE   H5Y19107   5.518   1.590   7.564 -2.4279  2.5114  1.4668
  169SOPE   C3619108   5.427   1.421   7.678 -1.0688 -1.1626 -0.5449
  169SOPE   H6X19109   5.503   1.341   7.664 -0.7459 -1.1911  1.1634
  169SOPE   H6Y19110   5.329   1.372   7.659  0.3273 -3.0337 -3.8160
  169SOPE   C3719111   5.425   1.491   7.819  0.3830 -0.3615 -0.3553
  169SOPE   H7X19112   5.339   1.562   7.821  0.7922  0.1489 -0.5711
  169SOPE   H7Y19113   5.517   1.547   7.844  0.6409 -0.5168 -0.9445
  169SOPE   C3819114   5.420   1.386   7.930  0.1644 -0.2042 -0.6038
  169SOPE   H8X19115   5.320   1.336   7.936 -0.7826  1.5854 -0.6861
  169SOPE   H8Y19116   5.497   1.310   7.907 -0.8537 -1.1121 -1.0925
  169SOPE   C3919117   5.463   1.450   8.065  0.0364  0.2646 -0.5293
  169SOPE   H9X19118   5.561   1.500   8.048 -1.6320  4.2407  0.4321
  169SOPE   H9Y19119   5.482   1.370   8.140 -0.4980 -3.5139 -4.0763
  169SOPE  C31019120   5.353   1.533   8.136  0.0630  0.0783  0.0420
  169SOPE  H10X19121   5.259   1.473   8.143  0.3626 -0.2314  1.7696
  169SOPE  H10Y19122   5.334   1.631   8.088  0.4634  0.4006  0.5351
  169SOPE  C31119123   5.391   1.575   8.274  0.5714  0.5391 -0.0809
  169SOPE  H11X19124   5.484   1.636   8.263  0.1909  1.5349  1.8004
  169SOPE  H11Y19125   5.420   1.492   8.343 -1.9865  0.0634  0.4978
  169SOPE  C31219126   5.295   1.664   8.351 -0.5222  0.3526  0.9765
  169SOPE  H12X19127   5.226   1.596   8.405 -0.7787 -1.8251 -1.8391
  169SOPE  H12Y19128   5.242   1.721   8.273  0.1776 -0.3278 -0.0281
  169SOPE  C31319129   5.372   1.745   8.457 -0.0127  0.2415 -0.3858
  169SOPE  H13X19130   5.452   1.810   8.415  0.4959 -0.5534 -0.6547
  169SOPE  H13Y19131   5.413   1.673   8.530 -1.6534 -0.8506 -0.4990
  169SOPE  C31419132   5.278   1.847   8.525 -0.5776 -0.4032 -0.2852
  169SOPE  H14X19133   5.182   1.799   8.552 -0.6883 -0.3225 -0.5342
  169SOPE  H14Y19134   5.250   1.925   8.451  0.4030  0.4241  0.1861
  169SOPE  C31519135   5.326   1.913   8.660  0.7327 -0.3836 -0.5284
  169SOPE  H15X19136   5.276   2.009   8.684  0.0255 -1.0050  0.6243
  169SOPE  H15Y19137   5.436   1.927   8.657  0.5693  2.3149  1.8004
  169SOPE  C31619138   5.300   1.814   8.775 -0.1957 -0.5322 -0.6971
  169SOPE  H16X19139   5.352   1.720   8.747 -0.7117 -1.0607  0.0693
  169SOPE  H16Y19140   5.193   1.785   8.768 -0.7818  1.4938 -0.6925
  169SOPE  C31719141   5.337   1.872   8.913  0.2284  0.0082 -0.1952
  169SOPE  H17X19142   5.282   1.812   8.989 -1.7205  0.0364 -1.4981
  169SOPE  H17Y19143   5.286   1.970   8.905 -0.1003 -0.0725  0.8431
  169SOPE  C31819144   5.481   1.890   8.939 -0.3166 -0.2261 -0.2054
  169SOPE  H18X19145   5.533   1.956   8.865 -0.6677  0.2236 -0.0596
  169SOPE  H18Y19146   5.527   1.789   8.943 -2.5280 -1.2308  1.9159
  169SOPE  H18Z19147   5.499   1.923   9.043 -2.1409 -2.9178  1.0585
  170SOPE     N19148   3.994   6.015   6.225  0.4532 -0.5561 -0.1621
  170SOPE   HN119149   4.027   5.948   6.297 -0.7222  0.4864  1.4007
  170SOPE   HN219150   4.049   5.993   6.139  2.1166  0.8849  0.4673
  170SOPE   HN319151   4.025   6.112   6.247  1.8887 -0.5538 -1.8581
  170SOPE   C1219152   3.845   6.010   6.215 -0.2777 -0.6786  0.3951
  170SOPE  H12A19153   3.807   5.955   6.127 -0.8912 -1.6479  1.2410
  170SOPE  H12B19154   3.819   6.114   6.186 -0.3352 -1.1106 -1.1594
  170SOPE   C1119155   3.778   5.955   6.341 -0.1642 -0.0120  0.6061
  170SOPE  H11A19156   3.678   5.998   6.362 -0.5443 -0.4689 -0.1891
  170SOPE  H11B19157   3.844   5.989   6.423 -0.9235 -0.6042  1.4777
  170SOPE     P19158   3.769   5.724   6.461  0.2714  0.1244  0.1379
  170SOPE   O1319159   3.903   5.699   6.519  0.5198  0.3914 -0.2324
  170SOPE   O1419160   3.692   5.605   6.418 -0.4485 -0.5536  0.0352
  170SOPE   O1219161   3.778   5.807   6.333  0.0219  0.4366  0.4451
  170SOPE   O1119162   3.690   5.816   6.566 -0.6198  0.9215  0.1976
  170SOPE    C119163   3.673   5.760   6.697 -0.7311  0.6959  0.5781
  170SOPE    HA19164   3.773   5.742   6.742  0.9545 -0.3546 -3.1980
  170SOPE    HB19165   3.634   5.657   6.685  0.7394 -0.0998  2.2088
  170SOPE    C219166   3.590   5.856   6.790 -0.3283 -0.6775  0.6397
  170SOPE    HS19167   3.650   5.950   6.788 -0.2072 -0.7600 -1.3950
  170SOPE   O2119168   3.580   5.795   6.919 -0.1431  0.6927 -0.5796
  170SOPE   C2119169   3.614   5.881   7.021 -0.0662  0.5745  0.1967
  170SOPE   O2219170   3.663   5.989   7.003 -0.1883 -0.1269  0.4465
  170SOPE   C2219171   3.562   5.838   7.158 -0.3402  0.2825 -0.5880
  170SOPE   H2R19172   3.614   5.746   7.191 -0.2118  0.8343  0.8261
  170SOPE   H2S19173   3.451   5.831   7.155 -0.8434  1.8209  4.3319
  170SOPE    C319174   3.449   5.873   6.724  0.1514  0.0995 -0.5714
  170SOPE    HX19175   3.393   5.781   6.699 -2.4506  0.9202  1.6951
  170SOPE    HY19176   3.481   5.924   6.630  1.3616 -0.2140 -0.3435
  170SOPE   O3119177   3.363   5.956   6.809 -0.5820  0.9381  0.2711
  170SOPE   C3119178   3.371   6.089   6.782 -0.2186 -0.6612  0.1975
  170SOPE   O3219179   3.438   6.144   6.694  0.1819 -0.2770 -0.4492
  170SOPE   C3219180   3.286   6.153   6.880  0.4064 -0.7079 -0.1518
  170SOPE   H2X19181   3.290   6.106   6.981 -1.1183 -0.3660  0.0959
  170SOPE   H2Y19182   3.187   6.132   6.834  0.8776  1.5090 -2.4196
  170SOPE   C2319183   3.591   5.952   7.265 -0.0129  0.4580  0.2602
  170SOPE   H3R19184   3.541   6.051   7.267  1.0344  1.0016  1.9153
  170SOPE   H3S19185   3.699   5.978   7.265  0.1740 -0.3082  0.2261
  170SOPE   C2419186   3.574   5.897   7.411 -0.8309  0.6128 -0.0919
  170SOPE   H4R19187   3.659   5.829   7.431 -0.0428  1.8099  0.7218
  170SOPE   H4S19188   3.579   5.990   7.471 -3.8344 -0.1499  1.5887
  170SOPE   C2519189   3.431   5.836   7.427  0.1335 -0.0230 -0.3616
  170SOPE   H5R19190   3.358   5.907   7.382 -1.3167  0.2294  2.1728
  170SOPE   H5S19191   3.427   5.740   7.372  1.4581 -1.0749  1.2645
  170SOPE   C2619192   3.383   5.829   7.578 -0.4876 -0.4309  0.0837
  170SOPE   H6R19193   3.470   5.839   7.647  1.1029 -2.7421 -1.4376
  170SOPE   H6S19194   3.318   5.918   7.587  0.6276  0.6728 -2.0693
  170SOPE   C2719195   3.304   5.704   7.607 -0.1422 -0.5409 -0.1087
  170SOPE   H7R19196   3.220   5.699   7.535  0.1848  2.2383 -0.7701
  170SOPE   H7S19197   3.367   5.616   7.581  2.0531  1.0444 -0.4265
  170SOPE   C2819198   3.256   5.701   7.750  0.4378  0.3541 -0.5711
  170SOPE   H8R19199   3.209   5.800   7.772 -0.6495  0.4073 -2.8390
  170SOPE   H8S19200   3.180   5.620   7.748  0.4599  0.2900 -3.7409
  170SOPE   C2919201   3.364   5.687   7.851 -0.5855  0.1168  0.5945
  170SOPE   H9119202   3.427   5.775   7.869  0.1995 -0.3673  0.2586
  170SOPE  C21019203   3.389   5.579   7.921 -0.0358 -0.2629 -0.5164
  170SOPE  H10119204   3.449   5.587   8.014 -2.8013  2.0700  1.2247
  170SOPE  C21119205   3.311   5.450   7.906 -0.6338 -0.3442 -0.6518
  170SOPE  H11R19206   3.350   5.394   7.819 -0.3828 -1.8447  0.3916
  170SOPE  H11S19207   3.204   5.469   7.882 -0.7991 -0.3807  0.0265
  170SOPE  C21219208   3.327   5.361   8.033  0.2752  0.0430  0.8573
  170SOPE  H12R19209   3.433   5.346   8.063  0.1949 -0.2602  0.9932
  170SOPE  H12S19210   3.278   5.263   8.013  1.7285 -0.7619  1.1073
  170SOPE  C21319211   3.232   5.401   8.147 -0.4097 -0.1340  0.8215
  170SOPE  H13R19212   3.127   5.418   8.116  0.4645  1.7516 -1.3545
  170SOPE  H13S19213   3.265   5.503   8.175  0.2730 -0.5115  1.4437
  170SOPE  C21419214   3.255   5.313   8.268  0.0299 -0.2801 -0.9728
  170SOPE  H14R19215   3.363   5.315   8.296 -0.3831 -0.8607  0.8241
  170SOPE  H14S19216   3.224   5.208   8.247 -2.3838 -0.1318  1.2695
  170SOPE  C21519217   3.196   5.356   8.402 -0.4632 -0.5151  0.1909
  170SOPE  H15R19218   3.216   5.466   8.408  2.6212 -1.0033  0.7625
  170SOPE  H15S19219   3.248   5.310   8.489 -0.8462  0.0427  0.7294
  170SOPE  C21619220   3.047   5.335   8.409 -0.3227 -0.1088  0.3946
  170SOPE  H16R19221   3.027   5.229   8.383  0.4461 -0.1580 -0.0021
  170SOPE  H16S19222   2.995   5.403   8.337 -0.2872  1.2251  1.5720
  170SOPE  C21719223   3.001   5.358   8.555  0.2451 -0.2502 -0.1835
  170SOPE  H17R19224   3.039   5.458   8.585  1.4814 -0.0195 -2.3147
  170SOPE  H17S19225   3.043   5.274   8.614 -2.0259 -2.5000 -1.5693
  170SOPE  C21819226   2.850   5.344   8.574  0.3016 -0.7601  0.6193
  170SOPE  H18R19227   2.817   5.354   8.679  0.9249 -3.0968  1.1083
  170SOPE  H18S19228   2.825   5.245   8.529  2.0321  0.3565 -3.3034
  170SOPE  H18T19229   2.791   5.416   8.514 -2.1563 -2.9896  0.1661
  170SOPE   C3319230   3.283   6.309   6.892 -0.5597  0.7329 -0.5514
  170SOPE   H3X19231   3.300   6.349   6.790  0.0342  1.4408 -0.1789
  170SOPE   H3Y19232   3.361   6.356   6.956  0.3589 -2.0001  0.5130
  170SOPE   C3419233   3.148   6.363   6.947 -0.0862  0.1416 -0.3423
  170SOPE   H4X19234   3.083   6.334   6.862  0.3343  0.0322 -0.6322
  170SOPE   H4Y19235   3.157   6.474   6.945 -0.6652  0.1993  0.1094
  170SOPE   C3519236   3.103   6.317   7.086 -0.4244  0.3454 -0.3604
  170SOPE   H5X19237   3.102   6.206   7.081  1.2730  0.3322 -1.1058
  170SOPE   H5Y19238   3.008   6.368   7.113 -0.5683 -0.3402  0.4679
  170SOPE   C3619239   3.203   6.347   7.192 -0.3092  0.2027  0.8168
  170SOPE   H6X19240   3.239   6.452   7.201  0.3926  0.0580 -0.2395
  170SOPE   H6Y19241   3.288   6.279   7.171 -0.8688  0.0742 -1.2069
  170SOPE   C3719242   3.141   6.315   7.327  0.3419  0.8636 -0.5073
  170SOPE   H7X19243   3.074   6.228   7.310 -2.0955  2.8760 -1.8113
  170SOPE   H7Y19244   3.070   6.394   7.358 -1.5467 -1.1647  0.6218
  170SOPE   C3819245   3.241   6.282   7.438 -0.2982 -0.1444 -0.7021
  170SOPE   H8X19246   3.287   6.379   7.468  0.7549  0.0394 -2.7390
  170SOPE   H8Y19247   3.325   6.217   7.405 -1.3048 -2.0786  0.3938
  170SOPE   C3919248   3.173   6.204   7.555  0.1461 -0.6776 -0.3360
  170SOPE   H9X19249   3.255   6.181   7.626  0.2552 -1.3470 -0.6710
  170SOPE   H9Y19250   3.121   6.112   7.520  0.6167 -0.7849 -0.7571
  170SOPE  C31019251   3.083   6.294   7.648  0.1543 -0.0433 -0.0213
  170SOPE  H10X19252   2.976   6.279   7.622  0.0491 -1.6041  1.1813
  170SOPE  H10Y19253   3.129   6.396   7.654 -1.5539  0.7870 -0.4879
  170SOPE  C31119254   3.088   6.254   7.793 -0.5497 -0.8394 -0.3970
  170SOPE  H11X19255   3.040   6.338   7.848  0.5431 -0.7606  0.4766
  170SOPE  H11Y19256   3.190   6.232   7.828 -0.4947 -1.8568 -1.1549
  170SOPE  C31219257   2.990   6.135   7.822 -0.1275 -0.3702 -0.6806
  170SOPE  H12X19258   3.010   6.065   7.738  0.7731 -0.5347 -0.3468
  170SOPE  H12Y19259   2.885   6.168   7.810 -0.7802 -2.8552 -2.8738
  170SOPE  C31319260   3.021   6.069   7.956 -0.4129 -0.0041  0.8369
  170SOPE  H13X19261   3.000   6.151   8.028  1.3858  1.7478 -0.5164
  170SOPE  H13Y19262   3.129   6.045   7.958 -0.9582 -3.0609 -0.0532
  170SOPE  C31419263   2.946   5.940   7.989  0.7619 -0.1633 -0.4079
  170SOPE  H14X19264   2.950   5.864   7.908 -1.7205  0.4112 -1.1770
  170SOPE  H14Y19265   2.838   5.962   8.003  0.1226 -2.3685 -1.4253
  170SOPE  C31519266   3.003   5.885   8.122  0.0430 -0.0427 -0.1377
  170SOPE  H15X19267   2.971   5.953   8.203  1.1321  3.6895 -2.5969
  170SOPE  H15Y19268   3.114   5.881   8.109 -0.0362  2.0958 -1.9749
  170SOPE  C31619269   2.960   5.737   8.142 -0.4815 -0.5489  0.1170
  170SOPE  H16X19270   3.011   5.697   8.232  0.9794  2.1359  0.5770
  170SOPE  H16Y19271   2.997   5.685   8.052  0.5546 -0.9091  0.7375
  170SOPE  C31719272   2.807   5.712   8.170 -1.2228 -0.8382 -0.8460
  170SOPE  H17X19273   2.816   5.605   8.195  1.4543 -0.6272 -0.6101
  170SOPE  H17Y19274   2.767   5.734   8.068  0.4335  3.9280 -0.7344
  170SOPE  C31819275   2.739   5.793   8.286 -0.8096 -0.6959  0.7330
  170SOPE  H18X19276   2.758   5.902   8.271 -1.7212 -0.6263 -0.0453
  170SOPE  H18Y19277   2.786   5.765   8.382 -1.8879 -2.1534  0.8688
  170SOPE  H18Z19278   2.629   5.779   8.286 -0.7438 -1.2477  0.8331
  171SOPE     N19279   5.857   2.982   6.304  0.2412 -0.2586 -0.2326
  171SOPE   HN119280   5.946   3.035   6.306  0.0445  0.1248 -1.2997
  171SOPE   HN219281   5.785   3.016   6.372 -0.8024  1.4820 -2.1139
  171SOPE   HN319282   5.887   2.885   6.328 -1.4053 -0.9111 -0.6529
  171SOPE   C1219283   5.791   2.982   6.161  0.0579 -0.2403  0.1663
  171SOPE  H12A19284   5.726   2.892   6.152  0.4208 -0.5862  0.9663
  171SOPE  H12B19285   5.877   2.989   6.091 -1.2436 -1.0956 -1.6124
  171SOPE   C1119286   5.680   3.092   6.137 -0.0953 -0.2278 -0.6644
  171SOPE  H11A19287   5.625   3.068   6.043 -0.3678 -0.8636 -0.3536
  171SOPE  H11B19288   5.734   3.185   6.111 -1.7091  0.8885 -0.1818
  171SOPE     P19289   5.466   2.997   6.243  0.0356  0.4643 -0.1376
  171SOPE   O1319290   5.402   2.977   6.109  0.1683 -0.0173  0.6079
  171SOPE   O1419291   5.377   3.041   6.351 -0.1356  0.3157 -0.0458
  171SOPE   O1219292   5.589   3.106   6.241 -0.1100  0.0161 -0.7765
  171SOPE   O1119293   5.535   2.869   6.296  0.2364 -0.0308 -0.2669
  171SOPE    C119294   5.480   2.739   6.286 -0.5566 -0.9421  0.7570
  171SOPE    HA19295   5.538   2.691   6.204  0.1261 -0.0072  0.6744
  171SOPE    HB19296   5.374   2.741   6.253  0.3502  1.8996 -2.6237
  171SOPE    C219297   5.490   2.651   6.420 -0.2860  0.0043 -0.2224
  171SOPE    HS19298   5.413   2.570   6.413 -0.2905  0.1192 -2.1540
  171SOPE   O2119299   5.468   2.735   6.528  0.1236 -0.1891 -0.2044
  171SOPE   C2119300   5.348   2.781   6.536  0.6705 -0.3077 -0.6516
  171SOPE   O2219301   5.244   2.755   6.472 -0.1070  0.2667  0.2989
  171SOPE   C2219302   5.361   2.886   6.650  0.2487 -0.2076 -0.6675
  171SOPE   H2R19303   5.410   2.973   6.603 -0.7732  0.8245  0.1395
  171SOPE   H2S19304   5.418   2.854   6.740 -1.2019  1.1246  0.7828
  171SOPE    C319305   5.626   2.583   6.450 -0.0878  0.6173 -0.0536
  171SOPE    HX19306   5.711   2.654   6.447  0.5324 -0.1163 -0.2974
  171SOPE    HY19307   5.639   2.515   6.363 -3.5144  0.3687 -0.5120
  171SOPE   O3119308   5.627   2.492   6.568  0.1111 -0.3831  0.3613
  171SOPE   C3119309   5.673   2.558   6.679 -0.4111 -0.0658  0.3383
  171SOPE   O3219310   5.741   2.662   6.668 -1.0547  0.0427 -0.3703
  171SOPE   C3219311   5.636   2.488   6.806  0.0410 -0.3411 -0.4345
  171SOPE   H2X19312   5.637   2.378   6.793 -1.3302 -0.2007 -2.0013
  171SOPE   H2Y19313   5.531   2.519   6.822  1.0231  2.1715  1.9406
  171SOPE   C2319314   5.224   2.937   6.708 -0.1126  0.4882 -0.1279
  171SOPE   H3R19315   5.172   2.845   6.740  0.4945 -0.1912 -1.0418
  171SOPE   H3S19316   5.175   2.988   6.622  1.8619  0.7225 -1.1745
  171SOPE   C2419317   5.253   3.017   6.834 -0.1976  0.0875  0.3616
  171SOPE   H4R19318   5.310   2.968   6.916  1.2935  0.4579 -0.4097
  171SOPE   H4S19319   5.329   3.091   6.800  3.0607 -4.1247 -2.6787
  171SOPE   C2519320   5.129   3.073   6.897  0.0903 -0.1888 -0.6415
  171SOPE   H5R19321   5.146   3.146   6.980  0.9180 -1.4542  0.3392
  171SOPE   H5S19322   5.073   3.121   6.814 -0.4230 -0.3673 -0.3996
  171SOPE   C2619323   5.037   2.971   6.978 -0.8215  0.3592  0.4159
  171SOPE   H6R19324   5.015   2.897   6.898  0.9602 -2.0516  2.0179
  171SOPE   H6S19325   5.079   2.928   7.071 -1.6445  2.0824  1.6458
  171SOPE   C2719326   4.903   3.032   7.015 -0.9843 -0.1253  0.1506
  171SOPE   H7R19327   4.872   3.084   6.922  0.2897 -0.6639 -0.6104
  171SOPE   H7S19328   4.815   2.966   7.029 -0.5574 -1.5197 -2.9964
  171SOPE   C2819329   4.904   3.121   7.139  0.5192  0.2900 -0.0681
  171SOPE   H8R19330   4.979   3.198   7.115 -0.2235  1.2029  0.4637
  171SOPE   H8S19331   4.798   3.156   7.145  0.5285  0.3791 -0.4551
  171SOPE   C2919332   4.941   3.053   7.267 -0.4236 -0.7816 -0.1353
  171SOPE   H9119333   5.050   3.046   7.280 -0.6149 -3.9339  0.5496
  171SOPE  C21019334   4.854   2.993   7.344  0.6808  1.1007 -0.5018
  171SOPE  H10119335   4.887   2.950   7.440 -0.7470 -1.1130 -0.9368
  171SOPE  C21119336   4.701   2.979   7.330  0.2205 -0.4130 -0.0849
  171SOPE  H11R19337   4.670   2.874   7.349  0.5612 -0.4583  0.2483
  171SOPE  H11S19338   4.664   3.007   7.230  1.8741  2.3831 -0.0231
  171SOPE  C21219339   4.625   3.062   7.438 -0.0473  0.3037  1.0765
  171SOPE  H12R19340   4.523   3.033   7.406  0.5705  1.3943 -2.2794
  171SOPE  H12S19341   4.627   3.170   7.410  2.4352 -0.7729 -4.0275
  171SOPE  C21319342   4.649   3.011   7.579 -0.3955  0.4116  0.4346
  171SOPE  H13R19343   4.745   3.054   7.616  0.8592  0.9014 -2.9895
  171SOPE  H13S19344   4.677   2.904   7.574  0.5617  0.5930  1.3870
  171SOPE  C21419345   4.535   3.041   7.676 -0.3819 -0.2040 -0.7417
  171SOPE  H14R19346   4.445   2.996   7.628 -0.9502  0.1817 -0.0530
  171SOPE  H14S19347   4.508   3.149   7.682 -3.3076 -0.8661 -0.1604
  171SOPE  C21519348   4.554   2.969   7.808  0.0668  0.2157 -0.3864
  171SOPE  H15R19349   4.615   3.038   7.871 -0.3854  0.1587  0.1137
  171SOPE  H15S19350   4.602   2.869   7.797  0.3310  0.3926 -0.9253
  171SOPE  C21619351   4.423   2.935   7.871  0.6168 -0.6675 -0.0001
  171SOPE  H16R19352   4.346   2.998   7.823 -0.9378 -1.3361  1.5196
  171SOPE  H16S19353   4.431   2.956   7.980  1.3798  0.9523 -0.3501
  171SOPE  C21719354   4.382   2.790   7.867 -0.2129  0.0808  0.0075
  171SOPE  H17R19355   4.463   2.732   7.917  1.8726  1.4280 -1.6221
  171SOPE  H17S19356   4.351   2.765   7.764 -0.1336  0.9646 -0.2393
  171SOPE  C21819357   4.247   2.776   7.949  0.0908 -0.3311 -0.3957
  171SOPE  H18R19358   4.204   2.675   7.931  1.2723 -1.2199  1.4762
  171SOPE  H18S19359   4.174   2.853   7.917 -0.9171 -1.8068 -1.7891
  171SOPE  H18T19360   4.267   2.791   8.057 -0.7517  0.6330 -0.3655
  171SOPE   C3319361   5.701   2.537   6.937  0.1394 -0.1249 -0.6104
  171SOPE   H3X19362   5.725   2.645   6.928  0.2089 -0.0798  0.0704
  171SOPE   H3Y19363   5.799   2.488   6.953 -0.4367 -1.7686 -1.7914
  171SOPE   C3419364   5.611   2.538   7.061  0.1138 -0.4268  1.0349
  171SOPE   H4X19365   5.546   2.448   7.060  1.4136 -1.5564 -3.1470
  171SOPE   H4Y19366   5.540   2.621   7.043  0.0985 -1.0165 -2.3287
  171SOPE   C3519367   5.684   2.565   7.193 -0.4999 -0.3012  0.5894
  171SOPE   H5X19368   5.733   2.664   7.182 -0.3894 -0.4239 -0.0548
  171SOPE   H5Y19369   5.753   2.478   7.200  0.8792  0.6432 -0.7077
  171SOPE   C3619370   5.588   2.551   7.313  0.1280  1.0306  0.1646
  171SOPE   H6X19371   5.542   2.449   7.309  2.9380 -0.3101 -0.9258
  171SOPE   H6Y19372   5.511   2.630   7.296  0.2571  1.3136  0.8736
  171SOPE   C3719373   5.650   2.565   7.458 -0.4690 -0.7593  0.7668
  171SOPE   H7X19374   5.706   2.661   7.467 -0.9454 -0.5132  1.1679
  171SOPE   H7Y19375   5.725   2.484   7.469  0.3728 -0.1548 -0.3002
  171SOPE   C3819376   5.545   2.557   7.569  0.5134 -0.0541 -0.5678
  171SOPE   H8X19377   5.467   2.478   7.556 -0.6285  1.3150 -2.6461
  171SOPE   H8Y19378   5.482   2.649   7.567  2.5324  1.4283  0.6664
  171SOPE   C3919379   5.605   2.548   7.709 -0.0838  0.5731 -0.0922
  171SOPE   H9X19380   5.667   2.636   7.738 -0.3190  0.2757  1.3813
  171SOPE   H9Y19381   5.669   2.458   7.720 -0.0064  0.7460  0.9663
  171SOPE  C31019382   5.502   2.535   7.819 -0.0227 -0.4078 -0.5153
  171SOPE  H10X19383   5.485   2.425   7.822 -1.0398 -0.2667 -0.8784
  171SOPE  H10Y19384   5.407   2.581   7.785  0.5157  0.9792 -0.2066
  171SOPE  C31119385   5.534   2.596   7.954  0.5312  0.2624 -0.7751
  171SOPE  H11X19386   5.453   2.586   8.029  0.1258 -0.1463 -1.2623
  171SOPE  H11Y19387   5.542   2.707   7.953  1.0945  0.2678  0.8627
  171SOPE  C31219388   5.669   2.553   8.020  0.2022  0.0320  0.0229
  171SOPE  H12X19389   5.758   2.560   7.954 -0.4610 -1.1130 -1.0287
  171SOPE  H12Y19390   5.658   2.445   8.042 -0.6552 -0.2449 -1.6617
  171SOPE  C31319391   5.702   2.618   8.161 -0.0060  0.4544 -0.6204
  171SOPE  H13X19392   5.682   2.727   8.154 -1.1244  0.6137  2.8670
  171SOPE  H13Y19393   5.808   2.600   8.188 -0.4335 -2.2149 -0.3706
  171SOPE  C31419394   5.613   2.548   8.271  0.2668 -0.2121 -0.1191
  171SOPE  H14X19395   5.646   2.443   8.283  0.5464  0.0788  2.1232
  171SOPE  H14Y19396   5.508   2.555   8.235  1.0230 -0.0395 -2.4665
  171SOPE  C31519397   5.613   2.616   8.409 -0.4393  0.3902  0.5869
  171SOPE  H15X19398   5.717   2.618   8.446 -0.0983  2.0998 -0.3690
  171SOPE  H15Y19399   5.552   2.556   8.480 -2.5949  1.6639 -0.0948
  171SOPE  C31619400   5.568   2.764   8.417 -0.3925 -0.0931 -0.1320
  171SOPE  H16X19401   5.638   2.832   8.365 -0.8416  0.7794  0.3770
  171SOPE  H16Y19402   5.578   2.781   8.526  2.1749  0.8444 -0.4511
  171SOPE  C31719403   5.430   2.787   8.363 -0.0232 -0.3395 -0.7447
  171SOPE  H17X19404   5.373   2.703   8.407 -0.5479  0.4818  0.1847
  171SOPE  H17Y19405   5.434   2.779   8.253 -0.4009 -2.2775 -0.6446
  171SOPE  C31819406   5.375   2.927   8.395  0.1767 -0.4842 -0.4739
  171SOPE  H18X19407   5.430   2.991   8.324 -0.1195 -1.7482 -1.8910
  171SOPE  H18Y19408   5.397   2.949   8.502 -2.4314  1.0441 -0.1797
  171SOPE  H18Z19409   5.267   2.937   8.371 -0.0930 -0.8196  0.5572
  172SOPE     N19410   5.140   4.711   6.441 -0.1487 -0.6027  0.0862
  172SOPE   HN119411   5.190   4.628   6.404  1.8305  0.0408  1.2000
  172SOPE   HN219412   5.133   4.699   6.545  1.1826 -1.6123  0.0950
  172SOPE   HN319413   5.040   4.707   6.412 -0.0175 -0.3794 -0.3964
  172SOPE   C1219414   5.204   4.842   6.406  0.3892  0.5452  0.5738
  172SOPE  H12A19415   5.180   4.910   6.490 -2.1248  2.1279 -1.2637
  172SOPE  H12B19416   5.159   4.874   6.309  0.1788 -0.1991  0.4191
  172SOPE   C1119417   5.355   4.816   6.387 -0.5061 -0.2669 -0.0414
  172SOPE  H11A19418   5.408   4.908   6.353  0.5588 -0.9282 -0.2371
  172SOPE  H11B19419   5.361   4.744   6.303 -1.2702 -0.2946 -0.0717
  172SOPE     P19420   5.563   4.720   6.510  0.1942  0.0619  0.0798
  172SOPE   O1319421   5.616   4.805   6.618  0.4465 -0.2334 -0.3707
  172SOPE   O1419422   5.615   4.733   6.373  0.4073  0.0158  0.2780
  172SOPE   O1219423   5.411   4.755   6.505  0.0956  0.1373 -0.0543
  172SOPE   O1119424   5.565   4.564   6.550  0.0377  0.4474  0.1649
  172SOPE    C119425   5.467   4.527   6.641 -0.0086  0.3191 -0.5848
  172SOPE    HA19426   5.461   4.417   6.633 -1.4493  0.2772  0.5752
  172SOPE    HB19427   5.367   4.574   6.625 -0.3615 -0.4809 -0.7940
  172SOPE    C219428   5.510   4.557   6.788 -0.0154  0.6927 -0.1638
  172SOPE    HS19429   5.511   4.668   6.784  0.8486  0.6873 -0.2808
  172SOPE   O2119430   5.642   4.500   6.809  0.8626 -0.2234  0.0104
  172SOPE   C2119431   5.719   4.562   6.887 -0.8333  0.3692  0.0664
  172SOPE   O2219432   5.693   4.662   6.955 -0.2830  0.4633  0.5598
  172SOPE   C2219433   5.852   4.487   6.887  0.1694 -0.1508  0.2063
  172SOPE   H2R19434   5.906   4.488   6.790 -0.4031  0.0505 -0.1145
  172SOPE   H2S19435   5.829   4.380   6.907 -0.5730 -0.2030 -0.8613
  172SOPE    C319436   5.393   4.496   6.884 -0.6341 -0.6968 -0.2674
  172SOPE    HX19437   5.403   4.390   6.851  0.5919  0.0482 -2.5386
  172SOPE    HY19438   5.298   4.545   6.857 -0.1259  1.2271  1.2562
  172SOPE   O3119439   5.421   4.510   7.023  0.6571 -0.0227 -0.2343
  172SOPE   C3119440   5.409   4.640   7.070 -0.2131 -0.3563 -0.5760
  172SOPE   O3219441   5.363   4.732   7.010  0.3560  0.8630 -0.3388
  172SOPE   C3219442   5.463   4.641   7.220  0.2231 -0.4555 -0.4699
  172SOPE   H2X19443   5.569   4.609   7.213  0.0630 -0.9878 -0.4327
  172SOPE   H2Y19444   5.398   4.571   7.277  2.0154 -0.3360  1.8827
  172SOPE   C2319445   5.947   4.531   6.999 -0.1016 -0.6240 -0.5930
  172SOPE   H3R19446   5.955   4.642   7.001  0.6496 -0.6798  1.2557
  172SOPE   H3S19447   6.050   4.496   6.977 -0.0216 -1.6090  1.1571
  172SOPE   C2419448   5.892   4.486   7.139 -0.1002  0.6410  0.7561
  172SOPE   H4R19449   5.790   4.531   7.142 -0.5450 -0.0478 -1.7884
  172SOPE   H4S19450   5.873   4.377   7.136 -0.9391  0.7553  1.3936
  172SOPE   C2519451   5.988   4.526   7.253  0.3578  0.3617 -0.8967
  172SOPE   H5R19452   6.093   4.501   7.229  1.3161  0.0955  2.9529
  172SOPE   H5S19453   5.983   4.637   7.253 -0.4611  0.3350 -1.0423
  172SOPE   C2619454   5.943   4.461   7.393  0.4566  0.6018  0.3024
  172SOPE   H6R19455   5.964   4.353   7.380  1.2198  0.9068 -1.3341
  172SOPE   H6S19456   6.016   4.503   7.465  0.4775  2.8386 -0.9395
  172SOPE   C2719457   5.802   4.490   7.441 -0.5923 -0.2620 -0.5374
  172SOPE   H7R19458   5.787   4.600   7.439 -3.2554 -0.5774 -1.4410
  172SOPE   H7S19459   5.732   4.440   7.372 -1.3248 -0.5462  0.3923
  172SOPE   C2819460   5.769   4.450   7.590 -0.1820  0.7382  0.0484
  172SOPE   H8R19461   5.658   4.446   7.589 -0.2149 -3.5989 -0.6022
  172SOPE   H8S19462   5.797   4.343   7.598 -2.1324  0.3359  3.1769
  172SOPE   C2919463   5.813   4.539   7.704 -0.5106  0.7232  0.5429
  172SOPE   H9119464   5.775   4.641   7.689 -1.0537  0.4174 -0.2244
  172SOPE  C21019465   5.875   4.509   7.821  0.1638 -0.2522  0.8990
  172SOPE  H10119466   5.870   4.592   7.892 -2.8488  2.3604 -2.0119
  172SOPE  C21119467   5.924   4.379   7.876  0.3794 -0.0533 -0.2307
  172SOPE  H11R19468   6.035   4.386   7.887  0.1633  2.2880  1.0272
  172SOPE  H11S19469   5.897   4.305   7.798  0.0030  0.6958 -0.8132
  172SOPE  C21219470   5.868   4.336   8.011 -0.1838 -0.0341  0.0386
  172SOPE  H12R19471   5.908   4.237   8.041  0.8013  0.1460 -0.6532
  172SOPE  H12S19472   5.757   4.342   8.009 -0.1290  2.5564  0.3743
  172SOPE  C21319473   5.917   4.440   8.119 -0.0520  0.9362  0.0111
  172SOPE  H13R19474   5.876   4.543   8.111 -0.1799  0.9151  0.3584
  172SOPE  H13S19475   6.024   4.453   8.094  0.3511 -0.7896  0.7241
  172SOPE  C21419476   5.890   4.386   8.259 -0.5501 -0.1083 -0.5967
  172SOPE  H14R19477   5.932   4.283   8.260 -0.4071 -0.0533  0.1493
  172SOPE  H14S19478   5.782   4.389   8.284 -0.9006  2.2011 -2.1124
  172SOPE  C21519479   5.951   4.480   8.369 -0.5194  0.2783  0.3387
  172SOPE  H15R19480   5.923   4.588   8.368  1.8021  1.0427  3.2664
  172SOPE  H15S19481   6.059   4.474   8.342 -0.8777  1.5440 -1.6639
  172SOPE  C21619482   5.945   4.420   8.510  0.0464 -0.4953  0.3047
  172SOPE  H16R19483   6.009   4.330   8.520  0.8113  0.1731  1.7371
  172SOPE  H16S19484   5.838   4.395   8.529 -0.0822 -0.6498 -0.5846
  172SOPE  C21719485   5.993   4.504   8.630  0.3855  0.0526  0.1588
  172SOPE  H17R19486   5.993   4.437   8.718 -3.4960 -0.9781 -0.4214
  172SOPE  H17S19487   5.911   4.569   8.667 -0.7058 -1.5986  0.7512
  172SOPE  C21819488   6.117   4.582   8.607 -0.3450 -0.8062  0.6357
  172SOPE  H18R19489   6.205   4.535   8.557  0.9398  3.4155 -1.5447
  172SOPE  H18S19490   6.157   4.621   8.703 -1.1347  1.3892  0.1306
  172SOPE  H18T19491   6.093   4.664   8.537 -0.0103 -2.1595 -1.1467
  172SOPE   C3319492   5.469   4.785   7.281 -0.5589 -0.4787  0.2353
  172SOPE   H3X19493   5.362   4.816   7.292 -0.6110 -0.5482 -0.0615
  172SOPE   H3Y19494   5.520   4.838   7.198 -0.4119  0.6605  1.0291
  172SOPE   C3419495   5.531   4.799   7.416 -0.8135 -0.9444 -0.3900
  172SOPE   H4X19496   5.520   4.903   7.452 -0.6266 -1.0630  0.0164
  172SOPE   H4Y19497   5.639   4.779   7.399 -0.6731  0.3026 -1.1427
  172SOPE   C3519498   5.482   4.704   7.520 -0.3754 -0.0022 -0.6090
  172SOPE   H5X19499   5.540   4.609   7.516  1.6553  1.0757  1.1367
  172SOPE   H5Y19500   5.372   4.695   7.513 -0.4342 -0.0818  0.2419
  172SOPE   C3619501   5.519   4.756   7.660  0.2031  0.0050 -0.2690
  172SOPE   H6X19502   5.617   4.808   7.655  0.0026  0.5557  1.2228
  172SOPE   H6Y19503   5.539   4.667   7.724  2.7510  2.2608  2.3020
  172SOPE   C3719504   5.418   4.846   7.729  0.5739  0.1440 -0.1098
  172SOPE   H7X19505   5.328   4.781   7.729 -0.8900  2.0328 -1.8725
  172SOPE   H7Y19506   5.385   4.938   7.675  2.2315  0.8148 -0.0683
  172SOPE   C3819507   5.467   4.889   7.868  0.3285 -0.3385  0.5242
  172SOPE   H8X19508   5.393   4.951   7.922 -0.6116 -0.8768 -0.1100
  172SOPE   H8Y19509   5.543   4.968   7.849 -1.2106  0.8963 -0.7614
  172SOPE   C3919510   5.518   4.777   7.960  0.1118 -0.0688 -0.2125
  172SOPE   H9X19511   5.613   4.735   7.923 -1.6211 -2.1608 -2.6413
  172SOPE   H9Y19512   5.445   4.694   7.946  0.8699 -0.4816 -1.9343
  172SOPE  C31019513   5.522   4.813   8.111  0.8624 -0.4944  0.0545
  172SOPE  H10X19514   5.425   4.862   8.136  0.1912 -1.7979  0.0615
  172SOPE  H10Y19515   5.600   4.892   8.113 -0.8833  1.4144 -1.5025
  172SOPE  C31119516   5.541   4.694   8.209 -0.1395 -0.1091 -0.4027
  172SOPE  H11X19517   5.641   4.647   8.193  1.2341  2.7603 -0.8389
  172SOPE  H11Y19518   5.456   4.622   8.202 -2.2756  2.2837 -0.4405
  172SOPE  C31219519   5.546   4.731   8.361  0.5944  0.1667  1.0052
  172SOPE  H12X19520   5.443   4.768   8.377  0.7061 -0.1659  2.6559
  172SOPE  H12Y19521   5.615   4.817   8.374  1.8785 -0.6258 -0.1917
  172SOPE  C31319522   5.545   4.619   8.471 -0.8117  0.5887  0.3716
  172SOPE  H13X19523   5.601   4.533   8.428 -0.6330  1.9134 -2.2638
  172SOPE  H13Y19524   5.445   4.579   8.494  0.3015 -0.9470  2.9258
  172SOPE  C31419525   5.615   4.676   8.597  0.2482  0.2968 -0.0699
  172SOPE  H14X19526   5.567   4.770   8.632  0.3274  0.4805 -0.4543
  172SOPE  H14Y19527   5.716   4.686   8.553 -0.3918 -1.1447 -2.0519
  172SOPE  C31519528   5.627   4.596   8.717 -0.5212 -0.0115 -0.2520
  172SOPE  H15X19529   5.684   4.647   8.797  0.6357 -1.7664  0.0896
  172SOPE  H15Y19530   5.687   4.510   8.680 -2.9330 -1.6430 -0.5918
  172SOPE  C31619531   5.493   4.550   8.761 -0.5890 -0.0214  0.2629
  172SOPE  H16X19532   5.442   4.502   8.675  0.0705  0.8431 -0.6344
  172SOPE  H16Y19533   5.437   4.636   8.802  0.3357  0.0429  1.4677
  172SOPE  C31719534   5.517   4.437   8.865  0.6425  0.3392  0.6636
  172SOPE  H17X19535   5.603   4.371   8.838 -1.3391 -0.8924 -3.4606
  172SOPE  H17Y19536   5.431   4.368   8.852  2.7508 -2.2969 -0.0481
  172SOPE  C31819537   5.531   4.489   9.011  0.4574  0.4200  0.2708
  172SOPE  H18X19538   5.574   4.405   9.070 -1.5974 -1.9273 -1.4010
  172SOPE  H18Y19539   5.433   4.519   9.055  0.5032  1.2667 -0.1945
  172SOPE  H18Z19540   5.602   4.574   9.008 -0.4413  1.1415 -1.3902
  173SAPI   C1219541   6.683   1.752  10.882 -0.1784 -0.2613  0.7355
  173SAPI    H219542   6.667   1.833  10.808 -0.4316  0.9535  2.0781
  173SAPI    O219543   6.794   1.686  10.821 -0.9636  0.0741 -0.0056
  173SAPI   HO219544   6.759   1.628  10.753  0.5230  1.8786 -2.4512
  173SAPI   C1319545   6.719   1.813  11.019 -0.3814  0.2162  1.0835
  173SAPI    H319546   6.628   1.856  11.067 -1.3079 -1.2098  0.6696
  173SAPI    O319547   6.812   1.921  11.005  0.0060 -0.1260 -0.3542
  173SAPI   HO319548   6.900   1.895  10.977  0.4672  0.6918  0.2853
  173SAPI   C1419549   6.765   1.699  11.108 -0.8689 -0.3231  0.0111
  173SAPI    H419550   6.858   1.658  11.063 -0.6695  0.1502 -0.0143
  173SAPI    O419551   6.800   1.749  11.236  0.3627 -0.1727  0.4288
  173SAPI   HO419552   6.857   1.826  11.236  1.4320 -0.9497  0.3020
  173SAPI   C1519553   6.660   1.589  11.127  0.2636  0.1638  0.3958
  173SAPI    H519554   6.573   1.645  11.167  1.4297  0.1103  3.2712
  173SAPI    O519555   6.692   1.487  11.216  0.2990 -0.3798  0.5233
  173SAPI   HO519556   6.767   1.518  11.267  1.8885 -2.4899 -0.3463
  173SAPI   C1619557   6.623   1.537  10.990  0.3895  0.4572 -0.4380
  173SAPI    H619558   6.706   1.487  10.935  2.9762  0.7851  2.8343
  173SAPI    O619559   6.519   1.442  11.001  0.2539 -0.0209  0.4051
  173SAPI   HO619560   6.553   1.358  10.971 -1.5194 -0.5635 -0.1708
  173SAPI   C1119561   6.571   1.654  10.905 -0.2266 -0.4020 -0.7796
  173SAPI    H119562   6.501   1.712  10.970  1.8403  1.3178  0.0154
  173SAPI     P19563   6.363   1.660  10.728  0.2048 -0.2884  0.1574
  173SAPI   O1319564   6.290   1.696  10.850 -0.1075  0.5826 -0.6033
  173SAPI   O1419565   6.313   1.546  10.648  0.4437 -0.2792  0.3561
  173SAPI   O1219566   6.513   1.624  10.775 -0.5039 -0.6630 -0.8511
  173SAPI   O1119567   6.387   1.794  10.653 -0.1500  0.1679  0.1599
  173SAPI    C119568   6.492   1.800  10.550 -0.8286 -0.2578 -0.5018
  173SAPI    HA19569   6.508   1.903  10.511  2.0259 -1.3053 -2.3569
  173SAPI    HB19570   6.588   1.763  10.591 -0.0912  1.5325 -0.5102
  173SAPI    C219571   6.452   1.718  10.419  0.1728 -0.1869 -0.1050
  173SAPI    HS19572   6.403   1.623  10.446 -0.7226 -1.0662 -4.0840
  173SAPI   O2119573   6.576   1.699  10.335 -0.4418  0.2640 -0.3861
  173SAPI   C2119574   6.591   1.574  10.300 -0.1870 -0.0364  0.2913
  173SAPI   O2219575   6.516   1.480  10.315 -0.3910 -0.4461  0.3929
  173SAPI   C2219576   6.714   1.562  10.215  0.1231 -0.7258  0.1330
  173SAPI   H2R19577   6.707   1.640  10.136 -0.4240 -0.4565  0.4505
  173SAPI   H2S19578   6.801   1.583  10.281  0.7126 -2.4760 -0.0319
  173SAPI    C319579   6.349   1.794  10.332  0.2426 -0.4815  0.2999
  173SAPI    HX19580   6.366   1.903  10.342 -1.4443 -0.0526 -1.1310
  173SAPI    HY19581   6.248   1.774  10.373  0.2799 -0.1314  0.5649
  173SAPI   O3119582   6.350   1.766  10.186  0.5522  0.0634  0.8975
  173SAPI   C3119583   6.270   1.664  10.143  0.0918 -0.7457  0.0822
  173SAPI   O3219584   6.183   1.615  10.215 -0.1144 -0.1674  0.0102
  173SAPI   C3219585   6.322   1.603  10.018  0.4591 -0.1229  0.7150
  173SAPI   H2X19586   6.420   1.557  10.042  0.6692  0.0047  0.1093
  173SAPI   H2Y19587   6.343   1.688   9.949  0.6691  0.2932  1.2857
  173SAPI   C2319588   6.728   1.419  10.149 -0.3882 -1.2404  0.6804
  173SAPI   H3R19589   6.644   1.412  10.076 -0.6227  2.0408  0.4788
  173SAPI   H3S19590   6.717   1.342  10.228  1.6993 -0.6754  1.5976
  173SAPI   C2419591   6.858   1.399  10.072 -0.5451  0.0765 -0.3278
  173SAPI   H4R19592   6.953   1.412  10.129  0.6436 -1.5979 -1.8248
  173SAPI   H4S19593   6.868   1.484  10.001 -2.4623  0.0423 -0.6879
  173SAPI   C2519594   6.878   1.276   9.985 -0.3821 -0.5606 -0.4765
  173SAPI   H5R19595   6.865   1.187  10.048  0.4021 -0.5311 -0.2574
  173SAPI   C2619596   6.887   1.267   9.853 -0.1402 -0.1021  0.4826
  173SAPI   H6R19597   6.905   1.163   9.820  0.1855  0.1220 -0.0767
  173SAPI   C2719598   6.888   1.384   9.756 -0.0095  0.5657 -0.2093
  173SAPI   H7R19599   6.968   1.458   9.778 -1.3775  2.4282 -1.1856
  173SAPI   H7S19600   6.794   1.438   9.777  0.4487  0.5005  2.2259
  173SAPI   C2819601   6.909   1.344   9.615 -0.1531 -0.5027  0.1339
  173SAPI   H8R19602   7.014   1.324   9.589 -0.4560 -1.5308 -0.3209
  173SAPI   C2919603   6.808   1.341   9.529  0.3076  0.1208 -0.3248
  173SAPI   H9R19604   6.829   1.311   9.426 -0.9617 -1.7169 -0.1020
  173SAPI  C21019605   6.663   1.376   9.561  0.3604  0.5104  0.1196
  173SAPI  H10R19606   6.655   1.468   9.623  1.5582  0.2981  0.6105
  173SAPI  H10S19607   6.635   1.293   9.629 -0.0642  0.2199 -0.4063
  173SAPI  C21119608   6.563   1.387   9.444 -0.1070 -0.5863 -0.5186
  173SAPI  H11R19609   6.558   1.489   9.402  1.6843  0.5230  1.7375
  173SAPI  C21219610   6.486   1.290   9.388  0.5853 -1.2093 -0.3524
  173SAPI  H12R19611   6.427   1.308   9.297 -0.5776  0.2264  0.6411
  173SAPI  C21319612   6.479   1.148   9.431  0.3168  0.0077 -0.6892
  173SAPI  H13R19613   6.566   1.123   9.496 -1.5003 -0.4697  1.6897
  173SAPI  H13S19614   6.498   1.082   9.344 -0.6060 -1.8789  0.4761
  173SAPI  C21419615   6.357   1.122   9.498 -0.8186 -0.1017  0.4336
  173SAPI  H14R19616   6.264   1.119   9.439  0.2112  1.2673 -1.3353
  173SAPI  C21519617   6.344   1.089   9.630 -0.3594  0.2448  0.5470
  173SAPI  H15R19618   6.244   1.060   9.668 -0.4259  1.1989  1.1190
  173SAPI  C21619619   6.448   1.077   9.741 -0.1309  0.2494  0.8179
  173SAPI  H16R19620   6.409   1.114   9.838  0.0993  0.4264  0.8426
  173SAPI  H16S19621   6.527   1.152   9.720 -0.9575  0.7756 -0.5374
  173SAPI  C21719622   6.495   0.936   9.772  0.3160  0.4364 -0.1079
  173SAPI  H17R19623   6.581   0.910   9.707  1.3873 -2.3034  2.2044
  173SAPI  H17S19624   6.416   0.859   9.758  0.5764 -0.4566  2.6446
  173SAPI  C21819625   6.535   0.917   9.923  0.6221 -0.4341  0.3454
  173SAPI  H18R19626   6.568   0.811   9.917  1.3773 -0.1651 -0.6313
  173SAPI  H18S19627   6.451   0.937   9.993  1.1467 -1.0085  1.1476
  173SAPI  C21919628   6.641   1.002   9.974 -0.4979  0.4484 -0.0999
  173SAPI  H19R19629   6.607   1.108   9.976 -0.2193  0.5259  0.6953
  173SAPI  H19S19630   6.737   0.990   9.919 -1.2888  1.1787 -1.7213
  173SAPI  C22019631   6.673   0.970  10.122  0.3531 -0.4012 -0.6079
  173SAPI  H20R19632   6.597   0.997  10.198 -0.4008  2.8007 -2.3432
  173SAPI  H20S19633   6.772   1.014  10.148  0.7794 -1.4696 -0.3344
  173SAPI  H20T19634   6.695   0.861  10.134 -1.0275 -0.7964 -1.4184
  173SAPI   C3319635   6.233   1.493   9.953  0.0816 -0.4339 -0.4782
  173SAPI   H3X19636   6.136   1.532   9.916 -1.3927 -2.3900  1.1234
  173SAPI   H3Y19637   6.211   1.416  10.030  0.3635  1.6736  1.8772
  173SAPI   C3419638   6.303   1.427   9.833  1.1961  0.0082 -0.8095
  173SAPI   H4X19639   6.243   1.336   9.810 -1.4015  1.4294 -0.0214
  173SAPI   H4Y19640   6.401   1.399   9.878  0.4278  1.4489  1.9256
  173SAPI   C3519641   6.332   1.517   9.716  0.2100 -0.3175  0.4482
  173SAPI   H5X19642   6.376   1.465   9.628  0.2210  3.0820 -1.7731
  173SAPI   H5Y19643   6.401   1.595   9.754  3.2398 -2.7827  0.3104
  173SAPI   C3619644   6.201   1.583   9.657 -0.0146 -0.1754  0.1717
  173SAPI   H6X19645   6.180   1.679   9.709 -1.1921 -0.6352  0.5950
  173SAPI   H6Y19646   6.118   1.514   9.685 -0.5577  0.6523  0.6789
  173SAPI   C3719647   6.194   1.587   9.499 -0.2623 -0.5327  0.7082
  173SAPI   H7X19648   6.087   1.599   9.472  0.3244 -1.2467 -2.2843
  173SAPI   H7Y19649   6.233   1.494   9.454 -0.5707 -0.5273  0.4223
  173SAPI   C3819650   6.282   1.702   9.450  0.3698 -0.6582  0.0967
  173SAPI   H8X19651   6.379   1.686   9.501  0.7120  1.3054  0.1477
  173SAPI   H8Y19652   6.245   1.798   9.492  1.9779 -0.3551  0.8966
  173SAPI   C3919653   6.291   1.712   9.303  0.2864 -0.5676  0.3875
  173SAPI   H9X19654   6.192   1.713   9.251  0.3845 -0.0897  0.2059
  173SAPI   H9Y19655   6.352   1.622   9.279 -1.1054 -1.3931 -0.1833
  173SAPI  C31019656   6.378   1.838   9.262 -0.2358  0.3811  0.5152
  173SAPI  H10X19657   6.476   1.833   9.312  0.4725  1.9422 -0.6371
  173SAPI  H10Y19658   6.338   1.938   9.288  2.1657  2.1307 -1.9076
  173SAPI  C31119659   6.422   1.834   9.115  0.1649  0.2930  0.5486
  173SAPI  H11X19660   6.333   1.814   9.051  0.1194 -1.8054  1.1752
  173SAPI  H11Y19661   6.490   1.747   9.107 -1.1233 -0.7337  0.3743
  173SAPI  C31219662   6.485   1.969   9.064  0.8378  0.2428 -0.1796
  173SAPI  H12X19663   6.587   1.983   9.107  0.7040  1.7486 -0.2867
  173SAPI  H12Y19664   6.432   2.056   9.110  0.7279 -0.0975  0.3459
  173SAPI  C31319665   6.468   1.990   8.910  0.3572 -0.0185 -0.3069
  173SAPI  H13X19666   6.374   1.952   8.864  0.4795 -1.5696  0.6615
  173SAPI  H13Y19667   6.546   1.921   8.871  0.0630 -0.9878  0.7610
  173SAPI  C31419668   6.484   2.130   8.855 -1.0528 -0.0826 -0.6638
  173SAPI  H14X19669   6.561   2.195   8.902 -0.9564  0.6273 -1.7679
  173SAPI  H14Y19670   6.396   2.193   8.883  0.5296  2.5843 -1.3426
  173SAPI  C31519671   6.484   2.143   8.698 -0.8773  0.0288 -0.2243
  173SAPI  H15X19672   6.486   2.252   8.673  1.0388 -0.0544 -0.5645
  173SAPI  H15Y19673   6.385   2.099   8.673 -2.0361  0.8572  2.5061
  173SAPI  C31619674   6.602   2.074   8.634  0.5254 -0.3878 -0.4317
  173SAPI  H16X19675   6.589   1.972   8.677  0.2981  0.5042  1.7414
  173SAPI  H16Y19676   6.697   2.118   8.671 -0.8398  0.3835  2.4693
  173SAPI  C31719677   6.589   2.048   8.480  0.0092 -0.3701 -0.0502
  173SAPI  H17X19678   6.614   2.145   8.432 -1.7217  0.3729  0.4605
  173SAPI  H17Y19679   6.480   2.034   8.459 -0.2410 -2.9661  2.3082
  173SAPI  C31819680   6.682   1.945   8.424 -0.3215  0.0052  0.0066
  173SAPI  H18X19681   6.685   1.948   8.313  0.8678  1.8430  0.0454
  173SAPI  H18Y19682   6.663   1.842   8.460 -2.7845  0.2116 -0.5200
  173SAPI  H18Z19683   6.783   1.976   8.460 -0.7709 -0.0626  1.3975
  174SAPI   C1219684   4.053   3.690  11.090  0.1255  0.4588 -0.1354
  174SAPI    H219685   4.002   3.753  11.013 -0.3142  0.1530 -0.0981
  174SAPI    O219686   4.196   3.696  11.063 -0.7625 -0.1692  0.1934
  174SAPI   HO219687   4.209   3.706  10.968  0.5109 -4.3022 -0.2617
  174SAPI   C1319688   4.016   3.738  11.233 -0.6520 -1.2246  0.4795
  174SAPI    H319689   3.905   3.734  11.232 -0.9091  1.8328 -2.7176
  174SAPI    O319690   4.064   3.876  11.248 -0.1178  0.7043 -0.2570
  174SAPI   HO319691   4.151   3.876  11.287 -1.3030 -1.0134  2.7603
  174SAPI   C1419692   4.077   3.649  11.336  1.0938  0.3596 -0.1955
  174SAPI    H419693   4.187   3.655  11.325  1.1388 -0.0644  0.0001
  174SAPI    O419694   4.059   3.696  11.467  0.2313 -0.1292 -0.7711
  174SAPI   HO419695   4.140   3.689  11.519 -0.1434  0.9261 -0.0009
  174SAPI   C1519696   4.022   3.500  11.312  0.2498 -0.5533  0.2063
  174SAPI    H519697   3.913   3.499  11.334  0.4948 -1.9695  1.5414
  174SAPI    O519698   4.069   3.409  11.407 -0.1780 -0.0996 -0.0874
  174SAPI   HO519699   4.032   3.429  11.493 -1.3286 -0.9847 -0.3431
  174SAPI   C1619700   4.054   3.459  11.170  0.6561 -0.7898 -0.0646
  174SAPI    H619701   4.165   3.459  11.161  0.8301  1.8877  0.9760
  174SAPI    O619702   4.015   3.326  11.142  0.2721  0.3477  0.0419
  174SAPI   HO619703   3.954   3.329  11.068 -1.3035 -0.3535  1.2327
  174SAPI   C1119704   4.000   3.551  11.068  0.7450 -0.5252  0.4352
  174SAPI    H119705   3.889   3.558  11.074  0.5967 -0.3546 -1.6963
  174SAPI     P19706   3.910   3.440  10.842  0.2127 -0.1757  0.1120
  174SAPI   O1319707   3.839   3.352  10.939 -0.0935  0.3570 -0.3949
  174SAPI   O1419708   3.963   3.371  10.719  0.5900  0.4435 -0.9887
  174SAPI   O1219709   4.022   3.515  10.932 -0.0142  0.3327  0.3802
  174SAPI   O1119710   3.808   3.561  10.801  1.0506 -0.3627  0.1869
  174SAPI    C119711   3.866   3.690  10.750 -0.1983 -0.8532  0.6974
  174SAPI    HA19712   3.860   3.760  10.836  0.7245  0.4784 -0.2756
  174SAPI    HB19713   3.973   3.689  10.722 -0.9313  0.4309 -2.7121
  174SAPI    C219714   3.781   3.750  10.633  0.2165  0.6782 -0.3508
  174SAPI    HS19715   3.677   3.766  10.669  0.1283  1.2278 -0.8399
  174SAPI   O2119716   3.787   3.651  10.532  0.0203  0.1821  1.2198
  174SAPI   C2119717   3.691   3.551  10.537 -0.5849 -0.0472  0.5765
  174SAPI   O2219718   3.596   3.552  10.614 -0.3420  0.1330  0.7708
  174SAPI   C2219719   3.729   3.442  10.440 -0.1196 -0.3906  0.3769
  174SAPI   H2R19720   3.828   3.402  10.472 -0.7437 -0.4824  2.3524
  174SAPI   H2S19721   3.660   3.355  10.442 -1.0765  0.2809 -1.4490
  174SAPI    C319722   3.829   3.880  10.582 -0.2522 -0.0402 -0.1855
  174SAPI    HX19723   3.937   3.859  10.565  0.2295  1.3137  0.9605
  174SAPI    HY19724   3.801   3.945  10.668 -1.5951  0.9761 -1.3429
  174SAPI   O3119725   3.758   3.919  10.467 -0.5832 -0.1649 -0.0771
  174SAPI   C3119726   3.824   3.985  10.375  0.2714  0.3239  0.1350
  174SAPI   O3219727   3.932   4.036  10.384  0.4178 -0.2207 -0.8272
  174SAPI   C3219728   3.741   3.993  10.246 -0.2184 -0.1880  1.1572
  174SAPI   H2X19729   3.636   3.964  10.271  0.1361 -0.9532  1.8028
  174SAPI   H2Y19730   3.781   3.914  10.180 -1.8070 -0.0814  0.0127
  174SAPI   C2319731   3.736   3.495  10.291 -0.4677 -0.5244  0.1498
  174SAPI   H3R19732   3.807   3.429  10.235 -0.0732 -1.3432  1.5503
  174SAPI   H3S19733   3.769   3.599  10.273 -1.1064 -0.3516 -0.0452
  174SAPI   C2419734   3.610   3.493  10.199 -0.2848 -0.7806  1.0912
  174SAPI   H4R19735   3.563   3.393  10.196  1.8747 -1.8307  0.3575
  174SAPI   H4S19736   3.646   3.494  10.094 -1.0860  0.7640  0.7971
  174SAPI   C2519737   3.510   3.608  10.239 -0.8061  0.5618  0.2029
  174SAPI   H5R19738   3.500   3.634  10.346 -1.9008  1.5020 -0.1082
  174SAPI   C2619739   3.446   3.685  10.153 -0.2760 -0.3207  0.1904
  174SAPI   H6R19740   3.381   3.767  10.185  1.7428  0.5806  2.3310
  174SAPI   C2719741   3.450   3.672  10.004  0.2053  0.0775 -0.2098
  174SAPI   H7R19742   3.404   3.576   9.972 -1.0369  0.1882  1.1302
  174SAPI   H7S19743   3.555   3.666   9.967 -0.1050 -1.8530 -0.8685
  174SAPI   C2819744   3.404   3.792   9.931  0.2353 -0.6864  1.0668
  174SAPI   H8R19745   3.433   3.887   9.978  1.9533 -1.4410  1.6157
  174SAPI   C2919746   3.336   3.788   9.814 -0.6859 -0.0101  0.0678
  174SAPI   H9R19747   3.310   3.879   9.758  1.1017  0.2373 -0.4380
  174SAPI  C21019748   3.298   3.662   9.743 -0.3255 -0.1132  0.2864
  174SAPI  H10R19749   3.225   3.688   9.663  2.6916  1.0120 -2.3329
  174SAPI  H10S19750   3.241   3.600   9.816 -0.9895 -1.1007 -1.0212
  174SAPI  C21119751   3.405   3.562   9.681 -0.2265 -0.4757  0.0489
  174SAPI  H11R19752   3.488   3.542   9.750  0.7980  3.4859  0.1853
  174SAPI  C21219753   3.420   3.531   9.556 -0.1516 -0.1194  1.6395
  174SAPI  H12R19754   3.506   3.472   9.520 -0.1601  0.8630 -0.0910
  174SAPI  C21319755   3.328   3.585   9.446 -0.7256  0.0218 -0.3233
  174SAPI  H13R19756   3.220   3.583   9.472 -0.6422 -0.0804  0.0137
  174SAPI  H13S19757   3.323   3.512   9.362  0.9552  0.5848 -0.9636
  174SAPI  C21419758   3.381   3.712   9.384  0.1690 -0.3685  0.0626
  174SAPI  H14R19759   3.416   3.787   9.456  1.9997 -0.0699 -1.0684
  174SAPI  C21519760   3.407   3.729   9.250 -0.1597  0.4438 -1.2570
  174SAPI  H15R19761   3.466   3.818   9.223  0.5228  1.1887  2.1984
  174SAPI  C21619762   3.400   3.639   9.131 -0.4688  0.5499  0.4995
  174SAPI  H16R19763   3.364   3.534   9.138 -2.1267  1.1624  1.5823
  174SAPI  H16S19764   3.503   3.618   9.095 -1.1927 -2.2401 -0.2114
  174SAPI  C21719765   3.321   3.702   9.013 -0.3738  0.0114  0.5233
  174SAPI  H17R19766   3.377   3.786   8.967  1.0450 -0.3016  1.5954
  174SAPI  H17S19767   3.217   3.735   9.037 -0.5044 -0.2336  0.2960
  174SAPI  C21819768   3.310   3.599   8.895 -0.2242  0.8696 -0.0392
  174SAPI  H18R19769   3.217   3.544   8.919 -1.7264  1.9635 -2.8221
  174SAPI  H18S19770   3.407   3.545   8.907  0.1196  1.4277 -0.2262
  174SAPI  C21919771   3.297   3.663   8.758 -0.2228  0.2298  0.5007
  174SAPI  H19R19772   3.391   3.719   8.735  1.0175 -1.9266  0.0611
  174SAPI  H19S19773   3.209   3.730   8.753  0.0361  0.5247 -0.2777
  174SAPI  C22019774   3.280   3.560   8.650  0.2573  0.3631  0.0894
  174SAPI  H20R19775   3.367   3.491   8.661 -0.1807 -0.0941  0.7910
  174SAPI  H20S19776   3.290   3.604   8.549 -1.8006 -1.5484 -1.0505
  174SAPI  H20T19777   3.181   3.509   8.655  0.1715  0.5472  0.2886
  174SAPI   C3319778   3.749   4.129  10.182 -1.0655 -0.1882  0.1203
  174SAPI   H3X19779   3.856   4.153  10.169 -1.6020  1.8709 -0.8663
  174SAPI   H3Y19780   3.718   4.212  10.249  1.8008  1.5871 -0.6113
  174SAPI   C3419781   3.672   4.141  10.049 -0.2593  0.7188 -0.4281
  174SAPI   H4X19782   3.564   4.130  10.072 -0.0842 -1.2353 -0.3686
  174SAPI   H4Y19783   3.695   4.048   9.993  1.7802 -0.0989  1.6087
  174SAPI   C3519784   3.687   4.278   9.978 -0.2966 -0.1413 -0.3420
  174SAPI   H5X19785   3.792   4.316   9.979 -0.9062  1.6069 -0.2366
  174SAPI   H5Y19786   3.630   4.359  10.028 -1.2631 -1.2552  0.4129
  174SAPI   C3619787   3.636   4.262   9.834  0.1421  0.4995  0.0280
  174SAPI   H6X19788   3.530   4.228   9.840  0.4600 -2.4091 -5.0099
  174SAPI   H6Y19789   3.680   4.168   9.795 -1.1226 -0.2730  0.3907
  174SAPI   C3719790   3.641   4.378   9.741  0.6021 -0.7217  0.7986
  174SAPI   H7X19791   3.740   4.427   9.754  0.4039 -0.3646  0.9696
  174SAPI   H7Y19792   3.566   4.454   9.769 -0.3107 -2.0685  2.1772
  174SAPI   C3819793   3.611   4.345   9.594 -0.1182 -0.4948  0.0454
  174SAPI   H8X19794   3.523   4.277   9.588 -2.3584  2.1752  0.7620
  174SAPI   H8Y19795   3.698   4.294   9.547  0.6876 -1.9600  2.9232
  174SAPI   C3919796   3.581   4.462   9.496  0.3166  0.0943  0.0110
  174SAPI   H9X19797   3.659   4.536   9.525  0.6502  0.0372 -0.7103
  174SAPI   H9Y19798   3.486   4.516   9.515  1.2132  1.0961  1.9088
  174SAPI  C31019799   3.603   4.421   9.347  0.3181 -0.4804  1.0610
  174SAPI  H10X19800   3.538   4.337   9.315  0.4508  0.9157 -3.5893
  174SAPI  H10Y19801   3.702   4.374   9.334 -0.7984 -2.9607  0.9398
  174SAPI  C31119802   3.597   4.535   9.243  0.3168  0.6194 -0.3927
  174SAPI  H11X19803   3.667   4.619   9.263 -0.2369  0.5020  2.4961
  174SAPI  H11Y19804   3.489   4.559   9.242 -0.3879 -1.9989 -3.6515
  174SAPI  C31219805   3.628   4.479   9.102 -0.3192  0.3905 -0.4070
  174SAPI  H12X19806   3.555   4.395   9.097 -0.3039  0.1088  2.3493
  174SAPI  H12Y19807   3.730   4.433   9.103 -0.8973 -0.9585  1.2669
  174SAPI  C31319808   3.636   4.582   8.988  0.4893 -0.2266 -0.1427
  174SAPI  H13X19809   3.701   4.661   9.032 -0.3154 -1.2971  3.3167
  174SAPI  H13Y19810   3.538   4.629   8.962  0.8397  1.1442  0.8755
  174SAPI  C31419811   3.700   4.510   8.866 -0.0726 -0.5050  0.1545
  174SAPI  H14X19812   3.626   4.434   8.835  0.1506 -1.7796  2.5052
  174SAPI  H14Y19813   3.787   4.450   8.899  0.6139  2.0507  3.5916
  174SAPI  C31519814   3.735   4.600   8.752  0.6980 -0.4244 -0.7950
  174SAPI  H15X19815   3.653   4.675   8.761  1.6529  0.4003  2.6149
  174SAPI  H15Y19816   3.731   4.544   8.656  2.0925 -2.0206  0.0430
  174SAPI  C31619817   3.855   4.696   8.764 -0.2523  0.6181 -0.2433
  174SAPI  H16X19818   3.842   4.756   8.857 -0.6359 -0.1400  0.2109
  174SAPI  H16Y19819   3.867   4.770   8.683  0.9054  0.3521 -0.3323
  174SAPI  C31719820   3.979   4.613   8.770 -1.0665  0.3622  0.7021
  174SAPI  H17X19821   3.972   4.538   8.688 -0.5866 -0.8483  1.7433
  174SAPI  H17Y19822   3.979   4.558   8.867 -0.4130  0.2890  0.6665
  174SAPI  C31819823   4.107   4.696   8.761  0.3889  0.2444 -0.2021
  174SAPI  H18X19824   4.090   4.790   8.817 -0.7022 -0.9179  1.5002
  174SAPI  H18Y19825   4.139   4.718   8.656  2.3993 -1.5931 -0.0424
  174SAPI  H18Z19826   4.190   4.642   8.810 -2.2038 -3.0181  0.8926
  175SAPI   C1219827   1.061   2.568   5.993  0.2601  0.4683  0.0794
  175SAPI    H219828   1.058   2.677   6.014  1.0879  0.5377 -0.1498
  175SAPI    O219829   0.932   2.518   5.953  0.0946  0.4515 -0.2677
  175SAPI   HO219830   0.904   2.446   6.011 -0.3268  1.0075  0.2316
  175SAPI   C1319831   1.154   2.558   5.870 -0.1153  0.0855  0.1125
  175SAPI    H319832   1.257   2.592   5.895  0.5658 -0.1699 -2.0736
  175SAPI    O319833   1.105   2.637   5.761 -0.7943  0.3010 -0.4519
  175SAPI   HO319834   1.052   2.579   5.706 -3.4767  2.6284 -0.5230
  175SAPI   C1419835   1.175   2.410   5.831  0.4888 -0.0649 -0.8489
  175SAPI    H419836   1.072   2.378   5.804 -1.0765  4.0725 -0.3741
  175SAPI    O419837   1.264   2.402   5.718  0.2535 -0.0879  0.3571
  175SAPI   HO419838   1.283   2.309   5.699 -1.5902 -0.2293 -1.0116
  175SAPI   C1519839   1.232   2.332   5.951 -0.1786  0.2450  0.0656
  175SAPI    H519840   1.332   2.375   5.972 -0.6779  0.4601  2.1446
  175SAPI    O519841   1.253   2.186   5.922 -0.3883  0.5406 -0.1001
  175SAPI   HO519842   1.344   2.171   5.895 -0.5364  0.8156 -0.7853
  175SAPI   C1619843   1.147   2.342   6.078 -0.5356 -0.6243 -0.0842
  175SAPI    H619844   1.046   2.296   6.069 -1.5203  1.4592 -0.2756
  175SAPI    O619845   1.218   2.289   6.187  0.0805 -0.1635 -0.6997
  175SAPI   HO619846   1.162   2.311   6.262  2.3672  1.7673  0.6348
  175SAPI   C1119847   1.122   2.487   6.109  0.3525  0.0810  0.7562
  175SAPI    H119848   1.226   2.525   6.119  0.0145  1.4011 -0.3608
  175SAPI     P19849   1.087   2.631   6.320 -0.4071  0.1864 -0.2314
  175SAPI   O1319850   0.995   2.663   6.429 -0.4963 -0.3059  0.0035
  175SAPI   O1419851   1.122   2.742   6.228 -0.1993  1.0067 -0.3322
  175SAPI   O1219852   1.037   2.502   6.229 -0.2072  0.2400  0.1944
  175SAPI   O1119853   1.226   2.577   6.385  0.1356 -0.1256  1.1625
  175SAPI    C119854   1.221   2.479   6.488 -0.2030  0.2627 -0.2537
  175SAPI    HA19855   1.222   2.517   6.593 -1.8096  0.5187 -0.3070
  175SAPI    HB19856   1.128   2.420   6.480  1.6523 -2.9785  0.5119
  175SAPI    C219857   1.346   2.390   6.471 -0.0737 -0.2966  0.5239
  175SAPI    HS19858   1.352   2.360   6.365 -0.1050  1.5840 -0.0494
  175SAPI   O2119859   1.320   2.272   6.545 -0.3693 -0.0571  0.2142
  175SAPI   C2119860   1.389   2.151   6.512 -0.2151 -0.4937 -0.9896
  175SAPI   O2219861   1.470   2.142   6.424 -0.4139  0.4117  0.5517
  175SAPI   C2219862   1.340   2.040   6.609 -0.2012 -0.4137  0.4277
  175SAPI   H2R19863   1.232   2.055   6.626 -0.2447 -0.6546  0.3733
  175SAPI   H2S19864   1.345   1.947   6.549 -0.9081  0.4777 -1.0383
  175SAPI    C319865   1.471   2.464   6.515 -0.5210  0.8203  0.4411
  175SAPI    HX19866   1.497   2.533   6.433 -0.5870  1.6172  1.0840
  175SAPI    HY19867   1.540   2.377   6.515  0.7128  1.6624 -2.8813
  175SAPI   O3119868   1.462   2.531   6.638 -0.2145  0.7340  0.2261
  175SAPI   C3119869   1.565   2.528   6.722 -1.3632  0.2824 -0.7533
  175SAPI   O3219870   1.677   2.478   6.698 -0.3401  0.0302 -0.1160
  175SAPI   C3219871   1.527   2.587   6.856 -0.0161 -0.3424 -0.2861
  175SAPI   H2X19872   1.547   2.507   6.931  1.4854  2.7333  2.9122
  175SAPI   H2Y19873   1.423   2.624   6.846 -0.0772 -0.6454 -0.7848
  175SAPI   C2319874   1.420   2.034   6.742 -0.3303  0.2073  0.3181
  175SAPI   H3R19875   1.445   2.138   6.768  1.3891  0.3596 -1.7043
  175SAPI   H3S19876   1.517   1.988   6.715 -0.4636 -0.6430  1.2434
  175SAPI   C2419877   1.354   1.960   6.862 -0.4284  0.1054  0.1862
  175SAPI   H4R19878   1.270   2.026   6.893 -0.4753  0.2342 -0.2167
  175SAPI   H4S19879   1.437   1.966   6.936  0.2703  0.3205 -0.6052
  175SAPI   C2519880   1.321   1.814   6.838  0.5254 -1.0674  0.2720
  175SAPI   H5R19881   1.255   1.789   6.753 -0.0591  0.0730  0.3733
  175SAPI   C2619882   1.367   1.708   6.901  0.1388  0.0170  0.1475
  175SAPI   H6R19883   1.332   1.611   6.862 -0.4411  0.7913 -1.3611
  175SAPI   C2719884   1.456   1.698   7.025 -0.7546 -1.2332 -0.5201
  175SAPI   H7R19885   1.420   1.612   7.086 -1.4146  0.6301  1.9026
  175SAPI   H7S19886   1.451   1.784   7.096  3.3211 -0.0140 -1.4177
  175SAPI   C2819887   1.601   1.695   6.991 -0.0813  0.5562 -0.5876
  175SAPI   H8R19888   1.628   1.736   6.893  5.2686 -3.9260 -1.4884
  175SAPI   C2919889   1.701   1.663   7.075  0.3944  0.7805  0.6731
  175SAPI   H9R19890   1.800   1.679   7.031  0.0543  1.3204  0.0796
  175SAPI  C21019891   1.683   1.617   7.217 -0.0921  0.0334  0.0579
  175SAPI  H10R19892   1.643   1.513   7.226 -0.2765  0.0812 -0.1831
  175SAPI  H10S19893   1.618   1.687   7.274  0.9085  1.6142 -0.6860
  175SAPI  C21119894   1.824   1.621   7.289 -0.1174  0.0874 -0.6215
  175SAPI  H11R19895   1.896   1.692   7.248 -1.2772  1.3738 -0.5149
  175SAPI  C21219896   1.880   1.525   7.367  0.6243 -0.2451  1.1096
  175SAPI  H12R19897   1.980   1.547   7.408  1.4689  0.4431 -1.1510
  175SAPI  C21319898   1.815   1.388   7.393  0.8382  0.6946 -0.0528
  175SAPI  H13R19899   1.887   1.309   7.422  1.2104  1.1904  0.3968
  175SAPI  H13S19900   1.766   1.369   7.295  2.3743  0.4017 -0.7793
  175SAPI  C21419901   1.706   1.390   7.506  0.5126 -0.0279  0.4222
  175SAPI  H14R19902   1.649   1.484   7.506 -0.1897 -0.4463  0.1126
  175SAPI  C21519903   1.689   1.304   7.604  0.5218  0.0627  0.5366
  175SAPI  H15R19904   1.614   1.322   7.682  1.2741  1.4374  0.9704
  175SAPI  C21619905   1.766   1.174   7.624  0.2399  0.0155  0.1990
  175SAPI  H16R19906   1.800   1.126   7.529 -0.6536  2.4092 -1.4253
  175SAPI  H16S19907   1.694   1.100   7.666 -2.6984  3.0073  0.8256
  175SAPI  C21719908   1.889   1.198   7.719  0.1896 -0.0767 -0.0624
  175SAPI  H17R19909   1.951   1.278   7.673  0.7210 -1.1603 -1.2847
  175SAPI  H17S19910   1.954   1.109   7.707  1.7468  1.0951 -0.8434
  175SAPI  C21819911   1.855   1.212   7.867 -0.0340 -0.5796  0.3491
  175SAPI  H18R19912   1.821   1.114   7.906  1.5980 -0.4896  2.1747
  175SAPI  H18S19913   1.773   1.285   7.887  1.4545  1.1332  0.5019
  175SAPI  C21919914   1.979   1.261   7.947 -0.6621 -0.0295 -0.2966
  175SAPI  H19R19915   2.000   1.369   7.931  2.0151 -0.5636 -0.8110
  175SAPI  H19S19916   2.069   1.201   7.924 -1.6681 -2.7194  2.2266
  175SAPI  C22019917   1.953   1.230   8.090  1.0515  0.3014  0.4152
  175SAPI  H20R19918   2.039   1.279   8.142  1.5860 -3.1731  3.2011
  175SAPI  H20S19919   1.956   1.119   8.097 -0.6950  0.2952  1.5036
  175SAPI  H20T19920   1.853   1.266   8.122  0.8123  0.9547 -0.9895
  175SAPI   C3319921   1.613   2.704   6.919  0.6806  0.1159 -0.3168
  175SAPI   H3X19922   1.547   2.771   6.979  0.7387 -1.2102  1.3139
  175SAPI   H3Y19923   1.655   2.757   6.831 -1.6983 -0.6485 -2.0160
  175SAPI   C3419924   1.720   2.659   7.011  0.4384 -0.6561  0.1745
  175SAPI   H4X19925   1.803   2.731   6.994 -0.5368  0.4374 -0.0605
  175SAPI   H4Y19926   1.765   2.561   6.981  0.3828 -1.1261  1.5576
  175SAPI   C3519927   1.676   2.647   7.155  0.3011  0.3529  0.6962
  175SAPI   H5X19928   1.584   2.586   7.142  0.6803  0.1611 -1.3864
  175SAPI   H5Y19929   1.664   2.750   7.194  0.0045  0.3368  0.6532
  175SAPI   C3619930   1.761   2.563   7.252  0.7988 -0.3718  0.6033
  175SAPI   H6X19931   1.756   2.462   7.205 -1.6957  0.2093 -0.5519
  175SAPI   H6Y19932   1.728   2.558   7.358  2.7205  2.7879  1.4933
  175SAPI   C3719933   1.905   2.607   7.254  0.2737  0.3836 -0.1198
  175SAPI   H7X19934   1.913   2.713   7.286 -3.2329  1.4448 -2.2401
  175SAPI   H7Y19935   1.947   2.626   7.153  0.3102  1.8822  0.1511
  175SAPI   C3819936   2.003   2.528   7.342 -0.9656 -0.3721  0.2486
  175SAPI   H8X19937   2.014   2.427   7.296  0.2200 -0.1563  0.0109
  175SAPI   H8Y19938   1.965   2.525   7.447 -3.1097 -1.7655 -0.5041
  175SAPI   C3919939   2.151   2.578   7.356 -0.3078  0.3151 -0.0386
  175SAPI   H9X19940   2.142   2.675   7.409 -1.3079  0.5556 -0.6184
  175SAPI   H9Y19941   2.180   2.599   7.251  2.6043  1.7648  0.9652
  175SAPI  C31019942   2.245   2.492   7.434  0.3004  0.5729  0.2214
  175SAPI  H10X19943   2.330   2.553   7.471  1.4559 -1.4947  1.2239
  175SAPI  H10Y19944   2.287   2.413   7.368  0.0537 -0.6825  1.5092
  175SAPI  C31119945   2.182   2.408   7.556 -0.4716  0.1725  0.1448
  175SAPI  H11X19946   2.242   2.316   7.572 -1.1172 -0.4673 -0.9629
  175SAPI  H11Y19947   2.081   2.371   7.527  0.1312 -0.6791 -0.9505
  175SAPI  C31219948   2.194   2.489   7.690  0.3797 -0.4887  0.6732
  175SAPI  H12X19949   2.143   2.587   7.679  1.0898  0.0678  2.0729
  175SAPI  H12Y19950   2.301   2.510   7.712  1.0958 -2.0677 -1.0171
  175SAPI  C31319951   2.125   2.411   7.803  0.1870 -0.2201 -0.0428
  175SAPI  H13X19952   2.027   2.384   7.759 -0.1140  0.0186  0.4698
  175SAPI  H13Y19953   2.109   2.488   7.882  0.7123  0.2086 -0.3436
  175SAPI  C31419954   2.204   2.289   7.858 -0.3006 -0.2334 -0.2528
  175SAPI  H14X19955   2.268   2.256   7.773 -2.3460  0.6403 -2.2768
  175SAPI  H14Y19956   2.133   2.206   7.879  0.7229 -1.2863 -0.8482
  175SAPI  C31519957   2.276   2.323   7.986 -0.8005  0.1761 -0.9421
  175SAPI  H15X19958   2.202   2.324   8.070 -0.4319 -1.8455 -0.5309
  175SAPI  H15Y19959   2.328   2.421   7.985 -0.4887  0.0499  0.5334
  175SAPI  C31619960   2.383   2.214   8.025 -0.6063  0.1810 -0.0245
  175SAPI  H16X19961   2.333   2.114   8.026 -0.9753  0.3613 -0.2485
  175SAPI  H16Y19962   2.410   2.240   8.129  1.0604 -0.7547 -0.1865
  175SAPI  C31719963   2.509   2.217   7.940  0.1618  0.2630  0.5152
  175SAPI  H17X19964   2.555   2.319   7.947  1.1217 -0.1669  0.6829
  175SAPI  H17Y19965   2.509   2.179   7.836 -2.3017 -0.5986  0.7637
  175SAPI  C31819966   2.614   2.124   8.005  0.2513 -0.2973  0.3365
  175SAPI  H18X19967   2.575   2.020   8.010  0.1654 -0.3797 -1.3027
  175SAPI  H18Y19968   2.641   2.148   8.110 -2.3714 -1.5394  1.3940
  175SAPI  H18Z19969   2.705   2.116   7.942  1.4638 -0.1224  2.0112
  176SAPI   C1219970   4.996   6.485   6.196 -0.3710 -0.0275  0.7919
  176SAPI    H219971   5.065   6.566   6.227  1.4330 -1.2311  0.0507
  176SAPI    O219972   4.897   6.537   6.105  0.0188 -0.2235 -0.3541
  176SAPI   HO219973   4.873   6.625   6.136 -1.6751 -0.3318 -1.2535
  176SAPI   C1319974   5.075   6.375   6.123 -0.1325  0.2585 -0.5264
  176SAPI    H319975   5.149   6.323   6.188  0.4136  3.4085  1.5786
  176SAPI    O319976   5.154   6.430   6.017  0.7538  0.2946 -0.1082
  176SAPI   HO319977   5.088   6.479   5.968  1.7742  3.0150  1.0118
  176SAPI   C1419978   4.982   6.267   6.082 -0.2443 -0.0155  0.0607
  176SAPI    H419979   4.900   6.301   6.015 -1.2088 -0.5423  0.9541
  176SAPI    O419980   5.050   6.155   6.017  0.6799  0.0191 -0.1995
  176SAPI   HO419981   5.008   6.156   5.930 -2.2654  0.7889  1.1219
  176SAPI   C1519982   4.912   6.205   6.205 -0.2382  0.0430  0.3692
  176SAPI    H519983   4.989   6.155   6.267  2.3072  0.9178 -1.8516
  176SAPI    O519984   4.813   6.111   6.172 -0.1440 -0.0135 -0.3195
  176SAPI   HO519985   4.807   6.095   6.078  0.9028 -0.4278 -0.3308
  176SAPI   C1619986   4.842   6.324   6.290 -0.1504 -0.3964 -0.0843
  176SAPI    H619987   4.758   6.359   6.226 -1.5126  0.8800  2.2787
  176SAPI    O619988   4.793   6.263   6.404 -0.5202 -0.7005 -0.2645
  176SAPI   HO619989   4.698   6.275   6.418 -0.3294 -0.1275  0.5633
  176SAPI   C1119990   4.934   6.438   6.321  0.4140 -0.0740  0.0527
  176SAPI    H119991   5.010   6.393   6.388  2.2403  1.8596 -0.6054
  176SAPI     P19992   4.921   6.661   6.483 -0.0804  0.0209 -0.0594
  176SAPI   O1319993   4.867   6.788   6.441  0.1958  0.4431 -0.4959
  176SAPI   O1419994   5.068   6.655   6.486  0.1603  0.3530  0.3529
  176SAPI   O1219995   4.858   6.546   6.376 -0.3379 -0.2648  0.0853
  176SAPI   O1119996   4.862   6.633   6.625  0.1571 -0.0802  0.0899
  176SAPI    C119997   4.764   6.543   6.680 -0.1854 -0.5223  0.2163
  176SAPI    HA19998   4.714   6.581   6.772 -1.2822 -3.1951  0.8224
  176SAPI    HB19999   4.682   6.531   6.606 -0.2556  0.3739  0.1395
  176SAPI    C220000   4.832   6.408   6.721 -0.2538 -0.7743  0.0119
  176SAPI    HS20001   4.866   6.359   6.627 -0.4794 -0.2993 -0.3207
  176SAPI   O2120002   4.735   6.317   6.773 -0.5013 -0.0308  0.1828
  176SAPI   C2120003   4.773   6.201   6.806 -0.4390 -0.3411 -0.2402
  176SAPI   O2220004   4.883   6.153   6.779  0.6160  0.1758  0.0259
  176SAPI   C2220005   4.665   6.141   6.896 -0.2022 -1.1540  0.2364
  176SAPI   H2R20006   4.673   6.181   6.999 -3.1381  0.7185 -0.1515
  176SAPI   H2S20007   4.564   6.166   6.857 -0.4287  1.2411  2.1435
  176SAPI    C320008   4.954   6.432   6.816  0.3512  0.1433  0.5024
  176SAPI    HX20009   5.007   6.521   6.776  0.4983  0.5475  1.5663
  176SAPI    HY20010   5.028   6.350   6.807  2.5450  2.1195 -0.7862
  176SAPI   O3120011   4.914   6.457   6.954 -0.0608  0.3640  0.5046
  176SAPI   C3120012   4.923   6.578   7.012 -0.3478  0.7485 -0.8267
  176SAPI   O3220013   4.977   6.671   6.960  0.0666 -0.3436  0.2777
  176SAPI   C3220014   4.873   6.573   7.154  0.5467  0.2465 -0.6899
  176SAPI   H2X20015   4.948   6.529   7.223  0.7348 -0.1159 -1.1213
  176SAPI   H2Y20016   4.781   6.511   7.149  0.2976  0.6833 -1.6182
  176SAPI   C2320017   4.683   5.994   6.906 -0.8911 -0.0113  0.7698
  176SAPI   H3R20018   4.767   5.962   6.970 -1.3412  0.9988  1.9036
  176SAPI   H3S20019   4.703   5.948   6.807  1.7780  2.2818  0.1260
  176SAPI   C2420020   4.564   5.925   6.974  0.5168 -0.8515 -0.0072
  176SAPI   H4R20021   4.471   5.959   6.923  1.2207 -1.7479 -1.9877
  176SAPI   H4S20022   4.565   5.968   7.076  0.1688  0.7335 -0.6432
  176SAPI   C2520023   4.566   5.783   6.977  0.6735  0.2136 -0.3258
  176SAPI   H5R20024   4.492   5.725   6.920 -1.6803  0.5304  2.1831
  176SAPI   C2620025   4.632   5.713   7.074 -0.9210 -0.0694 -0.0792
  176SAPI   H6R20026   4.625   5.604   7.081  0.5294 -0.1494  0.4078
  176SAPI   C2720027   4.730   5.771   7.171 -0.5460  0.0448 -0.3713
  176SAPI   H7R20028   4.697   5.875   7.196  0.3182  0.8183 -2.2945
  176SAPI   H7S20029   4.831   5.787   7.128  0.1951  0.9336  1.5570
  176SAPI   C2820030   4.747   5.689   7.297  0.2271 -0.0144 -0.3816
  176SAPI   H8R20031   4.845   5.641   7.313 -0.7157 -1.8220  0.3072
  176SAPI   C2920032   4.660   5.692   7.403 -0.4720 -0.0462  0.2314
  176SAPI   H9R20033   4.685   5.640   7.497 -0.0293  1.4058  0.9490
  176SAPI  C21020034   4.537   5.772   7.403  1.2717 -0.8953 -0.2553
  176SAPI  H10R20035   4.468   5.724   7.331  1.1934 -0.9831 -0.1230
  176SAPI  H10S20036   4.555   5.877   7.371 -0.0845  0.2745  2.4782
  176SAPI  C21120037   4.488   5.771   7.546 -0.7899 -0.1084  1.2846
  176SAPI  H11R20038   4.446   5.676   7.582  0.1917  0.0601  3.0040
  176SAPI  C21220039   4.513   5.874   7.633 -0.0791 -1.1072  0.4235
  176SAPI  H12R20040   4.482   5.866   7.738 -1.7220  0.3235  0.0939
  176SAPI  C21320041   4.593   5.999   7.600 -0.4123 -1.5965  0.1619
  176SAPI  H13R20042   4.597   6.074   7.682  0.6771  0.9443 -2.0642
  176SAPI  H13S20043   4.546   6.057   7.518  1.1194  0.8670  0.9134
  176SAPI  C21420044   4.741   5.974   7.576 -0.1045 -0.2696 -0.4630
  176SAPI  H14R20045   4.791   5.887   7.620  1.9406  1.5683  1.1000
  176SAPI  C21520046   4.814   6.053   7.501  0.0064 -0.1676  0.5254
  176SAPI  H15R20047   4.915   6.016   7.478  0.3588  1.7410 -1.2885
  176SAPI  C21620048   4.772   6.182   7.424 -0.0015 -0.0068 -0.6825
  176SAPI  H16R20049   4.684   6.227   7.476 -1.5273 -3.5330  0.0809
  176SAPI  H16S20050   4.758   6.154   7.317  2.9364  0.0250 -1.1590
  176SAPI  C21720051   4.887   6.282   7.430 -0.4677 -0.6147  0.3030
  176SAPI  H17R20052   4.914   6.309   7.534  1.1448  3.5778 -1.0209
  176SAPI  H17S20053   4.858   6.380   7.389  0.0545 -0.7521 -0.4286
  176SAPI  C21820054   5.016   6.235   7.356  0.5565  0.4550 -0.4624
  176SAPI  H18R20055   5.066   6.146   7.399  3.0054  1.9702  0.0260
  176SAPI  H18S20056   5.099   6.309   7.366 -0.1023  1.1033  0.2849
  176SAPI  C21920057   4.993   6.215   7.211  0.4691  0.3270  0.0487
  176SAPI  H19R20058   4.929   6.298   7.172  1.7786  0.8185 -1.1467
  176SAPI  H19S20059   4.943   6.118   7.193  0.7854  0.5282 -2.0641
  176SAPI  C22020060   5.112   6.242   7.120 -0.1507 -0.2709  0.0432
  176SAPI  H20R20061   5.157   6.343   7.122  1.5678 -0.8275 -3.3936
  176SAPI  H20S20062   5.079   6.233   7.015 -1.8299  0.9068  0.4282
  176SAPI  H20T20063   5.193   6.167   7.133 -0.5520 -0.7929 -0.4324
  176SAPI   C3320064   4.836   6.712   7.206 -0.7623  0.0769 -0.2826
  176SAPI   H3X20065   4.773   6.770   7.135 -0.2020 -0.9199 -1.6503
  176SAPI   H3Y20066   4.928   6.770   7.230 -0.9143 -0.3657  1.5305
  176SAPI   C3420067   4.780   6.699   7.352 -0.5268  0.5665  0.2922
  176SAPI   H4X20068   4.709   6.614   7.359  1.7691 -1.3736  2.1469
  176SAPI   H4Y20069   4.732   6.798   7.368  0.4829  1.2844 -0.9045
  176SAPI   C3520070   4.876   6.675   7.466 -0.1777  0.1854 -0.0059
  176SAPI   H5X20071   4.954   6.752   7.481  0.6985  0.0937 -3.2965
  176SAPI   H5Y20072   4.939   6.588   7.439 -0.7320 -0.5915  1.0999
  176SAPI   C3620073   4.802   6.659   7.595  0.6847  0.0411  0.8477
  176SAPI   H6X20074   4.730   6.575   7.603 -1.2912  1.8155  4.0589
  176SAPI   H6Y20075   4.758   6.755   7.630  1.7195  0.7328  0.3083
  176SAPI   C3720076   4.906   6.627   7.705  0.1565  0.4727 -0.3578
  176SAPI   H7X20077   4.979   6.708   7.726  0.6104  0.5958 -2.2375
  176SAPI   H7Y20078   4.950   6.538   7.656  1.4100  0.6312  0.4403
  176SAPI   C3820079   4.845   6.600   7.845  0.6521 -0.1370  0.4789
  176SAPI   H8X20080   4.791   6.689   7.884  0.1368 -0.5967  0.8234
  176SAPI   H8Y20081   4.934   6.579   7.908  1.2226  1.4463  0.2410
  176SAPI   C3920082   4.758   6.480   7.854  0.0171  0.2495  0.1127
  176SAPI   H9X20083   4.811   6.394   7.809  0.1736  0.7109 -0.5990
  176SAPI   H9Y20084   4.662   6.497   7.799 -0.1529  0.0630  0.3498
  176SAPI  C31020085   4.712   6.446   7.993  0.2570 -0.1965 -0.8146
  176SAPI  H10X20086   4.639   6.525   8.019  0.9848  0.3875 -0.5183
  176SAPI  H10Y20087   4.793   6.441   8.069 -0.6659  1.4905  0.3369
  176SAPI  C31120088   4.661   6.302   8.008 -0.2675  0.0862 -0.1494
  176SAPI  H11X20089   4.740   6.229   7.981 -0.4467  0.4062 -1.6650
  176SAPI  H11Y20090   4.578   6.288   7.934  0.4335 -1.9778 -0.6122
  176SAPI  C31220091   4.606   6.258   8.142  0.5972  0.8557 -0.2047
  176SAPI  H12X20092   4.525   6.329   8.170 -0.5565  1.0997 -3.6648
  176SAPI  H12Y20093   4.683   6.256   8.222 -1.3104 -0.4497  1.7117
  176SAPI  C31320094   4.549   6.110   8.144  0.3789 -0.5016  0.3044
  176SAPI  H13X20095   4.454   6.113   8.086 -0.2468  0.6776  1.3297
  176SAPI  H13Y20096   4.526   6.083   8.249  1.0673  1.6756  1.0719
  176SAPI  C31420097   4.637   6.005   8.075  0.5477 -0.2265 -0.4440
  176SAPI  H14X20098   4.733   6.010   8.131  0.7832  0.9179 -0.9202
  176SAPI  H14Y20099   4.654   6.040   7.971 -0.6784  1.9068  0.0220
  176SAPI  C31520100   4.571   5.864   8.077 -0.0854  0.3854  0.3343
  176SAPI  H15X20101   4.476   5.870   8.019  1.7035  0.5486 -2.8178
  176SAPI  H15Y20102   4.555   5.818   8.177  1.5397 -0.9951  0.0003
  176SAPI  C31620103   4.649   5.766   7.995  0.1535 -0.0959  0.3601
  176SAPI  H16X20104   4.757   5.781   8.012 -0.1686  1.7550  1.0003
  176SAPI  H16Y20105   4.631   5.783   7.887 -1.3256  1.2079  0.7565
  176SAPI  C31720106   4.616   5.621   8.028  0.4328 -0.3397  0.4999
  176SAPI  H17X20107   4.630   5.604   8.137  2.4159 -0.2978  0.2898
  176SAPI  H17Y20108   4.688   5.557   7.973  0.4487 -1.4325  1.7384
  176SAPI  C31820109   4.475   5.573   7.971  0.6343 -0.6676  0.0343
  176SAPI  H18X20110   4.476   5.575   7.860 -2.6083 -0.2373 -0.0934
  176SAPI  H18Y20111   4.394   5.646   7.993  0.8661 -0.5527  0.5177
  176SAPI  H18Z20112   4.461   5.468   8.004 -1.4198 -0.3119  0.4392
  177SLPC     N20113   4.890   3.321  11.160 -0.0212  0.8399 -0.0998
  177SLPC   C1320114   4.955   3.412  11.252 -0.0568 -0.4902  0.5203
  177SLPC  H13A20115   4.942   3.397  11.358 -1.3454  0.7573  0.5676
  177SLPC  H13B20116   5.059   3.395  11.231  0.2583  2.2095 -0.5425
  177SLPC  H13C20117   4.930   3.515  11.232 -0.3556 -0.8491 -1.1391
  177SLPC   C1420118   4.746   3.316  11.201  0.1963 -0.4110  0.0650
  177SLPC  H14A20119   4.703   3.415  11.205 -2.8627 -1.6414  0.6084
  177SLPC  H14B20120   4.689   3.251  11.136 -0.4764  0.4338 -0.2139
  177SLPC  H14C20121   4.738   3.279  11.302  0.5808 -1.1125 -0.1518
  177SLPC   C1520122   4.951   3.188  11.195 -0.0421 -0.1815  0.0284
  177SLPC  H15A20123   4.937   3.154  11.297 -2.3297 -0.3979 -0.3049
  177SLPC  H15B20124   4.928   3.105  11.130 -0.0937  0.3420 -0.6387
  177SLPC  H15C20125   5.057   3.202  11.179 -0.2301 -0.6612 -1.9351
  177SLPC   C1220126   4.917   3.354  11.016 -0.0395 -0.3047  0.2280
  177SLPC  H12A20127   4.858   3.290  10.952 -0.6735  0.3068  0.1951
  177SLPC  H12B20128   5.019   3.328  10.994  0.5035  0.1684  2.0411
  177SLPC   C1120129   4.883   3.495  10.965 -0.2062  0.0600 -0.2772
  177SLPC  H11A20130   4.774   3.512  10.978 -0.1487 -0.4573  1.0151
  177SLPC  H11B20131   4.893   3.492  10.854 -1.7395  0.1743 -0.4311
  177SLPC     P20132   5.116   3.592  10.997 -0.2126 -0.1194  0.1844
  177SLPC   O1320133   5.177   3.716  11.054  0.2851 -0.0547  0.1683
  177SLPC   O1420134   5.176   3.461  11.039 -0.3193 -0.4521  1.0686
  177SLPC   O1220135   4.965   3.598  11.027 -0.2170  0.2484 -0.1268
  177SLPC   O1120136   5.126   3.607  10.840  0.0386  0.3506 -0.2423
  177SLPC    C120137   5.136   3.741  10.777 -0.3542 -0.6853  0.6544
  177SLPC    HA20138   5.055   3.804  10.819  0.9024  0.8037  0.8958
  177SLPC    HB20139   5.235   3.785  10.798 -0.5502 -0.4020  0.9861
  177SLPC    C220140   5.105   3.728  10.629  0.3591 -0.2685  0.5115
  177SLPC    HS20141   5.134   3.625  10.601 -0.0195 -0.3595  0.4370
  177SLPC   O2120142   5.168   3.844  10.564  0.1474  0.2431 -0.6408
  177SLPC   C2120143   5.210   3.812  10.442  0.6589 -0.7243 -0.0918
  177SLPC   O2220144   5.191   3.705  10.391  0.2207 -0.4737  0.2349
  177SLPC   C2220145   5.296   3.921  10.387 -0.2414  0.1384  0.6896
  177SLPC   H2R20146   5.275   4.018  10.437 -2.0193  1.3189 -2.1196
  177SLPC   H2S20147   5.403   3.895  10.403  0.0774 -0.1031 -1.5435
  177SLPC    C320148   4.940   3.737  10.609  0.3060  0.3179 -0.2517
  177SLPC    HX20149   4.913   3.841  10.638  2.6239  1.0455 -0.5286
  177SLPC    HY20150   4.883   3.663  10.670 -1.7475 -0.1772 -2.5859
  177SLPC   O3120151   4.910   3.721  10.473 -0.3944  0.1321  0.3861
  177SLPC   C3120152   4.903   3.594  10.424  0.0255 -0.0498  0.3100
  177SLPC   O3220153   4.923   3.492  10.488  0.2351 -0.4784  0.1286
  177SLPC   C3220154   4.884   3.608  10.276  0.2769 -0.8868 -0.2654
  177SLPC   H2X20155   4.976   3.644  10.227  0.5178  1.6046  1.7778
  177SLPC   H2Y20156   4.797   3.674  10.257 -0.0828 -0.1957  3.1327
  177SLPC   C2320157   5.276   3.929  10.231  0.1877 -0.0531 -0.9238
  177SLPC   H3R20158   5.168   3.954  10.221  0.1619  0.6400  0.7265
  177SLPC   H3S20159   5.300   3.828  10.191 -0.3584 -0.2035 -0.8766
  177SLPC   C2420160   5.359   4.038  10.168 -0.4179 -0.5320  0.1558
  177SLPC   H4R20161   5.466   4.018  10.186 -0.2968  1.4210  1.8991
  177SLPC   H4S20162   5.343   4.140  10.209 -0.2550 -0.1533 -0.7050
  177SLPC   C2520163   5.354   4.033  10.019 -0.3219  0.2118  0.0237
  177SLPC   H5R20164   5.251   4.044   9.980 -0.2541 -0.5132 -0.3898
  177SLPC   H5S20165   5.382   3.930   9.985 -1.2064 -0.6889  1.9042
  177SLPC   C2620166   5.450   4.131   9.953  0.3229  0.2202 -0.5120
  177SLPC   H6R20167   5.535   4.146  10.024  0.0379 -0.7391  0.0509
  177SLPC   H6S20168   5.397   4.229   9.952  0.0156  0.1468  2.0305
  177SLPC   C2720169   5.504   4.083   9.818  0.4560 -0.4816 -0.8476
  177SLPC   H7R20170   5.432   4.086   9.733  2.4823 -0.2304 -2.6108
  177SLPC   H7S20171   5.529   3.975   9.832 -1.6105 -1.2150 -2.2656
  177SLPC   C2820172   5.629   4.162   9.780 -0.1257  0.0547 -1.2715
  177SLPC   H8R20173   5.680   4.201   9.870  2.7704 -1.7583 -1.9739
  177SLPC   H8S20174   5.582   4.249   9.729  0.1094  0.7617 -0.3077
  177SLPC   C2920175   5.725   4.084   9.692  0.2215 -0.5453 -0.4442
  177SLPC   H9R20176   5.754   3.985   9.730  1.5703  0.1073  0.3129
  177SLPC  C21020177   5.782   4.116   9.576  0.5677 -0.4863  0.4309
  177SLPC  H10R20178   5.854   4.044   9.535 -0.1874  0.9046 -3.8005
  177SLPC  C21120179   5.769   4.250   9.499 -0.0908  0.3969 -0.0873
  177SLPC  H11R20180   5.668   4.284   9.529 -1.5707 -2.6270 -1.2685
  177SLPC  H11S20181   5.837   4.325   9.545 -1.2048  1.9475 -0.8761
  177SLPC  C21220182   5.776   4.248   9.347  0.3302 -0.5888  0.3287
  177SLPC  H12R20183   5.868   4.298   9.314 -1.8248  2.7903 -1.1242
  177SLPC  C21320184   5.683   4.203   9.259 -0.2306  0.5439  0.2877
  177SLPC  H13R20185   5.697   4.222   9.152  2.1006  0.6169  0.5463
  177SLPC  C21420186   5.566   4.125   9.309 -0.3443 -0.6680 -0.5054
  177SLPC  H14R20187   5.476   4.166   9.257 -0.3328 -1.2571 -0.9986
  177SLPC  H14S20188   5.553   4.139   9.418  1.0688 -1.1989 -0.2583
  177SLPC  C21520189   5.555   3.975   9.303 -0.6231  0.1163  0.1050
  177SLPC  H15R20190   5.450   3.946   9.324 -1.5917  2.7045 -0.7961
  177SLPC  H15S20191   5.627   3.940   9.379  1.7715 -1.4527 -2.6564
  177SLPC  C21620192   5.610   3.915   9.169  1.1178 -0.0211  0.0475
  177SLPC  H16R20193   5.622   3.805   9.184  0.8489 -0.5656 -3.1024
  177SLPC  H16S20194   5.708   3.963   9.150  1.2304  0.0679  0.7916
  177SLPC  C21720195   5.515   3.929   9.045  0.3989  0.5163 -0.0420
  177SLPC  H17R20196   5.476   4.031   9.026  1.2867  0.6972 -0.9401
  177SLPC  H17S20197   5.427   3.862   9.062 -0.7375  1.6397 -1.2541
  177SLPC  C21820198   5.579   3.877   8.913  0.1033  0.5884  0.9263
  177SLPC  H18R20199   5.511   3.867   8.827 -0.1612 -1.6109  1.3308
  177SLPC  H18S20200   5.621   3.775   8.929  0.8807  0.5986 -0.8895
  177SLPC  H18T20201   5.663   3.949   8.901 -0.1721  1.3411  2.9945
  177SLPC   C3320202   4.850   3.471  10.212  0.2145 -0.4212  0.4367
  177SLPC   H3X20203   4.787   3.408  10.279  1.1901 -0.9653  0.8623
  177SLPC   H3Y20204   4.932   3.397  10.200  1.2499  0.7711 -0.0196
  177SLPC   C3420205   4.778   3.505  10.081  0.3956 -0.9562 -0.2305
  177SLPC   H4X20206   4.688   3.567  10.099  1.4213 -0.1031  2.4432
  177SLPC   H4Y20207   4.733   3.407  10.053  0.4977 -0.8323 -0.8464
  177SLPC   C3520208   4.857   3.562   9.959  0.1782 -0.4589 -0.3199
  177SLPC   H5X20209   4.961   3.526   9.973  0.6771  1.3016  0.8579
  177SLPC   H5Y20210   4.864   3.672   9.976  0.3203 -0.3943 -0.7938
  177SLPC   C3620211   4.804   3.524   9.820 -0.4334  0.1695  0.2421
  177SLPC   H6X20212   4.696   3.550   9.829 -0.5004 -0.2481  0.7134
  177SLPC   H6Y20213   4.794   3.413   9.812  0.8448 -0.0026  0.8753
  177SLPC   C3720214   4.849   3.601   9.706 -0.5470  0.6541 -1.0282
  177SLPC   H7X20215   4.956   3.572   9.700 -0.4373  0.3592  1.4189
  177SLPC   H7Y20216   4.832   3.709   9.727 -2.4288  0.0612  0.8567
  177SLPC   C3820217   4.787   3.572   9.569  0.3248  0.1567 -0.5619
  177SLPC   H8X20218   4.692   3.628   9.554  0.5868  0.9022  0.5045
  177SLPC   H8Y20219   4.764   3.463   9.565 -1.1026  0.3615  1.0345
  177SLPC   C3920220   4.883   3.602   9.460  0.5727 -0.0668 -0.1954
  177SLPC   H9X20221   4.967   3.533   9.483  0.3960 -0.8703 -1.8051
  177SLPC   H9Y20222   4.920   3.707   9.463  2.4394 -0.6527 -0.9122
  177SLPC  C31020223   4.828   3.553   9.319  0.8748  0.0130 -0.2987
  177SLPC  H10X20224   4.721   3.582   9.315  0.4450 -1.4460 -0.1887
  177SLPC  H10Y20225   4.812   3.443   9.321 -0.4571  0.1932 -0.3086
  177SLPC  C31120226   4.907   3.599   9.196 -0.0263 -0.1170 -0.0222
  177SLPC  H11X20227   5.015   3.597   9.221 -0.1459 -0.4134  0.4673
  177SLPC  H11Y20228   4.885   3.704   9.164  0.4140 -0.0488 -0.1019
  177SLPC  C31220229   4.889   3.495   9.080 -0.4754 -0.3015 -0.5078
  177SLPC  H12X20230   4.781   3.480   9.063 -0.6021  0.0896 -0.0757
  177SLPC  H12Y20231   4.924   3.395   9.115 -0.1327 -0.4727 -1.3247
  177SLPC  C31320232   4.955   3.534   8.944  0.2885  0.4129  0.5720
  177SLPC  H13X20233   4.956   3.446   8.877  4.1637  0.1103  0.7937
  177SLPC  H13Y20234   5.062   3.563   8.957  0.4431  0.5475 -0.8595
  177SLPC  C31420235   4.882   3.654   8.872 -0.0101 -0.0812  0.5740
  177SLPC  H14X20236   4.947   3.695   8.792 -0.9265  1.9848  0.8308
  177SLPC  H14Y20237   4.867   3.723   8.957  2.0347 -1.8936  2.5155
  177SLPC  C31520238   4.750   3.603   8.806 -0.3721 -0.2101  0.3052
  177SLPC  H15X20239   4.677   3.568   8.882 -0.0457  2.2532  1.8807
  177SLPC  H15Y20240   4.764   3.526   8.727 -3.8336  0.8921 -1.5902
  177SLPC  C31620241   4.686   3.725   8.732  0.0573  0.0888  0.5410
  177SLPC  H16X20242   4.690   3.816   8.795  1.8241 -1.1633  2.3708
  177SLPC  H16Y20243   4.584   3.686   8.708 -0.1668  1.2312 -0.4635
  177SLPC  C31720244   4.754   3.759   8.601 -0.3710  0.1626  0.1373
  177SLPC  H17X20245   4.760   3.666   8.540  0.3543  0.0232  0.4170
  177SLPC  H17Y20246   4.857   3.798   8.615 -0.3502 -0.4459  2.0220
  177SLPC  C31820247   4.666   3.857   8.514  0.5381 -0.5480  0.1116
  177SLPC  H18X20248   4.586   3.800   8.463  0.6154  1.5891 -2.6418
  177SLPC  H18Y20249   4.722   3.900   8.428 -0.2588  0.2091 -0.0479
  177SLPC  H18Z20250   4.628   3.943   8.574 -1.1916 -0.4037 -1.1127
  178SLPC     N20251   5.547   6.216  11.239 -0.0002 -0.8584  0.6091
  178SLPC   C1320252   5.415   6.268  11.272 -0.1819  0.1894 -0.9718
  178SLPC  H13A20253   5.425   6.295  11.377  2.2370  0.4360 -1.2012
  178SLPC  H13B20254   5.381   6.354  11.217 -2.8405 -1.0242 -1.3788
  178SLPC  H13C20255   5.347   6.185  11.262 -1.5154  1.3317 -1.8153
  178SLPC   C1420256   5.594   6.095  11.316 -0.1092 -0.2937  0.4987
  178SLPC  H14A20257   5.530   6.009  11.300  0.4321 -0.5065 -0.6504
  178SLPC  H14B20258   5.687   6.063  11.272 -0.6858 -1.3437 -0.0105
  178SLPC  H14C20259   5.603   6.096  11.423  1.1537 -2.3384  0.4760
  178SLPC   C1520260   5.649   6.318  11.263  0.2099 -0.2555 -0.2840
  178SLPC  H15A20261   5.649   6.345  11.367 -1.9718  1.2966 -0.6281
  178SLPC  H15B20262   5.747   6.287  11.229  0.4040 -0.1097  0.1361
  178SLPC  H15C20263   5.625   6.410  11.212 -0.3673  0.1214  0.6477
  178SLPC   C1220264   5.549   6.178  11.093  0.4861 -0.1648  0.0169
  178SLPC  H12A20265   5.650   6.169  11.056 -0.2075  1.0018 -2.3654
  178SLPC  H12B20266   5.502   6.260  11.041 -1.7854 -0.7993  0.9348
  178SLPC   C1120267   5.461   6.057  11.051  0.8266  0.3450 -0.0952
  178SLPC  H11A20268   5.478   5.974  11.122 -1.5131 -0.3090 -0.1938
  178SLPC  H11B20269   5.508   6.014  10.960 -2.5253  0.3610 -1.9863
  178SLPC     P20270   5.273   6.174  10.908 -0.3321  0.2930 -0.2111
  178SLPC   O1320271   5.125   6.190  10.914 -0.2810 -0.0146  0.1549
  178SLPC   O1420272   5.350   6.299  10.900 -0.4020  0.2271  0.6737
  178SLPC   O1220273   5.324   6.088  11.029  0.7870  0.3026 -0.5177
  178SLPC   O1120274   5.302   6.080  10.786 -0.2879  0.7177  0.1322
  178SLPC    C120275   5.243   5.947  10.780  0.0265  0.6661  0.5207
  178SLPC    HA20276   5.280   5.875  10.856 -0.0111  0.8843  0.7496
  178SLPC    HB20277   5.133   5.951  10.792  0.2077  0.5331  2.6620
  178SLPC    C220278   5.267   5.884  10.635 -0.3717 -0.1383 -0.4395
  178SLPC    HS20279   5.217   5.787  10.618  1.0477 -0.7275 -1.4357
  178SLPC   O2120280   5.413   5.881  10.614  0.2138 -0.0897 -0.5377
  178SLPC   C2120281   5.466   5.782  10.685 -0.8052 -0.5517 -0.1310
  178SLPC   O2220282   5.405   5.695  10.745 -0.4470  0.1846 -0.0292
  178SLPC   C2220283   5.619   5.800  10.688  0.7488 -0.5424 -0.1138
  178SLPC   H2R20284   5.653   5.896  10.644  1.1978 -1.2986 -1.4687
  178SLPC   H2S20285   5.639   5.814  10.797 -0.2209  4.7679 -0.3275
  178SLPC    C320286   5.212   5.983  10.532  0.4360 -0.4444 -0.4343
  178SLPC    HX20287   5.238   6.088  10.557  0.3178 -0.6404  0.5513
  178SLPC    HY20288   5.101   5.983  10.544  0.4170  5.0477  2.6727
  178SLPC   O3120289   5.253   5.964  10.398  1.0447 -0.7159 -0.0628
  178SLPC   C3120290   5.190   5.865  10.338  0.4332  0.0919 -0.6508
  178SLPC   O3220291   5.098   5.795  10.390 -0.2217  0.0047  0.4299
  178SLPC   C3220292   5.249   5.845  10.200  0.0893  0.0586 -0.1295
  178SLPC   H2X20293   5.309   5.932  10.168  1.5692 -1.1230 -0.6694
  178SLPC   H2Y20294   5.163   5.846  10.129 -1.2076  0.7265  1.3784
  178SLPC   C2320295   5.697   5.692  10.610 -0.2886  0.5213  0.3112
  178SLPC   H3R20296   5.678   5.587  10.642 -1.3798  0.6239  0.0375
  178SLPC   H3S20297   5.805   5.710  10.630 -0.6213  1.4967  1.2811
  178SLPC   C2420298   5.674   5.696  10.457 -0.8533  0.2677  0.5508
  178SLPC   H4R20299   5.686   5.801  10.423  1.4567 -0.6017 -1.5636
  178SLPC   H4S20300   5.568   5.678  10.428  0.3831 -1.4116 -3.8130
  178SLPC   C2520301   5.769   5.605  10.380 -0.5392  0.2470  0.4487
  178SLPC   H5R20302   5.764   5.498  10.409  0.1015  0.3867  1.0817
  178SLPC   H5S20303   5.869   5.651  10.392 -0.0205  0.0538 -2.3744
  178SLPC   C2620304   5.718   5.599  10.229  0.0524  0.9077  0.0385
  178SLPC   H6R20305   5.712   5.701  10.185  0.1503  0.6997 -0.4691
  178SLPC   H6S20306   5.623   5.542  10.222  0.8356 -0.4053 -0.1256
  178SLPC   C2720307   5.810   5.521  10.134  0.3838  0.6376  0.2811
  178SLPC   H7R20308   5.817   5.416  10.168  1.0094 -1.3102 -4.9328
  178SLPC   H7S20309   5.915   5.553  10.145  0.6152  0.1107 -0.3455
  178SLPC   C2820310   5.758   5.519   9.990  0.4499 -0.2604 -0.5346
  178SLPC   H8R20311   5.651   5.493   9.975 -0.6498  3.8137 -0.9967
  178SLPC   H8S20312   5.818   5.448   9.929 -1.3651 -1.7149 -0.7133
  178SLPC   C2920313   5.783   5.655   9.929 -0.3696 -0.0443 -0.0561
  178SLPC   H9R20314   5.839   5.725   9.994 -1.4608  1.1706 -0.3693
  178SLPC  C21020315   5.743   5.694   9.809 -0.2324  0.3601 -0.0343
  178SLPC  H10R20316   5.779   5.789   9.766 -0.3422  0.5348  0.2527
  178SLPC  C21120317   5.665   5.609   9.714  0.0535  0.1801 -0.5277
  178SLPC  H11R20318   5.575   5.666   9.683 -0.6618 -0.3246  0.5212
  178SLPC  H11S20319   5.621   5.523   9.770  1.3638  0.2758  0.7198
  178SLPC  C21220320   5.744   5.571   9.596 -0.7033  0.0209 -0.5642
  178SLPC  H12R20321   5.852   5.574   9.613 -0.4603 -0.5322 -1.9045
  178SLPC  C21320322   5.700   5.545   9.470 -0.1221 -0.4080 -0.4860
  178SLPC  H13R20323   5.773   5.513   9.394 -1.9568 -0.0011 -2.5120
  178SLPC  C21420324   5.558   5.560   9.413  0.0588 -0.2650 -1.3683
  178SLPC  H14R20325   5.491   5.623   9.474 -1.3547 -0.3976 -2.7289
  178SLPC  H14S20326   5.524   5.456   9.399  1.2936 -0.9800  0.5417
  178SLPC  C21520327   5.549   5.633   9.275  0.8044 -0.2656  0.3704
  178SLPC  H15R20328   5.581   5.738   9.292 -0.9130  0.5496 -1.0534
  178SLPC  H15S20329   5.442   5.640   9.245  1.2767 -0.5793 -1.5357
  178SLPC  C21620330   5.640   5.573   9.165 -0.0860  0.2974  0.1311
  178SLPC  H16R20331   5.740   5.572   9.212  0.7453  2.9811 -1.3975
  178SLPC  H16S20332   5.637   5.638   9.075 -1.2226 -1.2759 -1.0226
  178SLPC  C21720333   5.605   5.431   9.134 -0.2134  0.2234  0.6521
  178SLPC  H17R20334   5.504   5.425   9.087  0.0546 -0.7733  0.1711
  178SLPC  H17S20335   5.615   5.356   9.214  1.5063  0.2432  0.4966
  178SLPC  C21820336   5.698   5.367   9.022 -0.3265 -0.2407  0.2179
  178SLPC  H18R20337   5.724   5.447   8.950 -0.2885 -0.5380 -0.1044
  178SLPC  H18S20338   5.648   5.284   8.968 -0.7910  0.4587 -0.4475
  178SLPC  H18T20339   5.792   5.323   9.061 -0.7420 -1.8166 -0.4763
  178SLPC   C3320340   5.327   5.708  10.183  0.4167 -0.5820 -0.0975
  178SLPC   H3X20341   5.253   5.635  10.221  1.0378 -0.5113  1.3232
  178SLPC   H3Y20342   5.416   5.708  10.251  1.8169 -1.6139 -1.8346
  178SLPC   C3420343   5.378   5.682  10.046  0.5212  0.0742 -0.1254
  178SLPC   H4X20344   5.454   5.601  10.038  1.5534  1.0224 -0.1687
  178SLPC   H4Y20345   5.421   5.770   9.993  0.4264 -1.0253 -2.1140
  178SLPC   C3520346   5.260   5.634   9.965 -0.4932  0.7947  0.6958
  178SLPC   H5X20347   5.178   5.709   9.962 -1.8765 -0.4370  3.8503
  178SLPC   H5Y20348   5.223   5.549  10.026  0.6621 -1.7892 -1.9385
  178SLPC   C3620349   5.306   5.570   9.831 -0.3457 -0.5369  0.4337
  178SLPC   H6X20350   5.400   5.513   9.848 -0.9394 -1.0857  2.1919
  178SLPC   H6Y20351   5.339   5.648   9.759  3.7689 -1.8655  0.6037
  178SLPC   C3720352   5.205   5.473   9.767 -0.0442  0.0627 -0.4866
  178SLPC   H7X20353   5.106   5.523   9.759 -0.1980 -0.0615  0.5150
  178SLPC   H7Y20354   5.199   5.381   9.830 -2.7462 -0.3482 -1.2045
  178SLPC   C3820355   5.241   5.430   9.627 -0.2513  0.8871 -0.9741
  178SLPC   H8X20356   5.192   5.330   9.628 -0.9952  1.2345 -1.8227
  178SLPC   H8Y20357   5.349   5.408   9.617 -0.8399 -3.5563  0.2491
  178SLPC   C3920358   5.199   5.515   9.510  0.7296  0.6170  0.7515
  178SLPC   H9X20359   5.279   5.592   9.506  1.5918 -0.2122  1.4794
  178SLPC   H9Y20360   5.099   5.564   9.513  1.2006  1.6410  0.1439
  178SLPC  C31020361   5.210   5.430   9.379 -0.1102 -0.0221 -0.1611
  178SLPC  H10X20362   5.150   5.337   9.390 -1.5391  0.6725 -1.6467
  178SLPC  H10Y20363   5.318   5.407   9.365  0.3374  1.9724 -0.1727
  178SLPC  C31120364   5.151   5.506   9.260  0.6580  0.6593  0.5069
  178SLPC  H11X20365   5.193   5.608   9.243 -0.7689  1.3140  0.7495
  178SLPC  H11Y20366   5.046   5.526   9.288  0.7367  0.7843  0.7208
  178SLPC  C31220367   5.151   5.437   9.127 -0.0672  0.5961  0.5627
  178SLPC  H12X20368   5.121   5.331   9.140 -0.2839  0.2660 -2.1478
  178SLPC  H12Y20369   5.255   5.447   9.088 -0.1140  0.0722  0.2998
  178SLPC  C31320370   5.047   5.496   9.034  0.4776 -0.5714 -0.8102
  178SLPC  H13X20371   5.070   5.604   9.018 -2.6991  0.6795  1.9223
  178SLPC  H13Y20372   4.945   5.481   9.074  0.5570 -0.7026 -0.6532
  178SLPC  C31420373   5.047   5.435   8.896  0.8329 -0.3015 -0.4710
  178SLPC  H14X20374   4.999   5.335   8.904 -0.1900  0.1678 -0.4877
  178SLPC  H14Y20375   5.146   5.442   8.848  1.0659  1.9405  0.2133
  178SLPC  C31520376   4.941   5.501   8.812 -0.2159  0.4473 -0.2307
  178SLPC  H15X20377   4.841   5.463   8.840  0.3110  0.1254  1.2968
  178SLPC  H15Y20378   4.943   5.609   8.835  3.3026  1.6989 -4.8850
  178SLPC  C31620379   4.953   5.488   8.661 -0.7164 -0.1696  0.4384
  178SLPC  H16X20380   4.961   5.380   8.637  0.3649 -0.0797  0.3466
  178SLPC  H16Y20381   5.045   5.539   8.624 -0.9741  0.0101  0.0361
  178SLPC  C31720382   4.840   5.563   8.607 -0.2695 -0.6804 -0.3711
  178SLPC  H17X20383   4.826   5.661   8.658  3.3632  1.1002 -2.3458
  178SLPC  H17Y20384   4.753   5.495   8.621  0.1163 -1.0393  0.2993
  178SLPC  C31820385   4.846   5.599   8.460  0.3472  0.4536  0.0663
  178SLPC  H18X20386   4.851   5.508   8.396  0.8743 -1.8466  3.1775
  178SLPC  H18Y20387   4.938   5.660   8.448 -0.9690  2.2776 -1.3265
  178SLPC  H18Z20388   4.765   5.665   8.423  0.5181  0.2415 -0.7188
  179SLPC     N20389   1.094   2.876  10.782 -0.1435  0.0701 -0.1937
  179SLPC   C1320390   0.996   2.983  10.804  0.2675 -0.1403 -0.4527
  179SLPC  H13A20391   0.942   2.993  10.711  0.4290 -0.3536 -0.5688
  179SLPC  H13B20392   0.926   2.959  10.883 -0.2323  0.2997 -0.7547
  179SLPC  H13C20393   1.049   3.074  10.830  0.6213 -0.7379  0.9939
  179SLPC   C1420394   1.052   2.754  10.707  0.7379  0.0523 -0.0151
  179SLPC  H14A20395   0.960   2.709  10.743 -0.6301  2.9755  0.4189
  179SLPC  H14B20396   1.046   2.791  10.606  3.0314  0.8309  0.0823
  179SLPC  H14C20397   1.122   2.672  10.710 -2.2404 -2.9606 -3.2855
  179SLPC   C1520398   1.130   2.820  10.917  0.7221 -0.1903 -0.3457
  179SLPC  H15A20399   1.216   2.755  10.905  0.7660 -0.4385  1.1427
  179SLPC  H15B20400   1.154   2.899  10.987 -1.0244 -0.6819  0.8578
  179SLPC  H15C20401   1.056   2.765  10.972  3.4010 -0.3558  3.5235
  179SLPC   C1220402   1.221   2.932  10.718 -0.4442 -0.5704  0.4236
  179SLPC  H12A20403   1.278   2.848  10.682 -2.6226 -1.0128 -2.3096
  179SLPC  H12B20404   1.273   2.986  10.796 -0.6956 -1.6093  1.3287
  179SLPC   C1120405   1.208   3.033  10.606 -0.0885  0.4857 -0.2241
  179SLPC  H11A20406   1.142   3.120  10.627  1.6504  1.4267  1.7370
  179SLPC  H11B20407   1.144   2.969  10.542  0.2471 -0.9798  0.8490
  179SLPC     P20408   1.424   2.973  10.475  0.3142  0.1334  0.0443
  179SLPC   O1320409   1.518   3.056  10.397 -0.0928  0.4456  0.6760
  179SLPC   O1420410   1.477   2.868  10.565  0.1465 -0.0116  0.7240
  179SLPC   O1220411   1.339   3.075  10.558 -0.1676  0.0133  0.4062
  179SLPC   O1120412   1.314   2.903  10.377 -0.6467  0.2705 -0.0209
  179SLPC    C120413   1.243   2.970  10.281 -0.0353 -0.3178  0.4276
  179SLPC    HA20414   1.144   2.919  10.280  0.1488 -0.7351 -1.6483
  179SLPC    HB20415   1.228   3.076  10.312  1.6327 -0.3311  1.4019
  179SLPC    C220416   1.301   2.971  10.136 -0.8032  0.2938  0.0926
  179SLPC    HS20417   1.411   2.984  10.145 -0.5371 -1.9194  0.7059
  179SLPC   O2120418   1.232   3.071  10.064  0.1811  0.4120  0.1309
  179SLPC   C2120419   1.300   3.152   9.987  0.0330 -0.4551 -1.1917
  179SLPC   O2220420   1.423   3.161   9.978 -0.4584  0.0498  0.1281
  179SLPC   C2220421   1.202   3.259   9.932  0.3218 -0.2951 -0.1116
  179SLPC   H2R20422   1.095   3.240   9.955  0.2427 -0.1517 -0.3673
  179SLPC   H2S20423   1.227   3.351   9.989  2.6673 -1.4285  0.8268
  179SLPC    C320424   1.266   2.833  10.082  0.5004  0.3623  0.1286
  179SLPC    HX20425   1.156   2.835  10.074  0.2750 -2.2641  1.6163
  179SLPC    HY20426   1.302   2.752  10.149  1.7782  0.5593 -0.2791
  179SLPC   O3120427   1.313   2.816   9.949 -0.5174  0.7490 -0.2440
  179SLPC   C3120428   1.447   2.813   9.933  0.7156  0.2379 -0.6807
  179SLPC   O3220429   1.527   2.830  10.021  0.1745 -0.3087 -0.0047
  179SLPC   C3220430   1.478   2.767   9.790  0.1327 -0.4551  0.5535
  179SLPC   H2X20431   1.439   2.665   9.766 -0.2439 -0.2737  0.3785
  179SLPC   H2Y20432   1.589   2.774   9.791  0.0275  3.0616  1.6104
  179SLPC   C2320433   1.215   3.276   9.784  0.0514 -0.3214  1.1808
  179SLPC   H3R20434   1.315   3.311   9.751  0.0062 -1.2969 -0.0334
  179SLPC   H3S20435   1.149   3.358   9.748  1.6078 -0.3367 -2.0477
  179SLPC   C2420436   1.190   3.148   9.704 -0.0205 -0.4632  0.4774
  179SLPC   H4R20437   1.084   3.114   9.708  0.0157 -0.5065  3.2180
  179SLPC   H4S20438   1.245   3.063   9.748 -0.3563 -0.8472  0.1644
  179SLPC   C2520439   1.225   3.152   9.552 -0.2222  0.1563 -0.6222
  179SLPC   H5R20440   1.191   3.055   9.510 -2.2097  0.1430  0.8742
  179SLPC   H5S20441   1.334   3.150   9.531 -0.7752 -1.1382 -3.9638
  179SLPC   C2620442   1.171   3.275   9.469  0.2834  0.2049  0.1444
  179SLPC   H6R20443   1.218   3.367   9.512 -1.7999  1.9088 -0.9921
  179SLPC   H6S20444   1.065   3.288   9.503 -0.4771 -1.5906 -1.4017
  179SLPC   C2720445   1.188   3.288   9.315 -0.7874 -0.3993 -0.6994
  179SLPC   H7R20446   1.298   3.275   9.303 -0.7971 -1.4083  0.1122
  179SLPC   H7S20447   1.154   3.390   9.289 -1.1018  0.3214  2.1622
  179SLPC   C2820448   1.121   3.176   9.242 -0.4152  0.3859 -0.0194
  179SLPC   H8R20449   1.013   3.178   9.267 -0.6105  2.2930 -0.8272
  179SLPC   H8S20450   1.160   3.079   9.278 -0.5358 -0.0512 -1.0326
  179SLPC   C2920451   1.138   3.197   9.096 -0.4666  0.0828  0.5624
  179SLPC   H9R20452   1.225   3.159   9.041 -0.6335 -0.8049  0.8961
  179SLPC  C21020453   1.048   3.263   9.015 -0.3941 -0.2476 -0.0527
  179SLPC  H10R20454   1.083   3.293   8.915 -0.1522 -0.4090 -0.0162
  179SLPC  C21120455   0.919   3.318   9.059  0.0146 -0.4239 -0.3572
  179SLPC  H11R20456   0.894   3.371   8.964  1.5853 -0.1992 -0.6751
  179SLPC  H11S20457   0.940   3.400   9.131 -1.2884 -0.7935  0.4820
  179SLPC  C21220458   0.803   3.240   9.120 -0.7076  0.6759  0.1237
  179SLPC  H12R20459   0.822   3.131   9.120  1.6210  0.9948 -1.9893
  179SLPC  C21320460   0.689   3.297   9.140 -0.1385  0.3444 -0.1473
  179SLPC  H13R20461   0.606   3.233   9.176  1.7851 -1.0816  2.0721
  179SLPC  C21420462   0.660   3.446   9.130 -0.1916  0.6110 -0.2059
  179SLPC  H14R20463   0.741   3.509   9.172 -0.6104  1.5883 -0.8340
  179SLPC  H14S20464   0.572   3.466   9.194  0.0810  2.2566 -0.3020
  179SLPC  C21520465   0.623   3.509   8.995  0.2744  1.1018  0.8197
  179SLPC  H15R20466   0.542   3.452   8.945  3.6447 -2.0658 -1.5571
  179SLPC  H15S20467   0.709   3.501   8.925 -0.2462 -1.3581  0.3800
  179SLPC  C21620468   0.574   3.659   9.009  0.4109  0.3000 -0.0520
  179SLPC  H16R20469   0.653   3.723   9.054  1.1518 -1.4228  1.2302
  179SLPC  H16S20470   0.486   3.658   9.077  3.6420  0.2578  4.6636
  179SLPC  C21720471   0.522   3.706   8.880  0.2390  0.1442  0.5068
  179SLPC  H17R20472   0.446   3.787   8.877  0.8922  0.7346 -1.3331
  179SLPC  H17S20473   0.473   3.619   8.832  1.7108 -0.2983 -0.2616
  179SLPC  C21820474   0.637   3.752   8.792 -0.2920  1.1177 -0.2531
  179SLPC  H18R20475   0.681   3.844   8.836  0.2978  0.7219 -0.0021
  179SLPC  H18S20476   0.589   3.763   8.692 -2.5057 -3.5954  0.0009
  179SLPC  H18T20477   0.711   3.670   8.798 -0.6541  0.9104  2.3269
  179SLPC   C3320478   1.419   2.858   9.679 -0.3865  0.1967  0.2088
  179SLPC   H3X20479   1.440   2.967   9.688  0.7354 -0.1314  2.4874
  179SLPC   H3Y20480   1.312   2.830   9.667  0.2413 -1.6567 -1.6037
  179SLPC   C3420481   1.491   2.808   9.556 -0.2588 -0.5480  0.3776
  179SLPC   H4X20482   1.468   2.706   9.517  0.4566  0.3068 -2.4956
  179SLPC   H4Y20483   1.602   2.820   9.555 -0.2079 -1.0099  0.2265
  179SLPC   C3520484   1.449   2.898   9.440  0.4573  0.3146 -0.4101
  179SLPC   H5X20485   1.498   2.995   9.464 -0.9946  0.6602  1.3522
  179SLPC   H5Y20486   1.341   2.919   9.426  0.0023 -2.0156 -0.7835
  179SLPC   C3620487   1.510   2.853   9.312 -0.5655 -0.9431 -0.2324
  179SLPC   H6X20488   1.496   2.743   9.299 -0.8472 -0.9041 -0.2866
  179SLPC   H6Y20489   1.618   2.874   9.321 -0.7724  0.0170  0.0959
  179SLPC   C3720490   1.454   2.929   9.185 -0.4548 -0.7214  0.0365
  179SLPC   H7X20491   1.463   3.039   9.198  0.7803 -0.8531  0.4954
  179SLPC   H7Y20492   1.345   2.911   9.182 -0.3237 -1.7198  0.5730
  179SLPC   C3820493   1.517   2.879   9.061  0.2037 -1.2684 -0.3055
  179SLPC   H8X20494   1.493   2.770   9.064 -1.0165 -0.9931  1.7347
  179SLPC   H8Y20495   1.627   2.889   9.078 -0.0549  0.3640  0.5970
  179SLPC   C3920496   1.466   2.947   8.937 -0.5514  0.2439  0.5506
  179SLPC   H9X20497   1.507   3.050   8.933  1.1413 -0.3629  1.0856
  179SLPC   H9Y20498   1.356   2.946   8.949 -0.4870 -1.1485  1.2549
  179SLPC  C31020499   1.514   2.888   8.808 -0.0335 -0.0459  0.1498
  179SLPC  H10X20500   1.468   2.948   8.726 -1.8914 -0.7565  0.6215
  179SLPC  H10Y20501   1.475   2.786   8.792  0.5263 -0.0952 -0.9696
  179SLPC  C31120502   1.665   2.884   8.793  0.2741  0.0255 -0.4555
  179SLPC  H11X20503   1.698   2.791   8.844  0.6798  0.1990 -0.3920
  179SLPC  H11Y20504   1.708   2.971   8.848  1.9576 -1.2673  0.3867
  179SLPC  C31220505   1.684   2.899   8.638  0.0301 -0.1797 -0.4739
  179SLPC  H12X20506   1.614   2.978   8.603 -0.2497 -1.0040 -1.8427
  179SLPC  H12Y20507   1.658   2.800   8.595  0.4364 -0.4787 -0.0341
  179SLPC  C31320508   1.829   2.926   8.609 -0.5386  0.0969 -0.5076
  179SLPC  H13X20509   1.877   2.828   8.629 -0.6344  0.7589  3.8869
  179SLPC  H13Y20510   1.851   2.995   8.694 -0.9591 -0.3156 -0.0539
  179SLPC  C31420511   1.879   2.996   8.481 -0.2315  0.5744  0.3355
  179SLPC  H14X20512   1.989   2.992   8.468 -0.5846 -0.8944 -3.1738
  179SLPC  H14Y20513   1.858   3.105   8.485  0.9885  0.9328 -1.6982
  179SLPC  C31520514   1.798   2.944   8.357 -0.3522  0.2572 -0.3809
  179SLPC  H15X20515   1.818   3.014   8.273  1.0544  1.6777  1.0760
  179SLPC  H15Y20516   1.689   2.935   8.376 -0.4062 -2.9198 -1.5303
  179SLPC  C31620517   1.842   2.805   8.307  0.7329  0.2373 -0.8314
  179SLPC  H16X20518   1.803   2.715   8.358  0.7525  1.6856  1.9376
  179SLPC  H16Y20519   1.952   2.805   8.321  0.7647 -0.0266 -1.0711
  179SLPC  C31720520   1.808   2.784   8.162 -0.0656 -0.3809  0.0133
  179SLPC  H17X20521   1.852   2.688   8.127 -1.5932 -1.5543  1.1961
  179SLPC  H17Y20522   1.871   2.857   8.107 -1.6165  0.0581 -1.2718
  179SLPC  C31820523   1.657   2.788   8.127 -0.1493  0.1582  0.0616
  179SLPC  H18X20524   1.615   2.891   8.123 -0.4750 -0.0123 -1.6051
  179SLPC  H18Y20525   1.593   2.727   8.194 -1.1532  2.3556  1.2449
  179SLPC  H18Z20526   1.646   2.743   8.027 -0.0612  2.1573 -0.8988
  180SLPC     N20527   2.135   0.233  11.044 -0.2607 -0.7485  0.0412
  180SLPC   C1320528   2.017   0.155  10.977  0.1418 -1.1234  0.0009
  180SLPC  H13A20529   1.932   0.140  11.042 -1.0077 -2.5469 -1.7203
  180SLPC  H13B20530   1.982   0.220  10.897 -2.8978 -1.1618  1.1565
  180SLPC  H13C20531   2.044   0.057  10.939 -0.4934 -0.7545 -1.4783
  180SLPC   C1420532   2.163   0.166  11.172 -0.5797  0.5553 -0.5973
  180SLPC  H14A20533   2.200   0.066  11.153 -0.1759  0.2455  1.5828
  180SLPC  H14B20534   2.233   0.219  11.235  0.7565 -0.1182 -1.4542
  180SLPC  H14C20535   2.079   0.158  11.240  0.0293  1.4052  0.2765
  180SLPC   C1520536   2.079   0.374  11.071  0.2938 -0.2112 -0.1603
  180SLPC  H15A20537   2.024   0.370  11.164  0.3729 -0.1856 -0.1123
  180SLPC  H15B20538   2.160   0.442  11.092 -1.4115  1.9652 -0.2418
  180SLPC  H15C20539   2.022   0.415  10.989 -0.7119  1.4084  1.2780
  180SLPC   C1220540   2.256   0.236  10.945  0.5659  0.1742 -0.3391
  180SLPC  H12A20541   2.309   0.142  10.957  0.3913  0.2429  1.0957
  180SLPC  H12B20542   2.317   0.319  10.977  1.6190 -0.7333  0.0738
  180SLPC   C1120543   2.228   0.259  10.799 -0.5067 -0.0267  0.3607
  180SLPC  H11A20544   2.184   0.172  10.745  0.5605 -0.3744  0.0344
  180SLPC  H11B20545   2.326   0.272  10.748  0.1106  1.5233  1.8463
  180SLPC     P20546   2.206   0.516  10.798  0.5066 -0.4323 -0.0916
  180SLPC   O1320547   2.108   0.598  10.874 -0.3337  0.2226  0.0250
  180SLPC   O1420548   2.338   0.508  10.864 -0.2599 -0.2474  0.3471
  180SLPC   O1220549   2.150   0.374  10.773  0.0453  0.0408  0.1614
  180SLPC   O1120550   2.225   0.592  10.664  0.1739  0.4180  0.0649
  180SLPC    C120551   2.255   0.515  10.550  0.4148  0.1282  0.1148
  180SLPC    HA20552   2.346   0.453  10.565 -0.1633 -0.8992 -0.5566
  180SLPC    HB20553   2.173   0.443  10.530  0.8201  0.1306 -1.7360
  180SLPC    C220554   2.267   0.613  10.434 -0.2314 -1.1152  0.4818
  180SLPC    HS20555   2.354   0.676  10.461  1.0543 -2.8418  0.4905
  180SLPC   O2120556   2.145   0.687  10.411 -0.2623 -0.5816  0.3251
  180SLPC   C2120557   2.181   0.812  10.370  0.5078 -0.4802 -0.0303
  180SLPC   O2220558   2.297   0.850  10.350  0.6149 -0.0235 -0.1965
  180SLPC   C2220559   2.058   0.899  10.345 -0.7854  0.1510 -1.2768
  180SLPC   H2R20560   1.970   0.831  10.341 -0.0458 -1.0490  1.1191
  180SLPC   H2S20561   2.057   0.967  10.433  1.0999  0.2185 -1.2666
  180SLPC    C320562   2.318   0.534  10.314  0.2865  0.4937  0.5836
  180SLPC    HX20563   2.228   0.480  10.279  1.3130 -0.6429 -0.4456
  180SLPC    HY20564   2.396   0.459  10.339  0.5203 -0.1343 -1.7405
  180SLPC   O3120565   2.364   0.610  10.209  0.1638  0.3942  0.2799
  180SLPC   C3120566   2.488   0.648  10.210 -0.1873  0.0356  0.7085
  180SLPC   O3220567   2.577   0.622  10.287  0.0706  0.5750 -0.5843
  180SLPC   C3220568   2.510   0.743  10.091  0.3181 -0.1047 -0.5331
  180SLPC   H2X20569   2.582   0.819  10.131 -1.0299  1.0179 -0.1520
  180SLPC   H2Y20570   2.409   0.784  10.072 -0.0335 -2.3721 -4.5752
  180SLPC   C2320571   2.074   0.985  10.222  0.3161  0.1766  0.2255
  180SLPC   H3R20572   2.176   1.028  10.212  0.8806 -1.1178  0.2214
  180SLPC   H3S20573   1.999   1.067  10.229  0.8158  0.5821  1.0688
  180SLPC   C2420574   2.045   0.927  10.087 -0.8119 -0.3512  0.4461
  180SLPC   H4R20575   1.939   0.896  10.091 -0.7382 -0.5094  1.4342
  180SLPC   H4S20576   2.113   0.840  10.070 -1.6845 -0.7285 -1.2884
  180SLPC   C2520577   2.057   1.033   9.978  0.5661 -0.1187  0.8313
  180SLPC   H5R20578   2.158   1.075   9.995  0.3603  0.6791  0.1768
  180SLPC   H5S20579   1.984   1.115   9.998  1.1729  1.4263 -2.6227
  180SLPC   C2620580   2.043   0.976   9.830 -0.2831 -0.2965  0.3196
  180SLPC   H6R20581   1.940   0.942   9.806 -0.7880  1.7449 -0.6503
  180SLPC   H6S20582   2.113   0.891   9.834  0.6464  0.4861  1.1006
  180SLPC   C2720583   2.087   1.075   9.719  0.4313  0.2233  0.1416
  180SLPC   H7R20584   2.112   1.010   9.633 -1.0535  0.5120 -0.5449
  180SLPC   H7S20585   2.186   1.118   9.745  0.3543  0.2740  0.3559
  180SLPC   C2820586   1.983   1.178   9.688  0.0179  0.2462 -0.5633
  180SLPC   H8R20587   1.953   1.241   9.775  0.9427  0.8551 -0.6633
  180SLPC   H8S20588   1.894   1.119   9.659  0.6714 -1.5861  1.0025
  180SLPC   C2920589   2.026   1.274   9.575 -0.0348  0.3195 -0.5816
  180SLPC   H9R20590   2.057   1.376   9.600 -0.2596  0.5664 -1.2667
  180SLPC  C21020591   2.013   1.238   9.442 -0.1461 -0.1170 -0.5798
  180SLPC  H10R20592   2.043   1.314   9.368 -0.5950 -0.4015 -1.0615
  180SLPC  C21120593   1.959   1.111   9.387  0.4662 -0.0944 -0.1402
  180SLPC  H11R20594   1.868   1.127   9.325  1.4310 -1.1875 -1.9085
  180SLPC  H11S20595   1.929   1.047   9.473 -1.1758  1.4848  0.5433
  180SLPC  C21220596   2.055   1.029   9.308  0.3697 -0.4800  0.3279
  180SLPC  H12R20597   2.087   0.931   9.347  0.9994 -1.1417 -1.7453
  180SLPC  C21320598   2.089   1.054   9.176 -0.0235  0.3342  0.2244
  180SLPC  H13R20599   2.164   0.991   9.126  0.0542  1.0754 -0.6082
  180SLPC  C21420600   2.057   1.182   9.096 -0.3318  0.1818 -0.8978
  180SLPC  H14R20601   2.144   1.236   9.054  2.2600 -1.8286  1.5154
  180SLPC  H14S20602   1.997   1.252   9.159  0.5984 -0.5908  0.9236
  180SLPC  C21520603   1.982   1.151   8.967  0.4988 -0.2561  0.4238
  180SLPC  H15R20604   2.013   1.054   8.921 -0.5693 -0.9099  1.0439
  180SLPC  H15S20605   1.991   1.227   8.887 -3.1092  0.0490  0.1602
  180SLPC  C21620606   1.835   1.128   8.998 -0.1694 -0.1399  0.2222
  180SLPC  H16R20607   1.791   1.230   8.998  2.8596  1.2898  1.4986
  180SLPC  H16S20608   1.824   1.084   9.100  2.0097 -1.2319  0.0408
  180SLPC  C21720609   1.755   1.052   8.897  0.4098  0.6727 -0.0036
  180SLPC  H17R20610   1.791   0.947   8.905 -0.4805  0.4045  0.7973
  180SLPC  H17S20611   1.768   1.093   8.795  3.0459  2.0563  0.7871
  180SLPC  C21820612   1.603   1.064   8.928  0.9164 -0.4252 -0.1654
  180SLPC  H18R20613   1.589   1.029   9.032  1.6083  1.9655  0.8055
  180SLPC  H18S20614   1.540   1.007   8.857 -2.2536  2.3671  0.1246
  180SLPC  H18T20615   1.567   1.168   8.909 -1.1620 -1.4120 -1.9381
  180SLPC   C3320616   2.558   0.669   9.961 -0.2081  0.2576  0.2887
  180SLPC   H3X20617   2.474   0.601   9.938  0.6491 -0.8005  0.2132
  180SLPC   H3Y20618   2.648   0.610   9.990 -0.8240 -0.1826  1.3807
  180SLPC   C3420619   2.592   0.766   9.846 -0.5121  0.8364 -0.5363
  180SLPC   H4X20620   2.661   0.727   9.768  0.4879  2.0839 -0.3155
  180SLPC   H4Y20621   2.653   0.843   9.900 -2.3697  1.7101  0.3921
  180SLPC   C3520622   2.474   0.841   9.783 -0.4841  0.1187  0.0797
  180SLPC   H5X20623   2.444   0.915   9.860  0.9281  0.1953  0.5707
  180SLPC   H5Y20624   2.393   0.768   9.763 -0.9681  0.5224  0.5277
  180SLPC   C3620625   2.485   0.929   9.656 -0.0519  0.0093  0.2955
  180SLPC   H6X20626   2.568   1.000   9.673  0.0168 -0.1661  0.6854
  180SLPC   H6Y20627   2.389   0.984   9.646 -0.3049 -0.6338 -1.0454
  180SLPC   C3720628   2.510   0.842   9.534  0.5438  0.1917  0.0192
  180SLPC   H7X20629   2.443   0.754   9.537 -0.9940  1.3522  2.7039
  180SLPC   H7Y20630   2.613   0.799   9.534 -0.9092 -3.6538 -0.1767
  180SLPC   C3820631   2.491   0.903   9.394  0.6533 -0.4568 -0.1834
  180SLPC   H8X20632   2.388   0.946   9.393  0.5168 -0.7665  0.4717
  180SLPC   H8Y20633   2.475   0.822   9.319 -1.3708  0.2196 -0.5453
  180SLPC   C3920634   2.601   0.996   9.337  0.5806 -0.1361  0.1851
  180SLPC   H9X20635   2.676   0.929   9.290  0.4512  1.0931 -1.8789
  180SLPC   H9Y20636   2.639   1.065   9.416  0.0439  0.1581  0.1862
  180SLPC  C31020637   2.554   1.082   9.218  0.0558 -0.8150 -0.6455
  180SLPC  H10X20638   2.638   1.145   9.181  1.1071 -2.2148 -0.7218
  180SLPC  H10Y20639   2.489   1.159   9.264 -0.8804  0.0896 -3.2993
  180SLPC  C31120640   2.491   1.000   9.104  0.5743 -0.0318  0.6898
  180SLPC  H11X20641   2.395   0.964   9.149  0.5691 -0.1516  0.5844
  180SLPC  H11Y20642   2.559   0.917   9.074  1.8464  1.1139  0.3366
  180SLPC  C31220643   2.451   1.076   8.976 -0.2587 -0.1506  0.2059
  180SLPC  H12X20644   2.543   1.127   8.940  0.2081 -1.2487 -0.1977
  180SLPC  H12Y20645   2.376   1.154   9.004  0.0969  1.1761 -2.2314
  180SLPC  C31320646   2.367   0.985   8.887 -0.6004 -0.2213  0.4620
  180SLPC  H13X20647   2.275   0.959   8.943 -2.5693  0.4822 -2.2289
  180SLPC  H13Y20648   2.412   0.886   8.862  0.4559  0.2098  0.6078
  180SLPC  C31420649   2.304   1.053   8.763 -0.2036 -0.0219 -1.1199
  180SLPC  H14X20650   2.255   1.151   8.783 -0.7458 -0.1239 -1.8657
  180SLPC  H14Y20651   2.219   0.987   8.736 -0.9144  1.4123 -2.6235
  180SLPC  C31520652   2.386   1.056   8.642  0.1306 -0.1388  0.3003
  180SLPC  H15X20653   2.424   0.956   8.612  1.9663  0.2220  1.2424
  180SLPC  H15Y20654   2.476   1.120   8.660 -1.0583  1.8564 -0.5059
  180SLPC  C31620655   2.322   1.127   8.526  1.2681 -0.1379 -0.5532
  180SLPC  H16X20656   2.288   1.229   8.554  0.0666 -0.6149 -0.2063
  180SLPC  H16Y20657   2.228   1.076   8.495  0.7777 -1.1003  2.2247
  180SLPC  C31720658   2.415   1.128   8.409 -0.1184 -0.1798 -0.4770
  180SLPC  H17X20659   2.447   1.022   8.401 -1.6724 -1.1599  3.5179
  180SLPC  H17Y20660   2.506   1.185   8.437 -0.4261 -0.0477  0.2822
  180SLPC  C31820661   2.361   1.197   8.287 -0.4538 -0.0753  0.5482
  180SLPC  H18X20662   2.285   1.133   8.236  0.3669  0.0094 -0.8253
  180SLPC  H18Y20663   2.427   1.231   8.205  1.4658  0.8107  2.3720
  180SLPC  H18Z20664   2.297   1.284   8.312 -0.3792 -0.2780  1.4765
  181SLPC     N20665   5.988   4.219  10.822 -0.0977  0.2481  0.9454
  181SLPC   C1320666   6.035   4.197  10.954  0.3244 -0.1311 -0.7258
  181SLPC  H13A20667   5.988   4.256  11.031  2.0580  0.3250  0.0213
  181SLPC  H13B20668   6.018   4.094  10.981  0.0669  0.2811  0.7512
  181SLPC  H13C20669   6.141   4.215  10.962 -0.0344  1.7623  0.2698
  181SLPC   C1420670   5.848   4.171  10.813  0.0331  0.2019 -0.4165
  181SLPC  H14A20671   5.814   4.185  10.712 -1.9084 -0.4461  0.1045
  181SLPC  H14B20672   5.840   4.065  10.831  1.1871 -0.0911 -1.4871
  181SLPC  H14C20673   5.782   4.221  10.883 -1.4341 -2.1420 -0.0018
  181SLPC   C1520674   6.074   4.143  10.719 -0.4464  0.2034  0.2498
  181SLPC  H15A20675   6.049   4.162  10.616 -1.3932 -0.1510  0.4055
  181SLPC  H15B20676   6.181   4.144  10.732 -0.8364  1.3850  5.6579
  181SLPC  H15C20677   6.044   4.039  10.720  0.4441 -0.1554 -2.6687
  181SLPC   C1220678   5.990   4.365  10.785  0.3052 -0.2857  0.7709
  181SLPC  H12A20679   5.937   4.392  10.695 -1.0839  3.2702  2.4856
  181SLPC  H12B20680   6.086   4.387  10.739  0.3445 -0.6119  0.6894
  181SLPC   C1120681   5.957   4.467  10.898 -0.1147  0.7091 -0.7209
  181SLPC  H11A20682   5.956   4.567  10.849 -0.4075  2.0038  1.7706
  181SLPC  H11B20683   6.041   4.461  10.969  1.4848 -1.3424 -2.6376
  181SLPC     P20684   5.716   4.533  11.002 -0.1469 -0.1418  0.5119
  181SLPC   O1320685   5.611   4.483  11.090 -0.5875 -0.3001 -0.1874
  181SLPC   O1420686   5.748   4.674  11.031  0.2069  0.2842 -0.4363
  181SLPC   O1220687   5.836   4.435  10.974  0.1129  0.5394 -0.2238
  181SLPC   O1120688   5.647   4.528  10.855 -0.5187  0.0877  0.5008
  181SLPC    C120689   5.597   4.406  10.797 -0.3219 -0.5414 -0.3914
  181SLPC    HA20690   5.665   4.356  10.726 -0.7942 -0.5417 -0.8470
  181SLPC    HB20691   5.584   4.328  10.876  0.4886  0.9541  1.3005
  181SLPC    C220692   5.473   4.435  10.716  0.3795  0.4465  0.3378
  181SLPC    HS20693   5.417   4.341  10.700 -0.9809  1.5492 -2.0030
  181SLPC   O2120694   5.512   4.489  10.591 -0.1098  0.4560 -0.7925
  181SLPC   C2120695   5.535   4.397  10.500  0.5957  0.2537 -0.8542
  181SLPC   O2220696   5.522   4.278  10.514  0.0706  0.4608 -0.5699
  181SLPC   C2220697   5.593   4.458  10.373  0.6787 -0.1948  0.1280
  181SLPC   H2R20698   5.505   4.492  10.314 -2.0677  1.9431  4.8028
  181SLPC   H2S20699   5.652   4.551  10.391 -0.1877  0.5620 -0.7981
  181SLPC    C320700   5.377   4.526  10.789 -0.9036 -0.4975 -0.5669
  181SLPC    HX20701   5.413   4.631  10.782 -1.1820 -0.4039 -0.6243
  181SLPC    HY20702   5.371   4.509  10.898 -1.6656  2.5977 -0.0259
  181SLPC   O3120703   5.248   4.525  10.729 -0.0004  0.0217  0.2945
  181SLPC   C3120704   5.158   4.439  10.779 -0.2037  0.3077  0.4613
  181SLPC   O3220705   5.170   4.366  10.870 -0.3628 -0.2372  0.1053
  181SLPC   C3220706   5.047   4.432  10.671 -0.0712  0.4976  0.5870
  181SLPC   H2X20707   5.047   4.530  10.619 -1.0780  0.3631  0.2969
  181SLPC   H2Y20708   4.951   4.427  10.728 -0.4784  0.6623 -0.0671
  181SLPC   C2320709   5.650   4.344  10.289 -0.6652  0.4550  0.3594
  181SLPC   H3R20710   5.574   4.266  10.268 -0.4722 -0.0812  1.5615
  181SLPC   H3S20711   5.733   4.291  10.341 -0.9523  0.3092  0.6699
  181SLPC   C2420712   5.695   4.386  10.144  0.3378 -0.2910  0.1544
  181SLPC   H4R20713   5.604   4.403  10.082 -1.1260 -0.2645  2.1866
  181SLPC   H4S20714   5.750   4.303  10.096  2.2522  0.5310  0.8385
  181SLPC   C2520715   5.784   4.509  10.161  0.5289 -0.0299 -0.2210
  181SLPC   H5R20716   5.868   4.484  10.230  1.9436  1.2587 -1.3962
  181SLPC   H5S20717   5.746   4.604  10.204  1.5843  0.3377 -0.0591
  181SLPC   C2620718   5.854   4.546  10.032  0.2969  0.3780  0.2416
  181SLPC   H6R20719   5.782   4.608   9.973 -1.0991  0.2710  1.7551
  181SLPC   H6S20720   5.872   4.455   9.972 -2.4490  1.2622 -2.1943
  181SLPC   C2720721   5.970   4.635  10.066 -0.3781 -0.0229 -0.2977
  181SLPC   H7R20722   6.034   4.601  10.150 -1.5059  1.1914  1.1119
  181SLPC   H7S20723   5.920   4.723  10.112 -1.1703 -0.6001 -0.0441
  181SLPC   C2820724   6.053   4.677   9.947  0.0462  0.1869 -0.4779
  181SLPC   H8R20725   6.132   4.750   9.977  0.0549 -0.6739  1.8148
  181SLPC   H8S20726   5.992   4.737   9.876 -1.7796 -1.2387 -0.1808
  181SLPC   C2920727   6.120   4.552   9.887  0.5310  0.0702 -0.4899
  181SLPC   H9R20728   6.124   4.466   9.955  0.9695  0.9077  0.5797
  181SLPC  C21020729   6.151   4.534   9.756  0.4837  0.0481  0.0486
  181SLPC  H10R20730   6.198   4.439   9.728 -1.9814 -1.5355  0.9424
  181SLPC  C21120731   6.113   4.626   9.642 -0.9010 -0.6128  0.0868
  181SLPC  H11R20732   6.053   4.714   9.673  0.5762  0.1188  1.0204
  181SLPC  H11S20733   6.049   4.571   9.571 -1.1182 -0.9137  0.5087
  181SLPC  C21220734   6.242   4.676   9.573  0.6993  0.2354 -0.0836
  181SLPC  H12R20735   6.277   4.775   9.606 -0.1015  0.8581 -1.0592
  181SLPC  C21320736   6.305   4.618   9.462  0.8833 -0.2150 -0.7283
  181SLPC  H13R20737   6.397   4.663   9.424 -0.2967  2.2544 -0.8639
  181SLPC  C21420738   6.268   4.487   9.390 -0.5469  0.1078  0.2205
  181SLPC  H14R20739   6.202   4.435   9.462  1.4029 -2.2284  0.4681
  181SLPC  H14S20740   6.354   4.422   9.362  0.9813  0.9369  2.6818
  181SLPC  C21520741   6.213   4.506   9.252  0.8355 -0.4507 -0.0316
  181SLPC  H15R20742   6.197   4.398   9.229  2.2207 -0.9048  0.9662
  181SLPC  H15S20743   6.287   4.564   9.193 -0.5471  2.1975  0.6928
  181SLPC  C21620744   6.077   4.570   9.252 -0.2884 -0.4130 -0.4368
  181SLPC  H16R20745   6.079   4.680   9.267 -1.2972 -0.3015 -1.0429
  181SLPC  H16S20746   6.027   4.537   9.345  3.0166  1.3486  2.1969
  181SLPC  C21720747   5.988   4.544   9.122  0.3252 -0.6078 -0.5451
  181SLPC  H17R20748   5.959   4.437   9.131  1.5194 -0.8433  1.0154
  181SLPC  H17S20749   6.050   4.561   9.032  0.5567 -1.4327 -0.5523
  181SLPC  C21820750   5.868   4.637   9.124 -0.4441  0.2831 -0.0832
  181SLPC  H18R20751   5.902   4.735   9.164 -2.5153  0.4010  1.5586
  181SLPC  H18S20752   5.784   4.610   9.191 -1.0636  0.6219 -0.7114
  181SLPC  H18T20753   5.818   4.649   9.026  0.4665  1.3316 -0.4357
  181SLPC   C3320754   5.048   4.304  10.583  0.2307 -0.4580 -0.0128
  181SLPC   H3X20755   4.945   4.275  10.555  0.0025 -0.0539  0.3832
  181SLPC   H3Y20756   5.094   4.230  10.653  2.5080  1.9404  1.2374
  181SLPC   C3420757   5.140   4.315  10.460  0.3681 -0.6800 -0.6512
  181SLPC   H4X20758   5.134   4.213  10.416 -1.1852  0.1494 -2.4868
  181SLPC   H4Y20759   5.243   4.336  10.498  0.2466  0.5648 -0.9607
  181SLPC   C3520760   5.098   4.424  10.370 -0.8487 -0.4752 -0.1076
  181SLPC   H5X20761   5.123   4.524  10.411 -1.7959 -0.1886 -0.2129
  181SLPC   H5Y20762   4.988   4.419  10.358 -0.8055 -0.7105 -0.4285
  181SLPC   C3620763   5.159   4.418  10.228 -0.1765  0.1613 -0.2572
  181SLPC   H6X20764   5.121   4.326  10.180  1.8042 -1.8856  1.8406
  181SLPC   H6Y20765   5.269   4.411  10.246  0.0629  1.5674 -0.9937
  181SLPC   C3720766   5.149   4.540  10.143  0.5922  0.1478 -0.4762
  181SLPC   H7X20767   5.178   4.626  10.207  0.1902  0.1689 -0.3190
  181SLPC   H7Y20768   5.041   4.544  10.117  0.0369  0.4509  1.7040
  181SLPC   C3820769   5.239   4.546  10.022  0.1882 -0.2745 -0.3303
  181SLPC   H8X20770   5.343   4.538  10.062 -1.1710 -0.7435  3.6131
  181SLPC   H8Y20771   5.223   4.641   9.968 -2.1336  1.2770  2.7555
  181SLPC   C3920772   5.213   4.442   9.915 -0.1931  0.8269  0.2281
  181SLPC   H9X20773   5.113   4.461   9.872 -0.7693  2.3742  2.1268
  181SLPC   H9Y20774   5.211   4.340   9.958  0.2075  0.6243 -0.2224
  181SLPC  C31020775   5.315   4.452   9.807  0.2426 -0.9763  0.0487
  181SLPC  H10X20776   5.414   4.405   9.823  0.3105 -0.6350  0.6477
  181SLPC  H10Y20777   5.329   4.560   9.784  0.1147 -1.0707 -0.5057
  181SLPC  C31120778   5.262   4.392   9.678  0.5712  0.0041  0.0046
  181SLPC  H11X20779   5.162   4.436   9.661  0.2322  0.7694  3.2754
  181SLPC  H11Y20780   5.239   4.284   9.689 -1.6582  0.2657 -1.3320
  181SLPC  C31220781   5.363   4.412   9.569  0.5163  0.2644  1.0107
  181SLPC  H12X20782   5.440   4.333   9.581  1.9663  1.0236 -2.1346
  181SLPC  H12Y20783   5.421   4.506   9.580  0.9860  0.0930  0.1250
  181SLPC  C31320784   5.314   4.388   9.424  0.6665 -0.5253 -0.3553
  181SLPC  H13X20785   5.246   4.300   9.433  1.4520 -1.2531 -1.2594
  181SLPC  H13Y20786   5.397   4.339   9.368  0.3781 -3.5763  1.6452
  181SLPC  C31420787   5.244   4.513   9.356 -0.8432 -0.1337 -0.4540
  181SLPC  H14X20788   5.309   4.601   9.375 -0.4983 -0.2787 -0.9546
  181SLPC  H14Y20789   5.148   4.527   9.411 -0.9592 -1.5376 -0.2648
  181SLPC  C31520790   5.211   4.478   9.212  0.9589  0.2870  0.2248
  181SLPC  H15X20791   5.300   4.435   9.163  0.4380 -0.0558 -0.4304
  181SLPC  H15Y20792   5.178   4.564   9.151 -0.7251 -0.9094 -0.6567
  181SLPC  C31620793   5.094   4.383   9.179 -0.3649 -0.5045 -0.5161
  181SLPC  H16X20794   4.999   4.422   9.221  0.2541  0.3356  0.1354
  181SLPC  H16Y20795   5.110   4.286   9.230 -1.3555 -1.3637 -1.7833
  181SLPC  C31720796   5.089   4.354   9.024 -0.2149  0.3836 -0.4650
  181SLPC  H17X20797   5.133   4.445   8.977 -0.0106  0.6196  0.1774
  181SLPC  H17Y20798   4.983   4.342   8.993 -0.5665 -0.1594  0.9059
  181SLPC  C31820799   5.179   4.244   8.976 -0.2284 -0.6949 -1.2032
  181SLPC  H18X20800   5.136   4.143   8.993 -3.1433  0.7992  1.3719
  181SLPC  H18Y20801   5.278   4.237   9.024 -0.4352 -2.8291 -0.9701
  181SLPC  H18Z20802   5.192   4.257   8.867 -2.0227 -0.6141 -1.4424
  182SLPC     N20803   3.823   0.125  10.796  0.2849  0.4633  0.6986
  182SLPC   C1320804   3.912   0.023  10.729 -0.5396 -0.0833  0.3223
  182SLPC  H13A20805   3.862  -0.054  10.672 -0.3870 -1.5436  2.0790
  182SLPC  H13B20806   3.985   0.075  10.669  0.9146  2.6550  4.0457
  182SLPC  H13C20807   3.965  -0.036  10.802  0.8211 -0.0362 -0.6047
  182SLPC   C1420808   3.901   0.232  10.849  0.2254  0.4859  0.0411
  182SLPC  H14A20809   3.983   0.189  10.905 -1.8656 -0.0992  2.8790
  182SLPC  H14B20810   3.937   0.303  10.776  0.9826 -1.2267 -1.3447
  182SLPC  H14C20811   3.852   0.283  10.930  1.0244  0.7294  0.3808
  182SLPC   C1520812   3.741   0.057  10.908 -0.2907 -0.8008  0.1267
  182SLPC  H15A20813   3.807   0.000  10.972  2.2447 -0.1880 -1.7761
  182SLPC  H15B20814   3.689   0.126  10.973  2.2770  1.4156  0.0081
  182SLPC  H15C20815   3.680  -0.018  10.859 -0.7200  0.5442 -1.5038
  182SLPC   C1220816   3.731   0.190  10.690 -0.0491  0.3670 -0.0175
  182SLPC  H12A20817   3.794   0.235  10.614  0.0451 -0.6848 -0.5705
  182SLPC  H12B20818   3.692   0.278  10.739  2.3441  1.3073  0.3697
  182SLPC   C1120819   3.622   0.119  10.614  0.1750  1.0583 -0.1917
  182SLPC  H11A20820   3.669   0.058  10.535 -2.6527 -0.6659 -0.6702
  182SLPC  H11B20821   3.560   0.186  10.551 -1.2118  1.4613  1.5224
  182SLPC     P20822   3.407   0.067  10.754  0.2992 -0.0420 -0.1702
  182SLPC   O1320823   3.378  -0.043  10.847 -0.4998  0.2725  0.1743
  182SLPC   O1420824   3.408   0.213  10.802  0.1608 -0.1613 -0.1825
  182SLPC   O1220825   3.547   0.037  10.700 -0.3120 -0.3739  0.1820
  182SLPC   O1120826   3.322   0.051  10.618  0.2458 -0.5991 -0.3444
  182SLPC    C120827   3.315  -0.082  10.556 -0.7098  0.3179  0.4063
  182SLPC    HA20828   3.384  -0.153  10.607 -1.0472  0.2941  0.8389
  182SLPC    HB20829   3.212  -0.125  10.558 -0.7370  0.1811 -1.8763
  182SLPC    C220830   3.369  -0.075  10.415  0.2418  0.0438  0.2700
  182SLPC    HS20831   3.473  -0.034  10.415  0.8971 -1.5356  0.3710
  182SLPC   O2120832   3.280   0.002  10.339  0.4542  0.5008  0.2341
  182SLPC   C2120833   3.327   0.057  10.230 -0.6218 -0.2909  1.2191
  182SLPC   O2220834   3.443   0.056  10.187 -0.3631 -0.1653  0.3544
  182SLPC   C2220835   3.216   0.135  10.165  0.4855  0.1275 -0.3961
  182SLPC   H2R20836   3.141   0.157  10.244  2.0677 -0.7281  1.4306
  182SLPC   H2S20837   3.266   0.230  10.137  2.0258  0.4242  2.9489
  182SLPC    C320838   3.379  -0.214  10.352 -0.5978  0.1698  0.8851
  182SLPC    HX20839   3.276  -0.255  10.345 -1.0991  0.9693  2.7694
  182SLPC    HY20840   3.439  -0.273  10.425  1.5528 -1.6834 -2.1724
  182SLPC   O3120841   3.448  -0.209  10.228 -0.6537  0.1455  0.2623
  182SLPC   C3120842   3.578  -0.182  10.231 -0.7227 -0.4598  0.5558
  182SLPC   O3220843   3.651  -0.179  10.330  0.1651  0.0527  0.5235
  182SLPC   C3220844   3.643  -0.180  10.093  0.3696  0.7552 -0.1837
  182SLPC   H2X20845   3.607  -0.092  10.037  0.4477  1.3670  0.7046
  182SLPC   H2Y20846   3.604  -0.274  10.050  2.1733 -0.3941  0.5529
  182SLPC   C2320847   3.147   0.073  10.037 -0.2352 -0.4574 -0.3189
  182SLPC   H3R20848   3.218   0.055   9.953 -0.5691  3.4131 -1.6006
  182SLPC   H3S20849   3.081   0.158  10.012  0.4481  0.2161  0.1422
  182SLPC   C2420850   3.066  -0.059  10.059 -0.6807 -0.3007 -0.4613
  182SLPC   H4R20851   3.011  -0.062  10.155 -0.0036 -0.3211 -0.0772
  182SLPC   H4S20852   3.145  -0.137  10.060 -0.4733 -0.0862  0.4833
  182SLPC   C2520853   2.967  -0.085   9.955  0.6742 -0.6832 -0.0569
  182SLPC   H5R20854   2.894  -0.004   9.934 -2.3829 -2.8755  1.3563
  182SLPC   H5S20855   2.905  -0.172   9.985  0.2011 -0.7429 -1.1394
  182SLPC   C2620856   3.018  -0.138   9.820  0.2929  0.9510  0.4180
  182SLPC   H6R20857   3.092  -0.212   9.857  0.3751  0.8571  0.0709
  182SLPC   H6S20858   3.082  -0.062   9.769 -2.2866  2.2649 -1.0902
  182SLPC   C2720859   2.907  -0.184   9.724  0.1295  0.0708  0.0676
  182SLPC   H7R20860   2.852  -0.092   9.693  2.2075  0.7768 -1.7900
  182SLPC   H7S20861   2.841  -0.258   9.774 -0.5710  2.4901  3.0799
  182SLPC   C2820862   2.960  -0.241   9.587  0.4870 -0.2239 -0.3321
  182SLPC   H8R20863   2.877  -0.262   9.516  1.2024  0.3340 -1.3378
  182SLPC   H8S20864   3.010  -0.334   9.620 -0.2134  0.1808  2.1056
  182SLPC   C2920865   3.052  -0.133   9.523 -0.1453  0.0470  0.2680
  182SLPC   H9R20866   3.157  -0.128   9.556  0.3084 -1.1054 -0.8877
  182SLPC  C21020867   3.019  -0.054   9.414  0.1792  0.1566  0.1854
  182SLPC  H10R20868   3.098   0.017   9.386  0.4629 -1.1660 -2.6946
  182SLPC  C21120869   2.886  -0.054   9.328 -0.6696  0.3393 -1.5042
  182SLPC  H11R20870   2.829  -0.150   9.327  0.5519 -0.4006 -2.2976
  182SLPC  H11S20871   2.909  -0.039   9.220 -2.3279  1.4961 -1.7327
  182SLPC  C21220872   2.803   0.050   9.388  0.3580  0.2778  0.9766
  182SLPC  H12R20873   2.820   0.061   9.496  2.6180  2.0362  0.5433
  182SLPC  C21320874   2.718   0.137   9.332  0.3408  0.5126  0.0989
  182SLPC  H13R20875   2.670   0.210   9.399  2.9640  0.2673  2.5003
  182SLPC  C21420876   2.684   0.153   9.188 -0.5482  0.2659 -0.0220
  182SLPC  H14R20877   2.780   0.130   9.137 -0.5957  1.0623 -0.4987
  182SLPC  H14S20878   2.661   0.259   9.163  2.2151  0.9558  0.0144
  182SLPC  C21520879   2.579   0.058   9.138 -0.9039 -0.2666  0.5703
  182SLPC  H15R20880   2.486   0.092   9.187  0.0174  1.0467  1.4689
  182SLPC  H15S20881   2.609  -0.045   9.164  0.5870  0.1793  0.7053
  182SLPC  C21620882   2.558   0.073   8.987 -0.1626  0.1899 -0.8581
  182SLPC  H16R20883   2.649   0.021   8.950  0.1430 -1.3926  1.8228
  182SLPC  H16S20884   2.552   0.182   8.969  2.7501  0.9821  1.9463
  182SLPC  C21720885   2.424   0.006   8.953 -0.0260 -0.1847 -0.7351
  182SLPC  H17R20886   2.346   0.055   9.015  0.0818  1.1118 -1.5744
  182SLPC  H17S20887   2.426  -0.103   8.975 -4.4657 -0.0155  1.5642
  182SLPC  C21820888   2.409   0.027   8.800 -0.4029 -0.2439  0.6239
  182SLPC  H18R20889   2.327  -0.031   8.751 -0.2930  0.8186 -0.8917
  182SLPC  H18S20890   2.498  -0.013   8.747  0.7070  1.6808  0.9680
  182SLPC  H18T20891   2.386   0.130   8.767  0.0677 -1.0450 -2.5331
  182SLPC   C3320892   3.796  -0.187  10.102  0.4530 -0.5610 -0.6144
  182SLPC   H3X20893   3.833  -0.251  10.185 -0.0381 -1.1615 -0.8455
  182SLPC   H3Y20894   3.834  -0.087  10.131 -0.8531 -0.4385  0.7983
  182SLPC   C3420895   3.843  -0.241   9.970  0.4520  0.3799 -1.0766
  182SLPC   H4X20896   3.951  -0.215   9.976  0.2514  0.8234  2.1466
  182SLPC   H4Y20897   3.806  -0.192   9.877  0.7154  0.5261 -1.1053
  182SLPC   C3520898   3.838  -0.395   9.947 -0.9925  0.2337 -0.7627
  182SLPC   H5X20899   3.731  -0.422   9.963 -1.0086  0.3787 -0.6134
  182SLPC   H5Y20900   3.909  -0.441  10.019 -2.2845  0.1662  0.5257
  182SLPC   C3620901   3.889  -0.455   9.817  0.3640  0.2236 -0.0533
  182SLPC   H6X20902   3.914  -0.563   9.822 -2.1024 -0.4416 -0.8013
  182SLPC   H6Y20903   3.980  -0.398   9.787 -0.3970  0.9287 -1.1111
  182SLPC   C3720904   3.792  -0.455   9.699  0.6974 -0.5028  0.1623
  182SLPC   H7X20905   3.773  -0.350   9.670  0.4576 -0.9791 -1.5051
  182SLPC   H7Y20906   3.693  -0.500   9.718  1.2571 -2.1355 -0.6173
  182SLPC   C3820907   3.847  -0.511   9.566  0.5750 -0.3591 -0.1475
  182SLPC   H8X20908   3.874  -0.618   9.576  0.8858 -0.1848  0.9744
  182SLPC   H8Y20909   3.929  -0.451   9.522  0.6864 -1.2090 -1.1365
  182SLPC   C3920910   3.742  -0.518   9.453 -0.1524 -0.1645  0.1884
  182SLPC   H9X20911   3.688  -0.421   9.443 -1.0690 -0.8130 -1.5317
  182SLPC   H9Y20912   3.673  -0.601   9.480  0.7647 -1.3140 -0.8513
  182SLPC  C31020913   3.802  -0.555   9.316  0.0916 -0.2885  0.3645
  182SLPC  H10X20914   3.709  -0.565   9.256 -0.0473  0.0805  0.5184
  182SLPC  H10Y20915   3.857  -0.650   9.332  0.0083 -0.1156  1.7760
  182SLPC  C31120916   3.891  -0.452   9.255  0.1152 -0.0954 -0.1122
  182SLPC  H11X20917   3.997  -0.447   9.290  1.5992 -2.7345 -3.6201
  182SLPC  H11Y20918   3.854  -0.349   9.275  2.1645  0.9889 -1.5301
  182SLPC  C31220919   3.896  -0.475   9.101 -0.3582 -0.5813 -0.2754
  182SLPC  H12X20920   3.794  -0.499   9.064 -0.7423 -0.6110  0.7505
  182SLPC  H12Y20921   3.963  -0.561   9.079 -1.3890 -1.0541 -1.6771
  182SLPC  C31320922   3.948  -0.354   9.018  0.1878 -0.0804 -0.0595
  182SLPC  H13X20923   4.045  -0.325   9.064 -0.9615 -0.0790  2.6052
  182SLPC  H13Y20924   3.879  -0.270   9.043  0.0911  0.7580 -2.8518
  182SLPC  C31420925   3.944  -0.388   8.870 -0.5113  0.1210  0.2513
  182SLPC  H14X20926   3.842  -0.399   8.829 -0.7339 -3.2463  1.4021
  182SLPC  H14Y20927   4.004  -0.479   8.850 -1.0636 -0.1683 -0.1068
  182SLPC  C31520928   4.009  -0.279   8.780  0.0584 -0.5311 -0.6740
  182SLPC  H15X20929   4.011  -0.315   8.675  0.4061 -1.7239 -0.2689
  182SLPC  H15Y20930   4.112  -0.256   8.816 -1.1645  1.6327  1.7936
  182SLPC  C31620931   3.935  -0.139   8.778 -0.4283 -0.0049 -0.1105
  182SLPC  H16X20932   3.909  -0.095   8.877 -2.3311 -1.3403  0.0418
  182SLPC  H16Y20933   3.832  -0.158   8.741 -1.4403  0.1183  2.4183
  182SLPC  C31720934   4.016  -0.037   8.706 -0.2851  0.4244 -0.0104
  182SLPC  H17X20935   4.058  -0.095   8.622  0.4250  1.4809 -0.4085
  182SLPC  H17Y20936   4.107  -0.019   8.768 -0.9522 -1.5045  1.6354
  182SLPC  C31820937   3.942   0.089   8.660  0.8298 -0.4602  0.1411
  182SLPC  H18X20938   4.005   0.156   8.598 -0.6777 -0.8107 -1.8334
  182SLPC  H18Y20939   3.908   0.147   8.749 -0.5229 -2.0143  0.6854
  182SLPC  H18Z20940   3.856   0.060   8.596 -0.6130  0.5996  1.5162
  183SLPC     N20941   4.580   6.712  11.063 -0.0850  0.1318 -0.2898
  183SLPC   C1320942   4.614   6.733  11.206 -0.1489 -0.7338  0.1592
  183SLPC  H13A20943   4.660   6.828  11.232 -2.2325  0.0782  1.0706
  183SLPC  H13B20944   4.523   6.744  11.264 -0.0626  0.1108  0.1522
  183SLPC  H13C20945   4.675   6.655  11.248  0.8841 -0.1729 -0.2545
  183SLPC   C1420946   4.502   6.829  11.012  0.1348 -0.2789 -0.0804
  183SLPC  H14A20947   4.410   6.847  11.066 -0.4508  2.9766 -1.9027
  183SLPC  H14B20948   4.561   6.917  11.034 -1.1180  0.0296  2.4535
  183SLPC  H14C20949   4.470   6.828  10.909 -0.4626 -1.4410  0.1022
  183SLPC   C1520950   4.505   6.587  11.047  0.5102 -0.0942 -0.6012
  183SLPC  H15A20951   4.554   6.511  11.106 -1.6246  0.7135  2.4199
  183SLPC  H15B20952   4.405   6.599  11.085  0.2057 -2.3197 -0.5366
  183SLPC  H15C20953   4.515   6.568  10.941  2.0381  2.1362 -0.9233
  183SLPC   C1220954   4.702   6.710  10.978  0.0009  0.1381 -0.2591
  183SLPC  H12A20955   4.768   6.639  11.025  0.0940  0.3201 -0.1140
  183SLPC  H12B20956   4.745   6.809  10.981 -1.5449  0.8414  0.0028
  183SLPC   C1120957   4.693   6.672  10.823  0.0857 -0.5047  0.5469
  183SLPC  H11A20958   4.794   6.693  10.779 -0.5293 -0.2263 -0.7880
  183SLPC  H11B20959   4.611   6.735  10.784  0.1845  0.3258  1.6403
  183SLPC     P20960   4.780   6.425  10.820 -0.2272 -0.2623  0.0085
  183SLPC   O1320961   4.904   6.475  10.880  0.2112 -0.0806  0.2791
  183SLPC   O1420962   4.731   6.307  10.886 -0.0871  0.3070 -0.7197
  183SLPC   O1220963   4.666   6.531  10.814  0.3137  0.1982  0.8473
  183SLPC   O1120964   4.804   6.393  10.661 -0.9869  0.1917  0.5896
  183SLPC    C120965   4.757   6.480  10.556 -0.4594 -0.5138 -0.2401
  183SLPC    HA20966   4.651   6.511  10.567  0.3556  1.8663  1.8316
  183SLPC    HB20967   4.826   6.566  10.567 -1.3593  0.0799  0.9241
  183SLPC    C220968   4.784   6.425  10.414 -0.5286  0.8612  0.1549
  183SLPC    HS20969   4.746   6.493  10.334 -1.6039  0.6809  0.4951
  183SLPC   O2120970   4.720   6.293  10.401 -0.5596  0.3125  0.8643
  183SLPC   C2120971   4.605   6.297  10.328 -0.3650  0.2484 -0.3885
  183SLPC   O2220972   4.556   6.401  10.281 -0.2270  0.0060 -0.0913
  183SLPC   C2220973   4.548   6.164  10.332 -0.0784  0.6775 -0.5592
  183SLPC   H2R20974   4.633   6.093  10.333  0.3904  1.2169 -1.2626
  183SLPC   H2S20975   4.483   6.161  10.423  0.5012  2.5214 -0.0376
  183SLPC    C320976   4.945   6.402  10.397  0.6168 -0.5827 -0.5094
  183SLPC    HX20977   4.985   6.329  10.471  1.8048  0.8729  0.3523
  183SLPC    HY20978   4.984   6.502  10.426  0.0868 -0.4600 -0.2111
  183SLPC   O3120979   4.973   6.371  10.261  0.5601  0.3003  0.1096
  183SLPC   C3120980   4.980   6.246  10.226 -0.1592 -0.0045 -0.1052
  183SLPC   O3220981   4.971   6.157  10.310 -0.3499  0.1201 -0.2370
  183SLPC   C3220982   5.006   6.217  10.077  0.5450 -0.1113 -0.2231
  183SLPC   H2X20983   5.115   6.196  10.077  0.9467  1.5334  2.3513
  183SLPC   H2Y20984   4.986   6.305  10.013  0.9540  0.4502  0.4054
  183SLPC   C2320985   4.458   6.135  10.212 -0.5917  0.3418 -0.7322
  183SLPC   H3R20986   4.492   6.203  10.131 -0.5513 -0.1564 -1.1370
  183SLPC   H3S20987   4.352   6.154  10.241 -0.2158  0.1194  0.9021
  183SLPC   C2420988   4.474   5.991  10.170 -0.3866 -0.5130 -0.0007
  183SLPC   H4R20989   4.584   5.983  10.162 -0.2207  2.1249 -1.7295
  183SLPC   H4S20990   4.422   5.970  10.073  0.7071 -1.1729 -0.4559
  183SLPC   C2520991   4.440   5.903  10.280 -0.1579 -1.3701  0.2290
  183SLPC   H5R20992   4.331   5.909  10.301  0.3711  2.3567  2.7864
  183SLPC   H5S20993   4.492   5.927  10.375 -0.8906 -1.6983  0.7244
  183SLPC   C2620994   4.472   5.763  10.244 -0.5288  0.5951  0.6302
  183SLPC   H6R20995   4.581   5.744  10.251 -0.3900  1.5615  1.4148
  183SLPC   H6S20996   4.445   5.747  10.138 -1.2525  0.0265  0.8895
  183SLPC   C2720997   4.400   5.666  10.334 -0.0906 -0.5031  0.0813
  183SLPC   H7R20998   4.290   5.678  10.326  0.0765  0.4770 -1.0114
  183SLPC   H7S20999   4.414   5.687  10.443 -2.9919  0.6948  0.3127
  183SLPC   C2821000   4.426   5.522  10.305  0.2876  0.6293 -0.1388
  183SLPC   H8R21001   4.411   5.506  10.196  2.6320 -0.3151 -0.3943
  183SLPC   H8S21002   4.365   5.446  10.359  0.4766  0.1584 -0.5744
  183SLPC   C2921003   4.572   5.483  10.343  0.7963  0.3777 -0.1903
  183SLPC   H9R21004   4.580   5.468  10.452 -1.9674  1.3087  0.2208
  183SLPC  C21021005   4.675   5.472  10.252  0.4280  0.3336  0.0583
  183SLPC  H10R21006   4.769   5.433  10.293  0.8835  1.2290 -0.1092
  183SLPC  C21121007   4.676   5.480  10.097 -0.5965  0.0952  0.5629
  183SLPC  H11R21008   4.570   5.479  10.065 -0.6547 -5.0800  0.2173
  183SLPC  H11S21009   4.735   5.397  10.054  0.3615  0.6205  0.8122
  183SLPC  C21221010   4.751   5.603  10.044  0.8500  0.2957  0.4309
  183SLPC  H12R21011   4.848   5.610  10.096  1.5178  0.0226 -0.7454
  183SLPC  C21321012   4.714   5.701   9.962  0.0191  0.2053 -0.0128
  183SLPC  H13R21013   4.793   5.774   9.939 -0.1289  0.2184 -0.4965
  183SLPC  C21421014   4.581   5.709   9.893 -0.1395  0.5191 -0.5781
  183SLPC  H14R21015   4.542   5.811   9.914  0.0564  0.1900  1.5142
  183SLPC  H14S21016   4.511   5.629   9.925  1.6230 -1.6168 -1.7900
  183SLPC  C21521017   4.594   5.678   9.741 -0.0856 -0.3655 -0.2626
  183SLPC  H15R21018   4.641   5.578   9.735  0.0195 -0.2836 -0.9257
  183SLPC  H15S21019   4.660   5.752   9.691  0.0909  1.0191  1.8817
  183SLPC  C21621020   4.462   5.678   9.658  0.0643 -0.0591 -0.2035
  183SLPC  H16R21021   4.368   5.676   9.717 -0.2714 -1.0847 -0.7573
  183SLPC  H16S21022   4.459   5.586   9.596  0.1860 -0.8607  0.9517
  183SLPC  C21721023   4.459   5.785   9.552 -0.3273  0.8033  0.2411
  183SLPC  H17R21024   4.554   5.793   9.495 -0.3133  1.5490  0.3559
  183SLPC  H17S21025   4.449   5.879   9.611  2.7580  0.9379  0.7021
  183SLPC  C21821026   4.341   5.777   9.461  0.1486  0.6934 -0.1449
  183SLPC  H18R21027   4.332   5.682   9.404  3.1582 -1.1637  2.1616
  183SLPC  H18S21028   4.346   5.868   9.398  3.0094  1.1061  0.5609
  183SLPC  H18T21029   4.255   5.802   9.527 -1.0387  2.1247 -2.1241
  183SLPC   C3321030   4.934   6.083  10.024 -0.3684 -0.0137  0.3151
  183SLPC   H3X21031   4.836   6.065  10.073 -1.4704 -2.8419 -2.5768
  183SLPC   H3Y21032   4.995   5.991  10.030 -0.5355 -0.0686  1.2057
  183SLPC   C3421033   4.921   6.103   9.870 -0.9807  0.5687 -0.1556
  183SLPC   H4X21034   4.864   6.198   9.861 -0.4976  1.0113  1.1517
  183SLPC   H4Y21035   4.857   6.025   9.824  0.9771  0.2550 -2.5281
  183SLPC   C3521036   5.059   6.097   9.796 -0.4269  0.2470 -0.3233
  183SLPC   H5X21037   5.118   6.015   9.842 -1.5195 -0.5624 -0.3121
  183SLPC   H5Y21038   5.120   6.184   9.827 -0.9482  0.2741  0.6629
  183SLPC   C3621039   5.075   6.083   9.644  0.2942  0.3349 -0.8055
  183SLPC   H6X21040   5.185   6.083   9.623  0.5578 -1.4694  0.3260
  183SLPC   H6Y21041   5.048   6.174   9.586  1.1567  0.9503 -0.2682
  183SLPC   C3721042   5.009   5.953   9.592  0.3618  0.4199  0.7848
  183SLPC   H7X21043   4.903   5.979   9.612  0.2856 -0.4142  1.4978
  183SLPC   H7Y21044   5.041   5.863   9.648  0.8009  0.0118 -0.0946
  183SLPC   C3821045   5.014   5.930   9.436 -0.9121 -0.9725  0.7107
  183SLPC   H8X21046   5.110   5.881   9.411 -0.8847 -0.4477 -0.2559
  183SLPC   H8Y21047   5.005   6.022   9.374 -0.8012 -1.5939 -0.2591
  183SLPC   C3921048   4.914   5.826   9.385  0.0248  0.9288 -0.0511
  183SLPC   H9X21049   4.814   5.854   9.423  0.4247  0.6372  1.2805
  183SLPC   H9Y21050   4.956   5.735   9.432 -0.7811  1.3287  1.5307
  183SLPC  C31021051   4.917   5.809   9.236 -0.6474 -0.5598 -0.5923
  183SLPC  H10X21052   5.006   5.746   9.215  1.2621  2.0487 -0.8358
  183SLPC  H10Y21053   4.929   5.907   9.186 -0.3429  0.5623  1.5609
  183SLPC  C31121054   4.794   5.743   9.166 -0.4801  0.0782  1.0477
  183SLPC  H11X21055   4.763   5.662   9.236 -0.3208  1.5297  2.8791
  183SLPC  H11Y21056   4.816   5.706   9.063 -0.3118 -0.4507  1.2691
  183SLPC  C31221057   4.673   5.836   9.169  0.5314 -0.0207 -0.0578
  183SLPC  H12X21058   4.703   5.918   9.100 -0.4527  2.1132  1.9205
  183SLPC  H12Y21059   4.662   5.884   9.269 -1.9191 -1.2546  0.3348
  183SLPC  C31321060   4.541   5.776   9.126 -0.3399 -0.5426  0.0693
  183SLPC  H13X21061   4.457   5.849   9.127  0.5722  0.5264  1.3722
  183SLPC  H13Y21062   4.514   5.693   9.194 -1.5215 -0.3524 -0.1395
  183SLPC  C31421063   4.529   5.712   8.981 -0.5459 -0.3354 -0.4638
  183SLPC  H14X21064   4.426   5.672   8.968 -1.7485  2.7645 -1.2928
  183SLPC  H14Y21065   4.603   5.629   8.978  0.7964  0.8152 -0.3669
  183SLPC  C31521066   4.541   5.807   8.864  0.1225  0.9902  0.1003
  183SLPC  H15X21067   4.644   5.846   8.853  0.1319  0.8162 -0.4858
  183SLPC  H15Y21068   4.488   5.901   8.889  1.5366  1.9565 -0.4062
  183SLPC  C31621069   4.475   5.760   8.731 -0.9006 -0.5366 -0.2741
  183SLPC  H16X21070   4.365   5.749   8.743 -1.1674  1.1845 -0.7462
  183SLPC  H16Y21071   4.512   5.664   8.690  0.8104  0.1109 -0.3234
  183SLPC  C31721072   4.494   5.871   8.621 -0.1758  0.1228 -0.0425
  183SLPC  H17X21073   4.599   5.906   8.612 -0.0583  0.6598  2.7239
  183SLPC  H17Y21074   4.438   5.958   8.661  0.9390  0.7724  0.1490
  183SLPC  C31821075   4.437   5.827   8.489 -0.1038  0.6886  0.0073
  183SLPC  H18X21076   4.452   5.899   8.405  0.8807  0.8486  0.3065
  183SLPC  H18Y21077   4.330   5.797   8.498 -0.0440 -0.3369 -2.0215
  183SLPC  H18Z21078   4.490   5.736   8.453 -0.4520  0.7263 -0.6285
  184SLPC     N21079   5.582   3.371  10.865  0.6804 -0.1530 -0.9888
  184SLPC   C1321080   5.652   3.244  10.892  0.1197 -0.0703 -0.1099
  184SLPC  H13A21081   5.641   3.215  10.995  1.5147  2.2482  0.7803
  184SLPC  H13B21082   5.605   3.170  10.829 -0.5554  0.2028  0.0644
  184SLPC  H13C21083   5.759   3.250  10.877  0.6946 -3.2882  1.8836
  184SLPC   C1421084   5.663   3.480  10.928 -0.2740  0.7850 -0.6774
  184SLPC  H14A21085   5.759   3.495  10.881  0.9275  2.0241  1.9499
  184SLPC  H14B21086   5.608   3.570  10.908  0.1077  0.9767 -0.8706
  184SLPC  H14C21087   5.678   3.459  11.033  0.9208 -0.4722 -1.0643
  184SLPC   C1521088   5.448   3.362  10.929  0.5517 -0.0502  0.2456
  184SLPC  H15A21089   5.393   3.277  10.890 -1.0582  1.1811 -0.2586
  184SLPC  H15B21090   5.451   3.345  11.036 -0.0055 -1.7499  0.0316
  184SLPC  H15C21091   5.384   3.444  10.904  0.7027  0.1321  0.4585
  184SLPC   C1221092   5.562   3.390  10.712 -0.3360  0.3522  0.6524
  184SLPC  H12A21093   5.528   3.297  10.669 -0.9214  0.6347  0.5074
  184SLPC  H12B21094   5.663   3.412  10.682 -0.7304  0.6764 -0.4635
  184SLPC   C1121095   5.471   3.512  10.673  0.4202 -0.0325  0.1067
  184SLPC  H11A21096   5.366   3.502  10.709  0.4290  0.8778  0.4080
  184SLPC  H11B21097   5.453   3.508  10.563  3.1305  1.3281 -0.4694
  184SLPC     P21098   5.639   3.718  10.653 -0.0415 -0.0939  0.1828
  184SLPC   O1321099   5.592   3.853  10.614  1.1508 -0.2750 -0.2696
  184SLPC   O1421100   5.756   3.714  10.749 -0.3262  0.2124  0.2477
  184SLPC   O1221101   5.523   3.634  10.722  0.0314  0.0608 -0.1949
  184SLPC   O1121102   5.679   3.630  10.523  0.0970 -0.1793 -0.3966
  184SLPC    C121103   5.630   3.657  10.388  0.7813  0.4059 -1.4271
  184SLPC    HA21104   5.600   3.560  10.343  1.9864 -0.0912 -1.2051
  184SLPC    HB21105   5.544   3.726  10.377 -1.5829 -1.6733  2.1116
  184SLPC    C221106   5.744   3.703  10.291  0.3683 -0.0454  0.0833
  184SLPC    HS21107   5.752   3.812  10.313  0.1992  0.6151 -2.7553
  184SLPC   O2121108   5.696   3.680  10.161 -0.5628  0.1979 -0.2260
  184SLPC   C2121109   5.752   3.759  10.069 -0.0814 -1.0286  1.1866
  184SLPC   O2221110   5.829   3.846  10.101 -0.0929 -0.1123 -0.2283
  184SLPC   C2221111   5.681   3.722   9.944  0.4517  0.3134  0.3027
  184SLPC   H2R21112   5.574   3.733   9.971 -0.2619 -0.7783 -1.8251
  184SLPC   H2S21113   5.703   3.800   9.868  0.7784  0.7639  0.8510
  184SLPC    C321114   5.881   3.629  10.326  0.2709 -0.0070  0.2977
  184SLPC    HX21115   5.875   3.519  10.314  1.3446  0.2094 -3.9416
  184SLPC    HY21116   5.902   3.641  10.434  0.3038  5.5476 -0.0021
  184SLPC   O3121117   5.995   3.683  10.251  0.4700 -0.4074 -0.3260
  184SLPC   C3121118   6.048   3.613  10.155  0.0292  0.4621  0.5176
  184SLPC   O3221119   6.023   3.495  10.126 -0.1628 -0.5647  0.3963
  184SLPC   C3221120   6.148   3.704  10.087  0.3153  0.8341  1.0469
  184SLPC   H2X21121   6.233   3.742  10.149  1.0052 -0.2572  0.7978
  184SLPC   H2Y21122   6.090   3.790  10.047 -1.1511 -0.1189  1.0725
  184SLPC   C2321123   5.703   3.579   9.895 -0.7034  0.0519 -0.1670
  184SLPC   H3R21124   5.628   3.561   9.815  1.0263 -0.5501 -1.7214
  184SLPC   H3S21125   5.682   3.497   9.968 -1.3229 -0.6430 -1.1037
  184SLPC   C2421126   5.841   3.563   9.824 -0.4733 -0.1893 -0.5495
  184SLPC   H4R21127   5.857   3.454   9.810 -1.9009 -0.3172 -1.2982
  184SLPC   H4S21128   5.928   3.588   9.889  0.5943 -1.8329 -1.2599
  184SLPC   C2521129   5.841   3.646   9.692  0.6925  0.1092 -0.3207
  184SLPC   H5R21130   5.845   3.754   9.716 -0.9404  0.1517 -0.1181
  184SLPC   H5S21131   5.749   3.623   9.635  0.6054  1.1978 -0.6483
  184SLPC   C2621132   5.966   3.621   9.614 -0.0219  0.3741 -0.2670
  184SLPC   H6R21133   5.973   3.513   9.591  0.9039  0.1881  0.7719
  184SLPC   H6S21134   6.057   3.657   9.667 -0.4271 -1.2346  1.6063
  184SLPC   C2721135   5.958   3.699   9.481  0.6476 -0.2687 -0.4939
  184SLPC   H7R21136   6.054   3.680   9.427  1.4918 -0.0395  0.8966
  184SLPC   H7S21137   5.939   3.807   9.495  0.8175 -0.4611  1.3696
  184SLPC   C2821138   5.847   3.657   9.383  0.0871  0.7460  0.5729
  184SLPC   H8R21139   5.851   3.727   9.297  2.5928  0.0691  0.0536
  184SLPC   H8S21140   5.748   3.678   9.426 -0.2597 -0.1135  0.2213
  184SLPC   C2921141   5.844   3.518   9.332  0.1003  0.0142 -0.1930
  184SLPC   H9R21142   5.807   3.446   9.408 -0.7465  0.8922  0.2471
  184SLPC  C21021143   5.842   3.473   9.201  0.1582 -0.1640 -0.9986
  184SLPC  H10R21144   5.843   3.364   9.189  3.7338 -0.5348  0.9781
  184SLPC  C21121145   5.841   3.556   9.073 -0.6980  0.2703 -0.1554
  184SLPC  H11R21146   5.830   3.664   9.097  3.2047  0.8146 -0.2020
  184SLPC  H11S21147   5.752   3.538   9.009  0.0092 -0.3135 -0.9934
  184SLPC  C21221148   5.970   3.575   8.995 -1.0952 -0.4834  0.4519
  184SLPC  H12R21149   6.060   3.574   9.059 -0.1165  1.9541 -0.7875
  184SLPC  C21321150   5.986   3.600   8.862  0.5137  1.2218  1.1673
  184SLPC  H13R21151   6.088   3.609   8.821 -0.5308  1.1058 -1.7268
  184SLPC  C21421152   5.883   3.599   8.749 -0.4360  0.1499 -0.3090
  184SLPC  H14R21153   5.783   3.566   8.785 -0.2562 -1.4073 -1.1602
  184SLPC  H14S21154   5.907   3.524   8.670 -0.9476  0.9283 -1.2277
  184SLPC  C21521155   5.874   3.738   8.684  0.1143  0.1332 -1.2402
  184SLPC  H15R21156   5.964   3.766   8.626 -0.9494 -0.0360 -3.0506
  184SLPC  H15S21157   5.836   3.812   8.758 -0.8765 -0.5216 -1.0681
  184SLPC  C21621158   5.769   3.743   8.573  0.0744 -0.2613 -0.3974
  184SLPC  H16R21159   5.674   3.715   8.623 -0.4080 -0.4855 -1.4206
  184SLPC  H16S21160   5.783   3.668   8.492  2.4447 -0.6283  0.2691
  184SLPC  C21721161   5.745   3.885   8.511 -0.3327  0.1778 -0.1156
  184SLPC  H17R21162   5.840   3.921   8.464 -0.3038  1.2159  0.7231
  184SLPC  H17S21163   5.733   3.945   8.603 -0.3772 -1.7673  1.1980
  184SLPC  C21821164   5.626   3.875   8.416 -0.0009 -0.2895  0.3273
  184SLPC  H18R21165   5.612   3.977   8.374 -0.9996  0.7822  2.9842
  184SLPC  H18S21166   5.537   3.856   8.481 -0.7173  0.6477 -0.3468
  184SLPC  H18T21167   5.649   3.800   8.338  0.1473 -1.4647  1.4723
  184SLPC   C3321168   6.218   3.633   9.961 -0.2127  0.3461  0.3097
  184SLPC   H3X21169   6.139   3.595   9.893  1.4635 -0.5483 -1.2199
  184SLPC   H3Y21170   6.277   3.541   9.977 -1.5621 -0.5328  0.4428
  184SLPC   C3421171   6.302   3.725   9.879 -0.0587 -0.3758  0.2999
  184SLPC   H4X21172   6.375   3.773   9.948 -0.8129  1.3101 -0.0241
  184SLPC   H4Y21173   6.241   3.805   9.833 -0.0912 -0.8711 -0.5351
  184SLPC   C3521174   6.371   3.651   9.760  0.6579 -0.0322 -0.6116
  184SLPC   H5X21175   6.299   3.584   9.709  1.1574 -0.6257 -0.5526
  184SLPC   H5Y21176   6.447   3.586   9.810  1.5388  1.6744  0.3641
  184SLPC   C3621177   6.428   3.756   9.661  0.3523 -0.5626 -0.1739
  184SLPC   H6X21178   6.481   3.839   9.712 -0.6070  0.8532 -1.3838
  184SLPC   H6Y21179   6.337   3.807   9.624  1.0826  1.6034  0.8211
  184SLPC   C3721180   6.505   3.698   9.544 -0.7755 -0.8757  0.3899
  184SLPC   H7X21181   6.450   3.623   9.481  0.7846 -2.1446  0.4761
  184SLPC   H7Y21182   6.598   3.661   9.592 -0.8114 -0.0375  1.1200
  184SLPC   C3821183   6.547   3.798   9.431  0.2943  0.2388 -0.4851
  184SLPC   H8X21184   6.583   3.897   9.468  0.4362  0.9360 -2.3711
  184SLPC   H8Y21185   6.463   3.817   9.361  0.1739 -0.0958 -0.4310
  184SLPC   C3921186   6.674   3.744   9.356 -0.1832 -0.1810  0.1309
  184SLPC   H9X21187   6.665   3.635   9.335 -1.0030 -0.4019  1.5023
  184SLPC   H9Y21188   6.764   3.775   9.412 -1.4879  0.7191  1.7866
  184SLPC  C31021189   6.674   3.814   9.223 -0.1864 -0.1305 -0.2002
  184SLPC  H10X21190   6.675   3.925   9.234 -2.7671 -0.1429  0.8095
  184SLPC  H10Y21191   6.583   3.803   9.160 -0.2225  0.5038 -0.2648
  184SLPC  C31121192   6.798   3.783   9.131 -0.6507  0.4105 -0.5700
  184SLPC  H11X21193   6.808   3.674   9.116 -2.0815  0.4302 -1.8869
  184SLPC  H11Y21194   6.884   3.827   9.187 -2.6594  3.4785  0.3819
  184SLPC  C31221195   6.787   3.848   8.995 -0.0763 -0.3043 -0.2446
  184SLPC  H12X21196   6.771   3.957   9.006  1.2794 -0.0664 -0.4373
  184SLPC  H12Y21197   6.698   3.807   8.944  1.2133  0.9321 -3.7599
  184SLPC  C31321198   6.900   3.811   8.907  0.0353  0.3531 -0.3746
  184SLPC  H13X21199   6.874   3.713   8.860 -0.5669  0.4587 -0.2738
  184SLPC  H13Y21200   7.004   3.802   8.944 -0.2535  2.1103  0.9889
  184SLPC  C31421201   6.914   3.920   8.793 -0.0405 -0.5204  0.0190
  184SLPC  H14X21202   6.984   3.878   8.717 -0.4379 -1.5166  0.1837
  184SLPC  H14Y21203   6.948   4.016   8.836  2.0114 -1.0738 -0.2375
  184SLPC  C31521204   6.788   3.952   8.709  0.2461  0.3447  0.1599
  184SLPC  H15X21205   6.699   3.958   8.776  1.2550  1.5724  1.4447
  184SLPC  H15Y21206   6.773   3.861   8.648 -1.9483  0.4150  0.5138
  184SLPC  C31621207   6.801   4.079   8.626  0.2297 -0.2175 -0.9460
  184SLPC  H16X21208   6.852   4.064   8.528  0.3072 -0.3310 -0.8877
  184SLPC  H16Y21209   6.854   4.145   8.697 -1.8558 -1.1047  1.5711
  184SLPC  C31721210   6.664   4.119   8.577 -0.1604 -0.3614  0.6775
  184SLPC  H17X21211   6.599   4.118   8.667 -0.8872 -1.0161  0.1663
  184SLPC  H17Y21212   6.622   4.040   8.510  2.9416 -2.6631  1.1984
  184SLPC  C31821213   6.646   4.257   8.516  0.3995 -0.3832  0.5473
  184SLPC  H18X21214   6.711   4.279   8.428 -1.3874 -0.3511 -0.8274
  184SLPC  H18Y21215   6.663   4.340   8.588 -0.3134  1.0236 -0.8474
  184SLPC  H18Z21216   6.540   4.266   8.486  0.2843 -0.6341  0.8754
  185SLPC     N21217   6.692   6.300   5.987  1.1231 -0.0202  0.1898
  185SLPC   C1321218   6.672   6.350   5.852 -0.5407 -0.6233  0.2007
  185SLPC  H13A21219   6.569   6.347   5.821  0.3110  0.7533 -3.0908
  185SLPC  H13B21220   6.706   6.451   5.835 -0.6222 -0.5804  0.2878
  185SLPC  H13C21221   6.732   6.288   5.787  0.5718 -1.4192  1.8824
  185SLPC   C1421222   6.838   6.279   6.000 -0.7551 -0.4139  0.3303
  185SLPC  H14A21223   6.894   6.365   5.966  0.0668 -0.2825  1.9145
  185SLPC  H14B21224   6.869   6.241   6.096 -0.1598  2.3191  1.3266
  185SLPC  H14C21225   6.862   6.205   5.926 -0.0732  0.5605 -0.4583
  185SLPC   C1521226   6.619   6.171   6.011  0.1199  0.8876  0.2962
  185SLPC  H15A21227   6.631   6.109   5.923  0.8899 -1.0300  1.7055
  185SLPC  H15B21228   6.658   6.116   6.095  0.4151  2.0749  0.9615
  185SLPC  H15C21229   6.515   6.190   6.028 -0.2560 -0.2887 -0.5458
  185SLPC   C1221230   6.643   6.408   6.082  0.3677  0.0352 -0.0177
  185SLPC  H12A21231   6.536   6.400   6.076  0.4840 -2.5481  0.0719
  185SLPC  H12B21232   6.682   6.503   6.049  1.7500 -0.8313 -0.9665
  185SLPC   C1121233   6.676   6.404   6.236 -0.1516 -0.9241  0.2435
  185SLPC  H11A21234   6.637   6.494   6.289 -0.0091 -1.3892  1.1576
  185SLPC  H11B21235   6.787   6.410   6.242 -0.2710 -0.3241  2.9336
  185SLPC     P21236   6.496   6.264   6.356 -0.1489  0.3033  0.6466
  185SLPC   O1321237   6.397   6.332   6.265 -0.9101 -0.2212 -0.2299
  185SLPC   O1421238   6.475   6.122   6.388  0.5678  0.1138 -0.1752
  185SLPC   O1221239   6.641   6.275   6.288 -0.1548 -0.1181 -0.0305
  185SLPC   O1121240   6.501   6.343   6.488 -0.2267 -0.3417 -0.4094
  185SLPC    C121241   6.592   6.309   6.592  0.1089  0.4134  0.7562
  185SLPC    HA21242   6.576   6.202   6.617 -1.3326  0.6856  1.0997
  185SLPC    HB21243   6.697   6.333   6.567  0.2525 -1.2461 -0.3895
  185SLPC    C221244   6.558   6.379   6.721  0.3264 -0.5668  0.8228
  185SLPC    HS21245   6.648   6.368   6.786 -0.7795 -1.9086  2.1987
  185SLPC   O2121246   6.443   6.319   6.785  0.6293  0.2475 -0.1502
  185SLPC   C2121247   6.478   6.222   6.879 -0.5840  1.0400  0.4761
  185SLPC   O2221248   6.591   6.207   6.923  0.2431 -0.6046  0.1063
  185SLPC   C2221249   6.347   6.163   6.926 -0.3216  0.4930 -0.1164
  185SLPC   H2R21250   6.261   6.231   6.944 -0.1686  0.4674  0.7778
  185SLPC   H2S21251   6.304   6.096   6.849  0.3560 -1.6291  1.2715
  185SLPC    C321252   6.542   6.532   6.682 -0.2293  0.0208 -0.8906
  185SLPC    HX21253   6.438   6.552   6.648  0.2477  2.4037 -1.1723
  185SLPC    HY21254   6.618   6.559   6.606  1.7706 -0.4197  0.8364
  185SLPC   O3121255   6.570   6.605   6.807  0.5309  0.9202 -0.1535
  185SLPC   C3121256   6.477   6.602   6.902 -1.3035 -0.3736 -0.4345
  185SLPC   O3221257   6.361   6.569   6.891  0.1076  0.0642 -0.3416
  185SLPC   C3221258   6.547   6.655   7.031  0.1326  0.3647 -0.4838
  185SLPC   H2X21259   6.583   6.760   7.020  1.4068  0.4739  3.3750
  185SLPC   H2Y21260   6.626   6.589   7.072 -1.9262 -0.8137  1.8075
  185SLPC   C2321261   6.368   6.064   7.045  0.4834 -0.2028 -0.7373
  185SLPC   H3R21262   6.471   6.023   7.047  0.0995 -1.2112  1.2604
  185SLPC   H3S21263   6.295   5.981   7.036 -1.2196  0.9459  1.3005
  185SLPC   C2421264   6.351   6.130   7.185  0.0972  0.1155 -0.9938
  185SLPC   H4R21265   6.346   6.044   7.255  1.8584  0.8368  0.0758
  185SLPC   H4S21266   6.256   6.181   7.211  1.2176  1.9525 -0.3279
  185SLPC   C2521267   6.465   6.216   7.235  0.0495 -0.6533  0.0961
  185SLPC   H5R21268   6.487   6.291   7.157  0.4744 -0.1990  0.6419
  185SLPC   H5S21269   6.554   6.149   7.236  0.6600  0.1015 -1.1627
  185SLPC   C2621270   6.445   6.295   7.367  0.2045  0.0167 -1.0826
  185SLPC   H6R21271   6.348   6.348   7.357  0.6024  0.6424 -1.7351
  185SLPC   H6S21272   6.528   6.368   7.383  1.0225 -1.2917  1.0068
  185SLPC   C2721273   6.433   6.198   7.487  0.3002 -0.8002 -1.0219
  185SLPC   H7R21274   6.534   6.154   7.492  1.5943  2.0413 -0.2783
  185SLPC   H7S21275   6.362   6.119   7.453 -2.0174  0.5977  0.3183
  185SLPC   C2821276   6.381   6.256   7.631 -0.4469  0.0164  0.0036
  185SLPC   H8R21277   6.363   6.182   7.712 -2.2165 -3.3357 -3.1541
  185SLPC   H8S21278   6.279   6.297   7.617 -0.7859 -0.6270  0.5793
  185SLPC   C2921279   6.466   6.378   7.657 -0.3068 -0.0994 -0.1496
  185SLPC   H9R21280   6.469   6.453   7.576  0.1369  0.5550  0.4516
  185SLPC  C21021281   6.547   6.397   7.762 -0.1761  0.2055  0.5361
  185SLPC  H10R21282   6.609   6.487   7.757 -1.1792  0.8440 -2.5878
  185SLPC  C21121283   6.567   6.301   7.883  0.1533  0.2803 -0.3802
  185SLPC  H11R21284   6.677   6.299   7.896  0.3224 -1.3863 -1.6790
  185SLPC  H11S21285   6.528   6.203   7.846 -0.4342  1.0665 -1.9314
  185SLPC  C21221286   6.485   6.341   7.996 -0.4216  0.0235  0.4035
  185SLPC  H12R21287   6.379   6.316   7.984 -0.2893 -0.7944  0.8990
  185SLPC  C21321288   6.519   6.393   8.119 -0.0449  0.6198 -0.0660
  185SLPC  H13R21289   6.438   6.408   8.191 -0.1949  0.5081 -0.2094
  185SLPC  C21421290   6.655   6.430   8.170 -0.0340 -0.7495  0.4430
  185SLPC  H14R21291   6.670   6.540   8.183  1.3113 -0.7873 -0.5520
  185SLPC  H14S21292   6.728   6.405   8.090 -1.8796 -1.2882 -1.1350
  185SLPC  C21521293   6.692   6.348   8.297 -0.3018 -0.7066 -0.4772
  185SLPC  H15R21294   6.801   6.359   8.317 -0.3912 -0.0379 -0.3341
  185SLPC  H15S21295   6.681   6.240   8.274 -1.7080 -1.1141  1.6984
  185SLPC  C21621296   6.604   6.381   8.413 -0.2115  0.0262 -0.6869
  185SLPC  H16R21297   6.496   6.365   8.390 -0.4781  1.7119 -0.6886
  185SLPC  H16S21298   6.622   6.483   8.452 -0.0133  0.4298 -1.8240
  185SLPC  C21721299   6.634   6.291   8.545  0.8690  0.2468 -0.4129
  185SLPC  H17R21300   6.741   6.290   8.575  0.3270 -1.7958  1.7218
  185SLPC  H17S21301   6.613   6.191   8.501 -1.9723 -0.1608  1.6031
  185SLPC  C21821302   6.531   6.326   8.655 -0.3087 -0.4993  0.2855
  185SLPC  H18R21303   6.523   6.247   8.732 -1.3897 -1.1073 -0.4258
  185SLPC  H18S21304   6.432   6.335   8.605 -0.8758 -2.1976  1.0130
  185SLPC  H18T21305   6.542   6.425   8.705 -0.1682  0.1578 -1.0048
  185SLPC   C3321306   6.455   6.668   7.157  0.0464  0.0456  0.0843
  185SLPC   H3X21307   6.427   6.564   7.184 -2.2172  0.8998  1.2516
  185SLPC   H3Y21308   6.364   6.727   7.134  0.4412 -0.0730 -1.9888
  185SLPC   C3421309   6.539   6.744   7.266 -0.2275  0.6105 -0.0526
  185SLPC   H4X21310   6.549   6.854   7.249  2.9033  0.4949  0.4018
  185SLPC   H4Y21311   6.647   6.719   7.257  0.2032  1.6469  1.6282
  185SLPC   C3521312   6.489   6.727   7.410  0.3609 -0.4707  0.2152
  185SLPC   H5X21313   6.473   6.617   7.416  1.0643 -0.5124  1.9323
  185SLPC   H5Y21314   6.392   6.778   7.427 -0.2816 -1.3640 -0.6605
  185SLPC   C3621315   6.585   6.801   7.506  1.1040 -0.0020  0.1618
  185SLPC   H6X21316   6.567   6.908   7.484  0.6932 -0.1791 -0.3822
  185SLPC   H6Y21317   6.692   6.777   7.491  0.8135 -1.4661  0.2814
  185SLPC   C3721318   6.545   6.790   7.647  0.2611 -0.5496 -0.4166
  185SLPC   H7X21319   6.538   6.681   7.670  0.8422 -0.1609  1.9066
  185SLPC   H7Y21320   6.449   6.836   7.681  0.2653 -1.7900  1.4036
  185SLPC   C3821321   6.648   6.848   7.749 -0.0844 -0.4291  0.9224
  185SLPC   H8X21322   6.646   6.953   7.712 -0.9094 -0.5559  0.5731
  185SLPC   H8Y21323   6.752   6.811   7.736 -0.0094  0.3331 -1.0530
  185SLPC   C3921324   6.604   6.839   7.891  0.5055 -0.3367  0.6711
  185SLPC   H9X21325   6.607   6.738   7.938  3.8679  0.4919  2.5473
  185SLPC   H9Y21326   6.498   6.871   7.896  1.0089  1.5735 -0.0748
  185SLPC  C31021327   6.673   6.934   7.989 -0.6844  0.6316 -0.6117
  185SLPC  H10X21328   6.658   7.042   7.966 -0.9868  0.9221  0.8286
  185SLPC  H10Y21329   6.782   6.918   7.999 -0.4776  1.3734 -1.6047
  185SLPC  C31121330   6.610   6.924   8.130  0.5496  0.0798  0.1018
  185SLPC  H11X21331   6.586   6.820   8.160  2.2255 -0.2677  0.3094
  185SLPC  H11Y21332   6.515   6.983   8.123 -0.3987 -1.2279  1.2978
  185SLPC  C31221333   6.690   6.988   8.239  0.5748  0.1675  0.2313
  185SLPC  H12X21334   6.629   7.051   8.307 -1.6757 -0.5830 -0.9682
  185SLPC  H12Y21335   6.744   7.080   8.208 -2.4792  2.0108 -0.0953
  185SLPC  C31321336   6.789   6.896   8.313  0.0753  0.0254  0.2382
  185SLPC  H13X21337   6.865   6.961   8.361 -0.0157  0.7251 -0.5270
  185SLPC  H13Y21338   6.835   6.831   8.236  0.7280  2.4239 -1.5254
  185SLPC  C31421339   6.729   6.805   8.420 -0.5346  0.4740 -0.5931
  185SLPC  H14X21340   6.648   6.751   8.366 -2.2547  2.0456  0.2649
  185SLPC  H14Y21341   6.681   6.879   8.488  1.5413  0.7837  0.5983
  185SLPC  C31521342   6.826   6.722   8.502  0.4422 -0.1670  0.4252
  185SLPC  H15X21343   6.885   6.666   8.425 -0.0342  3.4667 -2.9401
  185SLPC  H15Y21344   6.770   6.648   8.563 -1.9174  0.7060 -0.5661
  185SLPC  C31621345   6.922   6.810   8.586 -0.4755 -0.0668  0.0147
  185SLPC  H16X21346   6.863   6.887   8.640  1.2787  1.2081  0.2213
  185SLPC  H16Y21347   6.995   6.862   8.520  0.2927 -1.8100 -0.5772
  185SLPC  C31721348   7.013   6.730   8.681 -0.3642 -0.0367 -0.0107
  185SLPC  H17X21349   7.056   6.644   8.625  0.0073  0.7220 -0.9081
  185SLPC  H17Y21350   6.944   6.690   8.759  0.1325  0.2094  0.5656
  185SLPC  C31821351   7.119   6.813   8.750  0.1767  0.4844  0.1007
  185SLPC  H18X21352   7.167   6.764   8.838 -0.0518  1.8562  1.0134
  185SLPC  H18Y21353   7.083   6.916   8.770 -1.6262 -0.2400  0.8164
  185SLPC  H18Z21354   7.209   6.820   8.685  1.7718  0.7283  2.2056
  186SLPC     N21355   2.229   3.782   5.969  0.3389 -0.2667  0.4048
  186SLPC   C1321356   2.088   3.840   5.968  0.9876 -0.3908  0.1246
  186SLPC  H13A21357   2.038   3.846   5.873 -0.6685  0.7494  1.0157
  186SLPC  H13B21358   2.026   3.782   6.034  0.5703  0.1870  0.2490
  186SLPC  H13C21359   2.074   3.940   6.005  0.4474  0.0581 -1.2240
  186SLPC   C1421360   2.313   3.859   5.878 -0.4098 -0.0249  0.3142
  186SLPC  H14A21361   2.417   3.828   5.876 -0.4897 -0.4039 -2.7552
  186SLPC  H14B21362   2.276   3.857   5.777 -1.2857  2.4430  0.5329
  186SLPC  H14C21363   2.315   3.961   5.914 -4.2841  0.0577  0.6811
  186SLPC   C1521364   2.223   3.640   5.919  0.1096 -0.0897 -0.8680
  186SLPC  H15A21365   2.157   3.597   5.992 -0.2174  1.5617 -0.1434
  186SLPC  H15B21366   2.185   3.629   5.819 -0.8103 -1.3947 -0.3947
  186SLPC  H15C21367   2.316   3.587   5.935 -0.7205 -0.8496  2.0720
  186SLPC   C1221368   2.270   3.799   6.115  0.0033 -0.0795 -0.9933
  186SLPC  H12A21369   2.188   3.759   6.174  0.4276 -0.5353 -0.7028
  186SLPC  H12B21370   2.276   3.903   6.142  4.3802 -0.5221  0.5556
  186SLPC   C1121371   2.408   3.742   6.161  0.1209  0.2292  0.6560
  186SLPC  H11A21372   2.409   3.635   6.130  1.4414  0.4180 -0.0477
  186SLPC  H11B21373   2.401   3.729   6.271  0.0409 -0.9359  0.5295
  186SLPC     P21374   2.552   3.954   6.165 -0.3763  0.6108  0.2382
  186SLPC   O1321375   2.694   3.992   6.138  0.4728 -0.0250 -0.4073
  186SLPC   O1421376   2.445   4.051   6.124  0.4955 -0.0404  0.0590
  186SLPC   O1221377   2.525   3.813   6.106  0.0606  0.1205 -0.0844
  186SLPC   O1121378   2.537   3.924   6.321  0.3511 -0.9804 -0.6113
  186SLPC    C121379   2.651   3.882   6.403 -0.6633  0.4102  0.3883
  186SLPC    HA21380   2.674   3.776   6.377 -1.1401  0.5487 -0.6480
  186SLPC    HB21381   2.744   3.940   6.388 -0.2349  0.9082  3.9460
  186SLPC    C221382   2.609   3.878   6.555 -0.3756  0.4088 -0.0969
  186SLPC    HS21383   2.532   3.798   6.552  0.1904 -0.1466 -0.0843
  186SLPC   O2121384   2.559   4.011   6.598 -0.2988  0.5274 -0.0024
  186SLPC   C2121385   2.464   4.002   6.692 -0.1759 -0.0042  0.0454
  186SLPC   O2221386   2.408   3.907   6.737  0.1448  0.7670  0.8762
  186SLPC   C2221387   2.430   4.147   6.733 -0.3316 -0.5251  0.2579
  186SLPC   H2R21388   2.477   4.220   6.664 -0.3861  0.5155  1.3035
  186SLPC   H2S21389   2.321   4.161   6.714 -0.0026 -0.7563 -2.1518
  186SLPC    C321390   2.736   3.836   6.636 -0.0883 -0.0337  0.1980
  186SLPC    HX21391   2.810   3.919   6.633  0.7673 -0.7830 -0.3104
  186SLPC    HY21392   2.783   3.746   6.591 -0.9134  0.3631 -1.5271
  186SLPC   O3121393   2.704   3.813   6.775 -0.3815 -0.2270  0.2931
  186SLPC   C3121394   2.621   3.709   6.798  0.4279 -0.5549 -0.5161
  186SLPC   O3221395   2.585   3.622   6.722 -0.5869  0.2402  0.1522
  186SLPC   C3221396   2.566   3.713   6.944 -0.5472  0.2851  0.1691
  186SLPC   H2X21397   2.584   3.615   6.994 -2.7931 -1.0270 -1.4024
  186SLPC   H2Y21398   2.456   3.728   6.931 -1.0358 -1.1397  2.1462
  186SLPC   C2321399   2.474   4.174   6.877 -0.3415  0.2347  0.1790
  186SLPC   H3R21400   2.581   4.203   6.871  0.1692 -1.3217  1.0703
  186SLPC   H3S21401   2.465   4.083   6.940 -2.6735  0.7575  0.6803
  186SLPC   C2421402   2.383   4.295   6.935  0.0698  1.1561  0.2242
  186SLPC   H4R21403   2.288   4.243   6.960 -0.0243  0.1738 -1.9993
  186SLPC   H4S21404   2.366   4.373   6.858 -0.1067  2.6800  1.7308
  186SLPC   C2521405   2.439   4.364   7.061  0.0011  0.5309 -0.6764
  186SLPC   H5R21406   2.419   4.473   7.073 -1.2747  0.0724  2.0208
  186SLPC   H5S21407   2.550   4.356   7.060  0.0872  0.6735  1.5848
  186SLPC   C2621408   2.385   4.310   7.193  0.4145 -0.4419 -0.4303
  186SLPC   H6R21409   2.279   4.342   7.183  0.5916  0.6906  1.1252
  186SLPC   H6S21410   2.440   4.357   7.277  0.3288 -1.2330  0.0868
  186SLPC   C2721411   2.397   4.165   7.224 -0.6047 -0.1524 -0.3643
  186SLPC   H7R21412   2.501   4.130   7.202 -0.5426  0.1487 -0.5600
  186SLPC   H7S21413   2.331   4.110   7.153 -1.4290 -1.5377  1.3875
  186SLPC   C2821414   2.363   4.110   7.367 -0.3589 -0.5833 -0.0957
  186SLPC   H8R21415   2.440   4.150   7.436 -0.5497 -0.0291 -0.1996
  186SLPC   H8S21416   2.379   4.001   7.358  2.9029 -0.1927 -0.2472
  186SLPC   C2921417   2.217   4.135   7.415  0.1143  0.2588  0.5288
  186SLPC   H9R21418   2.151   4.172   7.335 -0.2226  1.5191  1.3695
  186SLPC  C21021419   2.165   4.088   7.534  1.0264  0.3115  0.3160
  186SLPC  H10R21420   2.062   4.115   7.559  0.9586  1.2889 -0.9212
  186SLPC  C21121421   2.242   4.019   7.636 -0.1828  0.5306  1.0299
  186SLPC  H11R21422   2.305   3.939   7.591 -0.0808  0.0350  2.0137
  186SLPC  H11S21423   2.169   3.972   7.705 -0.6997 -1.5332 -0.8425
  186SLPC  C21221424   2.324   4.115   7.719  0.5061 -0.5936  0.9757
  186SLPC  H12R21425   2.314   4.219   7.683  4.2633 -0.4521 -0.0633
  186SLPC  C21321426   2.398   4.077   7.819 -0.2340  0.3808  0.2602
  186SLPC  H13R21427   2.432   4.157   7.887 -0.0330  0.3008  0.2529
  186SLPC  C21421428   2.417   3.927   7.859 -0.0010 -0.7137 -0.0766
  186SLPC  H14R21429   2.512   3.908   7.913 -0.8161 -2.3587  0.8718
  186SLPC  H14S21430   2.436   3.867   7.767 -0.0059 -0.3923 -0.2877
  186SLPC  C21521431   2.299   3.868   7.941 -0.7100 -0.7848  0.0578
  186SLPC  H15R21432   2.208   3.894   7.882 -0.0634  1.0352 -0.2142
  186SLPC  H15S21433   2.300   3.928   8.035 -3.4556 -0.9197  0.2475
  186SLPC  C21621434   2.294   3.715   7.963  0.3106  0.4485 -0.3525
  186SLPC  H16R21435   2.225   3.665   7.892 -0.3967  0.8844  0.0069
  186SLPC  H16S21436   2.247   3.702   8.063  0.0177 -2.1135 -0.7697
  186SLPC  C21721437   2.429   3.642   7.973 -0.4117 -0.6327 -0.3235
  186SLPC  H17R21438   2.496   3.699   8.040 -1.3260 -1.9689  1.8437
  186SLPC  H17S21439   2.479   3.632   7.874 -3.3323 -3.0817 -1.7241
  186SLPC  C21821440   2.409   3.501   8.028 -0.4857  0.8582 -0.3465
  186SLPC  H18R21441   2.349   3.440   7.957  0.9396 -0.2595 -0.6455
  186SLPC  H18S21442   2.362   3.516   8.127  0.7095 -0.0100  0.3906
  186SLPC  H18T21443   2.509   3.454   8.044 -0.4503  0.3380 -1.9099
  186SLPC   C3321444   2.631   3.819   7.031 -0.1427  0.6032 -0.1845
  186SLPC   H3X21445   2.664   3.914   6.984  1.0874 -0.0700 -0.7430
  186SLPC   H3Y21446   2.730   3.778   7.058  0.3276  1.5317 -0.4640
  186SLPC   C3421447   2.547   3.846   7.159  0.1919  0.7634 -0.2704
  186SLPC   H4X21448   2.438   3.856   7.136 -0.3567  0.0563  1.8137
  186SLPC   H4Y21449   2.586   3.943   7.195  1.5850 -0.2191  0.9782
  186SLPC   C3521450   2.573   3.738   7.267 -0.0655  0.1902  0.3546
  186SLPC   H5X21451   2.684   3.734   7.273  0.0494  1.6862 -0.4106
  186SLPC   H5Y21452   2.528   3.646   7.227 -0.9654  1.3338 -1.3684
  186SLPC   C3621453   2.524   3.759   7.408 -0.3274 -0.1275 -0.2443
  186SLPC   H6X21454   2.413   3.770   7.412 -0.2396  0.6632  0.3328
  186SLPC   H6Y21455   2.565   3.859   7.434 -0.3417  0.1351 -1.1911
  186SLPC   C3721456   2.572   3.657   7.507  0.3749 -0.1774  0.0912
  186SLPC   H7X21457   2.578   3.560   7.455  0.7484  0.4068 -0.9780
  186SLPC   H7Y21458   2.505   3.649   7.595 -0.0540 -1.8854 -0.3569
  186SLPC   C3821459   2.715   3.681   7.562  0.1020  0.5988  0.4186
  186SLPC   H8X21460   2.760   3.748   7.485 -2.0146  1.7519  0.0970
  186SLPC   H8Y21461   2.767   3.583   7.567 -0.6778 -0.1653 -3.1170
  186SLPC   C3921462   2.715   3.729   7.709  0.4238 -0.3335  0.1202
  186SLPC   H9X21463   2.629   3.684   7.764 -1.5153  1.3263 -1.3847
  186SLPC   H9Y21464   2.690   3.837   7.710  0.6652 -0.2821  1.0131
  186SLPC  C31021465   2.843   3.708   7.790  0.3248  0.1484 -0.5704
  186SLPC  H10X21466   2.929   3.738   7.727 -0.1190 -0.4604 -1.4936
  186SLPC  H10Y21467   2.853   3.600   7.813  0.4178  0.5756  1.5846
  186SLPC  C31121468   2.841   3.795   7.920 -0.6034 -0.3915 -0.0176
  186SLPC  H11X21469   2.746   3.766   7.970 -1.3010  1.1925 -0.3907
  186SLPC  H11Y21470   2.823   3.900   7.889  2.1120 -0.1320 -0.9627
  186SLPC  C31221471   2.975   3.780   7.994  0.2095 -0.5519  0.1260
  186SLPC  H12X21472   3.047   3.786   7.910 -3.1484  1.2761 -2.8828
  186SLPC  H12Y21473   2.981   3.676   8.035 -2.3008 -1.8111 -2.3445
  186SLPC  C31321474   2.991   3.891   8.101  0.3526  0.4683 -0.1594
  186SLPC  H13X21475   2.910   3.885   8.176 -0.2942  3.0313 -0.5600
  186SLPC  H13Y21476   2.982   3.987   8.045 -0.2126  0.2780 -0.4030
  186SLPC  C31421477   3.136   3.895   8.165  0.8658 -0.0483 -0.5302
  186SLPC  H14X21478   3.196   3.865   8.076 -1.6843  2.6939 -3.3974
  186SLPC  H14Y21479   3.153   3.823   8.248  1.3351  3.0433  2.2375
  186SLPC  C31521480   3.183   4.028   8.216  0.0428 -0.3246 -0.5216
  186SLPC  H15X21481   3.127   4.061   8.306  0.4407 -0.6244 -0.1603
  186SLPC  H15Y21482   3.171   4.091   8.126 -1.6098 -1.3343 -1.0522
  186SLPC  C31621483   3.330   4.030   8.255 -0.0474 -0.3414  0.0739
  186SLPC  H16X21484   3.403   4.010   8.174 -0.5063 -0.1911 -0.3859
  186SLPC  H16Y21485   3.345   3.941   8.319  0.3316 -0.4796 -0.2009
  186SLPC  C31721486   3.377   4.153   8.335 -0.0549 -0.1901 -0.1757
  186SLPC  H17X21487   3.486   4.137   8.349 -0.3809 -0.3911  2.8594
  186SLPC  H17Y21488   3.327   4.157   8.434  0.0637 -0.6563 -0.0988
  186SLPC  C31821489   3.360   4.292   8.280  0.1709 -0.0951 -0.2885
  186SLPC  H18X21490   3.393   4.372   8.350 -0.2171 -2.7296  3.1906
  186SLPC  H18Y21491   3.251   4.304   8.263  0.1236 -0.5253 -0.3134
  186SLPC  H18Z21492   3.408   4.308   8.181 -1.2482 -0.7702 -1.1204
  187SLPC     N21493   6.730   0.106   6.263  0.3553 -0.1502  0.0212
  187SLPC   C1321494   6.658   0.100   6.133 -0.1992  0.0944  0.5718
  187SLPC  H13A21495   6.662   0.198   6.089  0.7513 -0.3243 -0.3071
  187SLPC  H13B21496   6.717   0.034   6.071  2.5400  0.0328  3.0142
  187SLPC  H13C21497   6.556   0.067   6.150 -0.7689  1.6482  0.3031
  187SLPC   C1421498   6.668   0.206   6.353  0.3548 -0.4930 -0.3041
  187SLPC  H14A21499   6.712   0.218   6.451 -4.8569 -1.3632  2.5050
  187SLPC  H14B21500   6.668   0.301   6.300 -0.1046 -0.9543 -1.1611
  187SLPC  H14C21501   6.569   0.171   6.378  0.1252 -0.2100 -0.7917
  187SLPC   C1521502   6.869   0.165   6.238 -0.3570 -0.1373  0.6828
  187SLPC  H15A21503   6.862   0.263   6.194 -0.9779 -1.0674 -1.4381
  187SLPC  H15B21504   6.932   0.172   6.325  1.0901  1.2099 -0.4340
  187SLPC  H15C21505   6.922   0.098   6.172 -0.2984  1.4100 -0.9208
  187SLPC   C1221506   6.728  -0.032   6.327  0.2172  0.5671 -0.2912
  187SLPC  H12A21507   6.778  -0.104   6.265 -1.3858  0.2491 -1.2769
  187SLPC  H12B21508   6.627  -0.072   6.324  0.4674 -0.0189 -1.6148
  187SLPC   C1121509   6.791  -0.043   6.466 -0.1718 -1.1546 -0.3856
  187SLPC  H11A21510   6.775  -0.144   6.511  3.4703 -0.3373  3.2848
  187SLPC  H11B21511   6.745   0.029   6.537  0.1292  1.2150 -2.4786
  187SLPC     P21512   7.024  -0.143   6.415  0.0748  0.3625  0.3110
  187SLPC   O1321513   6.959  -0.221   6.308 -0.5461  0.3245  0.4689
  187SLPC   O1421514   7.157  -0.080   6.406 -0.1277  0.0216  0.4426
  187SLPC   O1221515   6.929  -0.021   6.454  0.8305  0.5577 -0.4809
  187SLPC   O1121516   7.028  -0.227   6.544 -0.2212  0.3333 -0.6710
  187SLPC    C121517   7.036  -0.158   6.673  0.2300 -0.2587  0.1612
  187SLPC    HA21518   7.105  -0.071   6.671 -1.4902  1.1631  0.2757
  187SLPC    HB21519   6.940  -0.105   6.690 -2.2363 -4.1203 -0.4947
  187SLPC    C221520   7.090  -0.251   6.783 -0.6091  0.1303  0.2795
  187SLPC    HS21521   7.013  -0.324   6.816 -0.2869 -0.6265 -0.5933
  187SLPC   O2121522   7.131  -0.169   6.891  0.1842 -0.7314  0.6663
  187SLPC   C2121523   7.042  -0.098   6.952  0.2732  0.2253 -0.0450
  187SLPC   O2221524   6.919  -0.110   6.947 -0.1340 -0.5618  0.4112
  187SLPC   C2221525   7.115   0.011   7.033 -0.5566 -0.3516 -0.8636
  187SLPC   H2R21526   7.224  -0.010   7.041 -1.1614 -3.2379  3.9263
  187SLPC   H2S21527   7.101   0.099   6.967  0.2415 -0.3069 -0.9752
  187SLPC    C321528   7.211  -0.332   6.738 -0.3189  0.0046 -0.4209
  187SLPC    HX21529   7.300  -0.266   6.745 -0.8394  1.0181 -2.5559
  187SLPC    HY21530   7.198  -0.360   6.631  2.3295  2.7581 -1.6205
  187SLPC   O3121531   7.221  -0.453   6.810 -0.1323  0.4694  0.5177
  187SLPC   C3121532   7.138  -0.549   6.766  0.1662 -0.2575 -0.0347
  187SLPC   O3221533   7.050  -0.531   6.685 -0.0547  0.0884  0.2168
  187SLPC   C3221534   7.144  -0.663   6.863  0.1155  0.5579  0.2536
  187SLPC   H2X21535   7.251  -0.679   6.889 -0.0230 -0.6587  0.1195
  187SLPC   H2Y21536   7.101  -0.749   6.807 -0.0226  0.7651  0.0375
  187SLPC   C2321537   7.056   0.029   7.171  0.5335 -0.0190 -0.1295
  187SLPC   H3R21538   7.005  -0.065   7.202 -1.4119  1.5611  1.8179
  187SLPC   H3S21539   6.980   0.111   7.173  0.8712  0.2854  1.3648
  187SLPC   C2421540   7.167   0.084   7.267 -0.2488  0.0625 -0.4197
  187SLPC   H4R21541   7.211   0.177   7.225  1.0193 -0.5001 -0.3899
  187SLPC   H4S21542   7.235  -0.004   7.273  0.5248  0.6259 -0.7753
  187SLPC   C2521543   7.105   0.101   7.409 -0.3634  0.6689  1.1415
  187SLPC   H5R21544   7.059   0.003   7.434  1.0304  0.1124  1.6508
  187SLPC   H5S21545   7.026   0.178   7.401  0.6880  1.6365 -0.4886
  187SLPC   C2621546   7.209   0.143   7.518 -0.2762 -0.3397  0.0502
  187SLPC   H6R21547   7.258   0.236   7.480 -1.8294  0.4308 -0.1539
  187SLPC   H6S21548   7.294   0.071   7.520  0.4616  0.4468 -1.2926
  187SLPC   C2721549   7.167   0.149   7.671  0.2443  0.3655  0.5398
  187SLPC   H7R21550   7.136   0.049   7.706 -0.1049  0.4051  0.3516
  187SLPC   H7S21551   7.068   0.200   7.678 -1.3397 -2.4898  0.6236
  187SLPC   C2821552   7.264   0.214   7.763  0.1700  0.4256  0.0359
  187SLPC   H8R21553   7.294   0.315   7.728 -1.7813  1.0629  0.1249
  187SLPC   H8S21554   7.358   0.154   7.758 -0.5825 -0.8397  0.3902
  187SLPC   C2921555   7.232   0.238   7.912 -0.6784  1.3559  0.0450
  187SLPC   H9R21556   7.196   0.150   7.969 -1.3723  1.5218 -0.1255
  187SLPC  C21021557   7.236   0.352   7.978 -1.0295 -0.1773  0.4555
  187SLPC  H10R21558   7.208   0.345   8.084 -0.2608 -2.6514  0.5692
  187SLPC  C21121559   7.263   0.495   7.932 -0.2855 -0.8312 -0.1778
  187SLPC  H11R21560   7.188   0.555   7.987 -3.8708 -3.1090 -2.1697
  187SLPC  H11S21561   7.241   0.512   7.824  0.5362  2.1115  0.0529
  187SLPC  C21221562   7.404   0.520   7.974  0.3675  0.2357 -0.5475
  187SLPC  H12R21563   7.481   0.500   7.899  0.0086 -1.4131 -0.5221
  187SLPC  C21321564   7.456   0.573   8.093  0.7935  0.0916 -0.0255
  187SLPC  H13R21565   7.554   0.622   8.101 -0.1259  2.2630 -1.2363
  187SLPC  C21421566   7.372   0.601   8.217  0.0656 -0.0077  0.3670
  187SLPC  H14R21567   7.261   0.607   8.204  0.0533  0.6279  0.6898
  187SLPC  H14S21568   7.388   0.708   8.242  0.3226  0.5927 -2.1364
  187SLPC  C21521569   7.395   0.502   8.329 -0.3394  0.1187 -0.0538
  187SLPC  H15R21570   7.495   0.488   8.374 -1.2462  1.2485  2.5021
  187SLPC  H15S21571   7.369   0.401   8.289 -1.6493  0.6621 -0.6488
  187SLPC  C21621572   7.309   0.530   8.454 -0.0061 -0.1317 -0.4803
  187SLPC  H16R21573   7.206   0.553   8.421  0.1829  0.2877 -0.7947
  187SLPC  H16S21574   7.355   0.613   8.512  1.0337 -1.4288  0.6315
  187SLPC  C21721575   7.297   0.423   8.556 -0.4850  0.8379  0.3604
  187SLPC  H17R21576   7.394   0.373   8.573 -1.1841 -0.5511  0.4208
  187SLPC  H17S21577   7.232   0.350   8.502  1.2297 -1.1234  0.8554
  187SLPC  C21821578   7.231   0.494   8.681  0.2092 -0.1747 -0.1860
  187SLPC  H18R21579   7.215   0.422   8.765 -0.3054 -0.1444 -0.2578
  187SLPC  H18S21580   7.133   0.539   8.654 -0.5945  0.1016  2.7986
  187SLPC  H18T21581   7.304   0.568   8.720  0.8946 -0.4107 -0.9752
  187SLPC   C3321582   7.065  -0.650   6.994  0.3164  0.0432 -0.1920
  187SLPC   H3X21583   7.080  -0.742   7.055  0.6514 -0.6108 -1.2327
  187SLPC   H3Y21584   6.955  -0.647   6.977 -0.0678  1.8661  2.1274
  187SLPC   C3421585   7.109  -0.535   7.086  0.3839 -0.2859 -0.1473
  187SLPC   H4X21586   7.163  -0.455   7.032  1.0250 -0.1702  0.6425
  187SLPC   H4Y21587   7.179  -0.570   7.166  0.9670 -1.4928 -1.1502
  187SLPC   C3521588   6.985  -0.465   7.149  0.1077  0.0923  0.6204
  187SLPC   H5X21589   6.907  -0.541   7.173 -2.2159  1.9328 -0.5744
  187SLPC   H5Y21590   6.937  -0.397   7.074 -0.6406  1.1345  2.0028
  187SLPC   C3621591   7.010  -0.380   7.274 -0.0759  0.4295  0.3691
  187SLPC   H6X21592   7.086  -0.309   7.235  0.5291  0.3122  1.2982
  187SLPC   H6Y21593   7.048  -0.440   7.359 -2.4702 -0.4548  0.9100
  187SLPC   C3721594   6.887  -0.290   7.311 -0.9167 -0.8532  0.4754
  187SLPC   H7X21595   6.930  -0.226   7.391 -0.0593 -1.7701  0.7637
  187SLPC   H7Y21596   6.865  -0.227   7.222  2.5330  1.2821  0.9350
  187SLPC   C3821597   6.773  -0.373   7.381 -0.0780  0.4348  0.4689
  187SLPC   H8X21598   6.736  -0.444   7.304 -0.9469  0.4982  0.8097
  187SLPC   H8Y21599   6.688  -0.304   7.401 -0.3290  0.3196 -0.1641
  187SLPC   C3921600   6.812  -0.445   7.506 -0.2999  0.6145  0.1514
  187SLPC   H9X21601   6.889  -0.524   7.496  0.7658  1.6307  0.1908
  187SLPC   H9Y21602   6.716  -0.491   7.539 -0.1571  0.9959  1.1321
  187SLPC  C31021603   6.879  -0.355   7.607 -0.1255 -0.4370  0.3895
  187SLPC  H10X21604   6.805  -0.273   7.626  0.0461  0.0675 -1.0090
  187SLPC  H10Y21605   6.966  -0.297   7.571 -1.6301  2.1272  0.6073
  187SLPC  C31121606   6.911  -0.422   7.740 -0.5450  0.2175  1.0965
  187SLPC  H11X21607   6.997  -0.485   7.710 -0.9683  0.1381 -0.0206
  187SLPC  H11Y21608   6.833  -0.498   7.761 -0.0151 -2.2864 -4.2041
  187SLPC  C31221609   6.940  -0.327   7.859  0.6547  0.4628  0.6486
  187SLPC  H12X21610   6.848  -0.279   7.899  0.6775  0.4481  0.7204
  187SLPC  H12Y21611   7.005  -0.247   7.817 -1.0777  0.3172 -2.5831
  187SLPC  C31321612   7.019  -0.388   7.979 -0.0802 -0.5796 -0.2571
  187SLPC  H13X21613   7.111  -0.439   7.942 -1.2364 -1.5066 -2.0110
  187SLPC  H13Y21614   6.957  -0.457   8.040 -0.8849 -0.2025 -0.6280
  187SLPC  C31421615   7.059  -0.284   8.087 -0.5640  0.2664  0.3631
  187SLPC  H14X21616   7.126  -0.337   8.157  0.0598  0.4860 -0.0546
  187SLPC  H14Y21617   6.979  -0.243   8.152 -1.3430 -1.6707  0.6765
  187SLPC  C31521618   7.151  -0.173   8.027 -0.0578 -1.0579 -0.1843
  187SLPC  H15X21619   7.089  -0.099   7.971  0.7275  0.2149  0.5934
  187SLPC  H15Y21620   7.219  -0.207   7.946 -1.3193  0.9140 -2.1897
  187SLPC  C31621621   7.212  -0.083   8.137 -0.4989  0.8439  0.0503
  187SLPC  H16X21622   7.288  -0.010   8.101  2.1739 -0.3504  2.8346
  187SLPC  H16Y21623   7.271  -0.150   8.203  2.6114  2.8979 -0.4238
  187SLPC  C31721624   7.102  -0.004   8.216  0.2023 -0.5209 -0.8135
  187SLPC  H17X21625   7.040  -0.072   8.278  0.5135 -0.6526 -0.6434
  187SLPC  H17Y21626   7.030   0.027   8.138 -1.1198  0.9930  0.9339
  187SLPC  C31821627   7.158   0.110   8.295  0.1257 -0.3073 -0.2207
  187SLPC  H18X21628   7.211   0.079   8.386 -0.7678  1.0889  0.8325
  187SLPC  H18Y21629   7.073   0.176   8.327 -0.3628 -0.0485 -1.9302
  187SLPC  H18Z21630   7.239   0.159   8.237  1.0042 -0.2834  0.9965
  188SLPC     N21631   3.077   1.410   6.244 -0.1395  0.2515  0.1433
  188SLPC   C1321632   3.000   1.420   6.121  0.4373 -0.6528  0.1833
  188SLPC  H13A21633   3.042   1.491   6.051  1.2479  0.2131  1.5099
  188SLPC  H13B21634   2.993   1.326   6.068  0.4804 -0.9405  0.6868
  188SLPC  H13C21635   2.900   1.458   6.140 -0.1689 -2.0798  0.0130
  188SLPC   C1421636   3.100   1.547   6.303 -0.5712 -0.6928  0.2383
  188SLPC  H14A21637   3.010   1.603   6.322  0.2707  1.2128 -1.0176
  188SLPC  H14B21638   3.158   1.538   6.394 -0.8598 -0.4191  0.4507
  188SLPC  H14C21639   3.164   1.601   6.234  1.6949 -2.6007  0.7029
  188SLPC   C1521640   3.214   1.352   6.210  0.3231  0.2130 -0.0725
  188SLPC  H15A21641   3.219   1.255   6.161  0.2179 -1.0124  2.2173
  188SLPC  H15B21642   3.281   1.421   6.161  2.2510 -0.5725  1.3054
  188SLPC  H15C21643   3.266   1.332   6.303 -2.9413 -1.8935  1.4924
  188SLPC   C1221644   3.015   1.312   6.339  0.1823 -0.5439 -0.0524
  188SLPC  H12A21645   3.000   1.221   6.281 -0.8938 -0.8305  0.6504
  188SLPC  H12B21646   2.917   1.348   6.367  0.9565  1.3785  0.2999
  188SLPC   C1121647   3.077   1.281   6.474  0.0358 -0.3070  0.0349
  188SLPC  H11A21648   3.012   1.225   6.544 -2.2458  3.0501  0.8282
  188SLPC  H11B21649   3.102   1.376   6.527  0.7713 -1.0246  1.0253
  188SLPC     P21650   3.217   1.062   6.488 -0.1241 -0.0588  0.1846
  188SLPC   O1321651   3.124   0.977   6.414 -0.2806 -0.4635  0.5841
  188SLPC   O1421652   3.362   1.037   6.473 -0.0445 -0.2712 -0.4224
  188SLPC   O1221653   3.203   1.217   6.451  0.2725 -0.3943 -0.7330
  188SLPC   O1121654   3.195   1.053   6.645  0.4223  0.2639  0.2347
  188SLPC    C121655   3.280   1.142   6.723 -0.6186 -0.0529 -0.0009
  188SLPC    HA21656   3.368   1.181   6.669 -3.0740  1.5044 -3.1607
  188SLPC    HB21657   3.227   1.234   6.755  0.3436 -0.0672  1.8096
  188SLPC    C221658   3.320   1.066   6.848 -1.0017 -0.1612 -0.0423
  188SLPC    HS21659   3.371   1.138   6.916 -0.5721  1.5356 -2.0279
  188SLPC   O2121660   3.411   0.955   6.817 -0.9801 -0.6314  0.4268
  188SLPC   C2121661   3.537   0.991   6.780  0.2509 -1.0801  0.2282
  188SLPC   O2221662   3.575   1.111   6.769  0.0964  0.4686  0.4579
  188SLPC   C2221663   3.628   0.865   6.779  0.6908 -0.2647  0.7586
  188SLPC   H2R21664   3.573   0.780   6.822 -0.6777  0.4414  0.4647
  188SLPC   H2S21665   3.638   0.854   6.669  2.8694 -0.6385  0.9434
  188SLPC    C321666   3.194   1.008   6.923 -0.0237  0.8376 -0.8208
  188SLPC    HX21667   3.149   0.940   6.847 -1.6409  0.3529  0.5077
  188SLPC    HY21668   3.120   1.089   6.940 -0.3841  0.1376  1.2301
  188SLPC   O3121669   3.219   0.943   7.047 -0.1552  0.4639  0.0517
  188SLPC   C3121670   3.240   0.810   7.041 -0.7561  0.4014  0.3268
  188SLPC   O3221671   3.207   0.742   6.942 -0.4403  0.2156 -0.3230
  188SLPC   C3221672   3.275   0.767   7.185 -0.3915 -0.1575  0.3543
  188SLPC   H2X21673   3.361   0.831   7.216 -0.1767 -0.0318 -0.4872
  188SLPC   H2Y21674   3.311   0.663   7.198  0.4034  0.0424 -0.1599
  188SLPC   C2321675   3.771   0.879   6.819 -0.0181 -0.5504 -0.6415
  188SLPC   H3R21676   3.818   0.964   6.764 -1.8309  0.9670  0.0417
  188SLPC   H3S21677   3.836   0.793   6.792 -0.8093 -2.1486  2.1504
  188SLPC   C2421678   3.779   0.889   6.968 -0.0010 -0.3717  0.4481
  188SLPC   H4R21679   3.705   0.823   7.018 -0.6511  0.7745  1.0574
  188SLPC   H4S21680   3.772   0.997   6.995 -1.6458 -0.4316  0.3796
  188SLPC   C2521681   3.919   0.850   7.027 -0.0992 -0.6761 -0.2014
  188SLPC   H5R21682   3.993   0.913   6.973 -0.3675 -0.8347 -0.7634
  188SLPC   H5S21683   3.950   0.747   6.998  0.8682 -0.3710 -0.2734
  188SLPC   C2621684   3.921   0.864   7.182 -0.2895 -0.0489 -0.9755
  188SLPC   H6R21685   3.882   0.965   7.207 -1.2876 -0.6205 -0.1536
  188SLPC   H6S21686   4.027   0.849   7.210 -1.2945 -3.4909  1.6438
  188SLPC   C2721687   3.821   0.766   7.249 -0.1078  0.6645  0.2187
  188SLPC   H7R21688   3.843   0.678   7.186 -1.0403  0.1495  0.6041
  188SLPC   H7S21689   3.716   0.800   7.239 -0.5029 -0.3689  0.7376
  188SLPC   C2821690   3.864   0.738   7.390  0.7619 -0.1087  0.7802
  188SLPC   H8R21691   3.967   0.698   7.381  0.9362  0.5547 -0.4946
  188SLPC   H8S21692   3.794   0.653   7.407  1.9521 -1.3299 -0.2094
  188SLPC   C2921693   3.856   0.863   7.474 -0.6610 -0.0641 -0.4459
  188SLPC   H9R21694   3.884   0.951   7.414 -0.2627  0.2650  0.2081
  188SLPC  C21021695   3.840   0.872   7.610  0.1388 -0.7502 -0.2399
  188SLPC  H10R21696   3.841   0.968   7.663  0.7191 -0.6611 -0.4077
  188SLPC  C21121697   3.837   0.756   7.698  0.3957 -0.8211  0.2232
  188SLPC  H11R21698   3.924   0.773   7.765  0.1805 -1.3533  0.6547
  188SLPC  H11S21699   3.847   0.662   7.641 -1.5351 -0.6189 -0.5337
  188SLPC  C21221700   3.707   0.752   7.787 -0.3284  0.3991 -0.3044
  188SLPC  H12R21701   3.608   0.780   7.747  0.4779 -0.1937 -2.9269
  188SLPC  C21321702   3.714   0.706   7.915  0.8370 -0.1010 -0.3620
  188SLPC  H13R21703   3.618   0.698   7.967 -1.0527 -1.1439 -3.7355
  188SLPC  C21421704   3.836   0.662   7.992 -0.0777  0.9831 -0.0307
  188SLPC  H14R21705   3.911   0.633   7.916 -0.2438  0.1911  0.0996
  188SLPC  H14S21706   3.797   0.575   8.049  0.3509 -0.3072 -1.6209
  188SLPC  C21521707   3.914   0.741   8.095 -0.0562 -0.0811  0.0970
  188SLPC  H15R21708   3.979   0.823   8.059 -0.1464 -0.2964 -0.5837
  188SLPC  H15S21709   3.973   0.664   8.150  0.5303  0.2017 -0.1236
  188SLPC  C21621710   3.817   0.818   8.188  0.0339  0.1710 -0.1250
  188SLPC  H16R21711   3.737   0.746   8.216  0.8040 -1.7311 -2.4715
  188SLPC  H16S21712   3.777   0.900   8.124  1.2416 -1.3201 -2.9804
  188SLPC  C21721713   3.871   0.874   8.323  0.0809 -0.3108  0.2196
  188SLPC  H17R21714   3.950   0.948   8.297  1.9505 -1.6779  1.6891
  188SLPC  H17S21715   3.918   0.791   8.379 -0.8192 -1.0336 -0.0759
  188SLPC  C21821716   3.747   0.941   8.391  0.4033  0.3536 -0.1129
  188SLPC  H18R21717   3.761   0.944   8.501  2.6406 -1.9067 -0.2195
  188SLPC  H18S21718   3.648   0.895   8.369  0.6210 -1.0915  1.6499
  188SLPC  H18T21719   3.758   1.045   8.355  1.1110  0.9848  1.8248
  188SLPC   C3321720   3.154   0.808   7.272 -0.2233  0.2973  0.6045
  188SLPC   H3X21721   3.065   0.783   7.210 -0.2943  1.4472  0.2067
  188SLPC   H3Y21722   3.154   0.919   7.280 -0.1245  0.5327 -1.9225
  188SLPC   C3421723   3.158   0.750   7.413 -0.2135 -0.4174  0.5474
  188SLPC   H4X21724   3.260   0.751   7.456  0.6058  0.8036 -1.3092
  188SLPC   H4Y21725   3.132   0.642   7.418 -0.7442 -0.4222 -1.3713
  188SLPC   C3521726   3.064   0.822   7.507 -0.3749 -0.0305 -0.2288
  188SLPC   H5X21727   2.956   0.817   7.483 -0.2044 -0.3308 -0.9591
  188SLPC   H5Y21728   3.086   0.931   7.509  2.8788 -0.5775  0.9785
  188SLPC   C3621729   3.062   0.754   7.642 -0.7735  0.4541  0.4280
  188SLPC   H6X21730   3.002   0.661   7.638 -0.8760  0.5523 -0.6483
  188SLPC   H6Y21731   3.001   0.812   7.714  1.2969  2.3505  0.7776
  188SLPC   C3721732   3.197   0.740   7.721 -0.2000 -0.5044 -0.1635
  188SLPC   H7X21733   3.242   0.842   7.717  0.2894 -0.6795  0.6113
  188SLPC   H7Y21734   3.262   0.665   7.672 -0.9081 -2.5845  1.8966
  188SLPC   C3821735   3.175   0.695   7.863  0.1140  0.7987  0.1363
  188SLPC   H8X21736   3.169   0.585   7.857 -0.5672  0.9113 -1.5607
  188SLPC   H8Y21737   3.083   0.733   7.912  1.0661  0.9342  1.9019
  188SLPC   C3921738   3.289   0.726   7.965 -0.4438 -0.4554  0.5811
  188SLPC   H9X21739   3.285   0.832   7.996  2.0029 -0.0057 -0.4267
  188SLPC   H9Y21740   3.385   0.716   7.910 -0.0432 -0.9655  1.3586
  188SLPC  C31021741   3.277   0.645   8.093 -0.0402 -0.0286 -0.4417
  188SLPC  H10X21742   3.371   0.588   8.110  0.3844  0.4963 -1.0003
  188SLPC  H10Y21743   3.196   0.571   8.076  0.6150 -1.2136  1.2567
  188SLPC  C31121744   3.257   0.739   8.215 -0.3657 -0.5158  0.3389
  188SLPC  H11X21745   3.157   0.784   8.198  0.3496  0.4595 -1.6170
  188SLPC  H11Y21746   3.325   0.827   8.207 -3.2242  1.7701 -0.7675
  188SLPC  C31221747   3.260   0.671   8.343 -0.4164 -0.2502  0.0722
  188SLPC  H12X21748   3.364   0.631   8.341 -0.2464  0.1119  1.0270
  188SLPC  H12Y21749   3.191   0.588   8.369 -0.8565 -0.1418 -0.7294
  188SLPC  C31321750   3.249   0.766   8.464 -0.3176  0.3285  0.3475
  188SLPC  H13X21751   3.149   0.814   8.461 -1.5871 -2.2077 -0.2737
  188SLPC  H13Y21752   3.336   0.835   8.464  1.9660 -2.2159 -2.7853
  188SLPC  C31421753   3.258   0.692   8.593  0.7508  0.3038 -0.0992
  188SLPC  H14X21754   3.347   0.629   8.574 -0.1948 -2.1109  2.6567
  188SLPC  H14Y21755   3.167   0.629   8.606  0.5740  0.3733 -0.9615
  188SLPC  C31521756   3.281   0.785   8.719 -0.0613 -0.4270 -0.3954
  188SLPC  H15X21757   3.182   0.833   8.735  0.3742  0.3181  0.0875
  188SLPC  H15Y21758   3.363   0.851   8.683 -0.2440  1.7715  2.7785
  188SLPC  C31621759   3.318   0.711   8.844  0.5685 -0.1000  0.0556
  188SLPC  H16X21760   3.413   0.659   8.820 -0.9996 -1.9774 -2.5037
  188SLPC  H16Y21761   3.243   0.631   8.863 -0.8273  0.6499 -1.9473
  188SLPC  C31721762   3.334   0.799   8.967 -0.7094 -0.2671  0.3243
  188SLPC  H17X21763   3.332   0.728   9.052 -1.2337 -0.1616  0.4058
  188SLPC  H17Y21764   3.240   0.858   8.968 -0.1041  0.9339 -2.5536
  188SLPC  C31821765   3.460   0.881   8.983 -0.2726  0.1442  0.0442
  188SLPC  H18X21766   3.472   0.967   8.914 -0.3971  1.4972  1.6414
  188SLPC  H18Y21767   3.546   0.811   8.977 -0.0439  0.1500  2.2191
  188SLPC  H18Z21768   3.481   0.920   9.085 -1.4276 -0.7280  0.6283
  189SLPC     N21769   4.440   1.778   5.989 -0.9013 -0.0553  0.4588
  189SLPC   C1321770   4.556   1.689   5.967  0.3997  0.0245  0.6248
  189SLPC  H13A21771   4.524   1.588   5.987  0.7396 -0.1194  0.4528
  189SLPC  H13B21772   4.582   1.696   5.862 -1.2252  1.4962  0.2817
  189SLPC  H13C21773   4.647   1.708   6.022  0.1305 -0.7900  1.3615
  189SLPC   C1421774   4.333   1.733   5.892 -0.2309 -0.4635  0.4477
  189SLPC  H14A21775   4.254   1.807   5.883 -0.6320 -0.9894 -0.4519
  189SLPC  H14B21776   4.371   1.728   5.791 -1.0130 -1.3085  0.1846
  189SLPC  H14C21777   4.288   1.638   5.912  0.2105 -0.5037  1.2595
  189SLPC   C1521778   4.481   1.921   5.959  0.7212  0.2131  0.9549
  189SLPC  H15A21779   4.399   1.991   5.963 -0.1519 -0.6515 -0.7339
  189SLPC  H15B21780   4.560   1.947   6.028  0.4271  3.3823  0.2626
  189SLPC  H15C21781   4.520   1.925   5.859  3.4266 -2.1355  1.7768
  189SLPC   C1221782   4.398   1.777   6.133 -0.7784  0.0135 -0.3122
  189SLPC  H12A21783   4.343   1.685   6.150 -0.2076 -0.3749 -0.5333
  189SLPC  H12B21784   4.330   1.860   6.146 -0.6408  0.3096 -1.3921
  189SLPC   C1121785   4.500   1.780   6.247  0.3653  0.0160  0.7228
  189SLPC  H11A21786   4.545   1.678   6.254 -0.2151 -0.2814  0.2557
  189SLPC  H11B21787   4.444   1.799   6.341  0.6942  0.1896  0.8872
  189SLPC     P21788   4.738   1.874   6.286 -0.0534 -0.4319  0.0100
  189SLPC   O1321789   4.806   1.758   6.225  0.0187  0.0597  0.6959
  189SLPC   O1421790   4.806   2.006   6.284 -0.0420 -0.0942  0.3515
  189SLPC   O1221791   4.593   1.881   6.227  0.2409 -0.2497 -0.5535
  189SLPC   O1121792   4.713   1.839   6.439  0.1858  0.1106 -0.5654
  189SLPC    C121793   4.619   1.909   6.514  0.8088 -0.3431 -0.6290
  189SLPC    HA21794   4.600   2.009   6.471 -0.6399 -0.3730 -0.1424
  189SLPC    HB21795   4.525   1.848   6.509  1.5259 -1.4767 -0.6613
  189SLPC    C221796   4.666   1.919   6.658 -0.0819  0.2858 -0.4790
  189SLPC    HS21797   4.765   1.970   6.658 -0.0564  0.2561 -1.4129
  189SLPC   O2121798   4.689   1.784   6.704  0.1352 -0.5130  0.5136
  189SLPC   C2121799   4.802   1.758   6.780  0.8618 -0.1071  0.2336
  189SLPC   O2221800   4.878   1.847   6.815 -0.0163 -0.4295  0.0218
  189SLPC   C2221801   4.814   1.610   6.814  0.0422 -0.0888  0.1422
  189SLPC   H2R21802   4.733   1.555   6.763 -0.6336  1.7406 -0.8505
  189SLPC   H2S21803   4.907   1.561   6.776 -0.4772 -1.4642  0.5990
  189SLPC    C321804   4.563   2.001   6.747 -0.4831  0.2348 -0.3166
  189SLPC    HX21805   4.465   1.949   6.754 -0.3501 -0.0113 -0.2601
  189SLPC    HY21806   4.545   2.103   6.707  0.9730  0.1963 -1.1583
  189SLPC   O3121807   4.617   2.013   6.882  0.4375  0.2216 -0.4599
  189SLPC   C3121808   4.673   2.126   6.914 -0.0021 -1.3721 -0.2592
  189SLPC   O3221809   4.694   2.221   6.837 -0.5536 -0.3931  0.4702
  189SLPC   C3221810   4.706   2.119   7.068 -0.4395  0.5748  0.7820
  189SLPC   H2X21811   4.789   2.046   7.074 -1.8265 -1.1172  0.3191
  189SLPC   H2Y21812   4.619   2.083   7.126 -0.2233 -1.2008  0.0885
  189SLPC   C2321813   4.800   1.581   6.959  0.6883 -0.5087 -0.6036
  189SLPC   H3R21814   4.772   1.475   6.973  1.2613 -0.5538  0.2373
  189SLPC   H3S21815   4.710   1.639   6.991  1.9769  1.2608  0.0053
  189SLPC   C2421816   4.914   1.638   7.048  0.3946  0.0726 -0.3408
  189SLPC   H4R21817   4.971   1.730   7.023 -0.3818  0.9357  0.9426
  189SLPC   H4S21818   4.993   1.561   7.035  1.7314  1.3394 -0.0136
  189SLPC   C2521819   4.881   1.640   7.201 -0.5092 -0.1606  0.4218
  189SLPC   H5R21820   4.979   1.650   7.254 -0.5347 -0.3893  0.5112
  189SLPC   H5S21821   4.845   1.536   7.212 -0.5822 -0.4318 -1.9287
  189SLPC   C2621822   4.777   1.741   7.232  0.4389 -0.1805 -0.7302
  189SLPC   H6R21823   4.683   1.712   7.181 -1.1203  0.8263  1.3911
  189SLPC   H6S21824   4.812   1.828   7.172  2.4198 -1.6284 -1.7657
  189SLPC   C2721825   4.758   1.764   7.383  0.1729  0.5010  0.0433
  189SLPC   H7R21826   4.846   1.776   7.450 -0.0646 -1.3173  0.7295
  189SLPC   H7S21827   4.694   1.678   7.414  1.8601 -0.7344  0.1830
  189SLPC   C2821828   4.676   1.887   7.412  0.2473 -0.0995  0.6267
  189SLPC   H8R21829   4.620   1.923   7.323  2.0326  0.2207 -0.4073
  189SLPC   H8S21830   4.741   1.975   7.428  0.2415 -0.1128  0.7237
  189SLPC   C2921831   4.580   1.875   7.525  0.8021  0.2382 -0.8085
  189SLPC   H9R21832   4.623   1.849   7.623 -0.9721  0.8551  0.1744
  189SLPC  C21021833   4.449   1.907   7.525 -0.3587  0.8392  0.0405
  189SLPC  H10R21834   4.403   1.901   7.625  1.5192  1.2497  0.9748
  189SLPC  C21121835   4.364   1.960   7.414  0.5186  0.0038  0.8138
  189SLPC  H11R21836   4.268   1.903   7.412 -0.5816  1.7781 -0.4645
  189SLPC  H11S21837   4.411   1.944   7.315  3.2104 -1.0142  2.1715
  189SLPC  C21221838   4.327   2.105   7.448  0.8930  0.4360 -0.0236
  189SLPC  H12R21839   4.382   2.151   7.532  2.3945 -0.9434 -0.2031
  189SLPC  C21321840   4.245   2.185   7.384  0.2263 -0.8091  0.8019
  189SLPC  H13R21841   4.240   2.290   7.416 -3.9415 -0.1397 -1.3504
  189SLPC  C21421842   4.171   2.151   7.252 -0.3457  0.1832 -0.4975
  189SLPC  H14R21843   4.064   2.137   7.282 -0.0248 -1.9117 -0.1633
  189SLPC  H14S21844   4.199   2.062   7.192 -1.3491  0.0301 -0.7578
  189SLPC  C21521845   4.164   2.268   7.151 -0.2470  0.2722  0.6565
  189SLPC  H15R21846   4.121   2.361   7.193  1.2731  1.8541 -1.1249
  189SLPC  H15S21847   4.092   2.225   7.079  1.1529 -1.3688  0.1590
  189SLPC  C21621848   4.301   2.298   7.084 -0.8771 -0.4177 -0.3298
  189SLPC  H16R21849   4.363   2.205   7.086 -1.1817 -0.6595 -1.4534
  189SLPC  H16S21850   4.351   2.377   7.144  0.2379  0.0362 -1.8149
  189SLPC  C21721851   4.262   2.347   6.943 -0.1805  0.1080  1.0515
  189SLPC  H17R21852   4.203   2.440   6.960 -0.2901  0.0163  1.1734
  189SLPC  H17S21853   4.200   2.270   6.893  1.0736 -0.2728  0.0198
  189SLPC  C21821854   4.382   2.376   6.850  0.3144 -0.3135  0.5151
  189SLPC  H18R21855   4.439   2.282   6.837 -1.2598 -1.3493  0.8523
  189SLPC  H18S21856   4.440   2.459   6.896 -0.5392  0.8974 -0.5279
  189SLPC  H18T21857   4.343   2.413   6.753  2.0283 -0.8576 -0.4327
  189SLPC   C3321858   4.752   2.252   7.131 -0.1125  0.4465  0.0855
  189SLPC   H3X21859   4.684   2.337   7.110  1.0079  1.1374 -0.8874
  189SLPC   H3Y21860   4.848   2.263   7.077 -0.2602  0.2621 -0.2182
  189SLPC   C3421861   4.781   2.228   7.283 -0.0609 -0.4278 -0.1161
  189SLPC   H4X21862   4.886   2.259   7.302 -0.5034  0.3095  1.3085
  189SLPC   H4Y21863   4.783   2.121   7.310  2.9556 -0.6631 -0.8869
  189SLPC   C3521864   4.698   2.319   7.377 -0.5562  0.4253  0.8214
  189SLPC   H5X21865   4.606   2.344   7.319 -0.1741  0.0974  0.0657
  189SLPC   H5Y21866   4.752   2.408   7.415  0.5535 -0.6877  1.9318
  189SLPC   C3621867   4.665   2.257   7.508 -0.3559  0.4154  0.1195
  189SLPC   H6X21868   4.757   2.222   7.560 -1.6756 -0.0830  2.2381
  189SLPC   H6Y21869   4.623   2.155   7.494  1.7407 -0.6043  0.8662
  189SLPC   C3721870   4.575   2.341   7.609  0.5940 -0.3342 -0.2533
  189SLPC   H7X21871   4.472   2.361   7.573  0.3972  0.6726  0.8401
  189SLPC   H7Y21872   4.621   2.440   7.627  0.3355 -0.5198  1.5400
  189SLPC   C3821873   4.559   2.286   7.752  0.2853 -0.4375 -0.3256
  189SLPC   H8X21874   4.662   2.275   7.793 -0.4893 -1.1152  1.5666
  189SLPC   H8Y21875   4.501   2.192   7.766 -0.1872 -0.0533  0.3498
  189SLPC   C3921876   4.472   2.382   7.836 -0.5628 -0.2554 -0.1825
  189SLPC   H9X21877   4.370   2.387   7.792 -0.0873 -1.1944 -1.4353
  189SLPC   H9Y21878   4.520   2.482   7.833  0.4661 -0.7186  0.3658
  189SLPC  C31021879   4.465   2.335   7.983  0.8128 -0.0114  0.3480
  189SLPC  H10X21880   4.568   2.309   8.015  0.6303 -1.7112 -0.3723
  189SLPC  H10Y21881   4.423   2.232   7.988  2.4324 -0.6445  1.7027
  189SLPC  C31121882   4.399   2.434   8.074 -0.0720 -0.0770 -0.0803
  189SLPC  H11X21883   4.292   2.439   8.044 -0.2210 -2.2748 -0.0901
  189SLPC  H11Y21884   4.438   2.537   8.063 -0.6560  0.1081 -0.4358
  189SLPC  C31221885   4.397   2.386   8.220 -0.1574  0.5296 -0.5498
  189SLPC  H12X21886   4.340   2.463   8.277  1.0495  0.3618  0.9302
  189SLPC  H12Y21887   4.504   2.375   8.248 -0.3384 -1.4128 -0.4497
  189SLPC  C31321888   4.333   2.254   8.254  0.8195  0.0088 -0.4142
  189SLPC  H13X21889   4.354   2.229   8.361 -2.4743 -2.9351 -0.2761
  189SLPC  H13Y21890   4.360   2.159   8.204 -1.7280 -0.7074 -0.5670
  189SLPC  C31421891   4.174   2.262   8.251 -0.7387  0.9509  0.3294
  189SLPC  H14X21892   4.141   2.250   8.146 -0.2381  1.3678  0.1198
  189SLPC  H14Y21893   4.145   2.366   8.276  1.4557  2.3120 -2.2179
  189SLPC  C31521894   4.093   2.167   8.339 -0.0855  0.0494 -0.4525
  189SLPC  H15X21895   3.990   2.208   8.347 -0.3191 -0.5735 -0.1822
  189SLPC  H15Y21896   4.120   2.170   8.446  3.6286  1.6544 -1.2970
  189SLPC  C31621897   4.095   2.013   8.298  0.1723  0.0818 -0.4371
  189SLPC  H16X21898   4.203   1.999   8.276  0.2477  0.0035 -0.0236
  189SLPC  H16Y21899   4.037   1.997   8.204 -0.7209 -0.7975  0.2438
  189SLPC  C31721900   4.030   1.916   8.396  0.0991 -0.5717 -0.3493
  189SLPC  H17X21901   4.041   1.813   8.357  0.0991 -0.4039 -0.8010
  189SLPC  H17Y21902   3.922   1.942   8.399  0.0639 -0.7828  0.4326
  189SLPC  C31821903   4.078   1.918   8.539 -0.0877  0.8209  0.2485
  189SLPC  H18X21904   4.042   1.827   8.593 -0.4560  0.2941 -0.8625
  189SLPC  H18Y21905   4.060   2.013   8.594  0.2716  0.3413  1.2306
  189SLPC  H18Z21906   4.188   1.926   8.532 -0.0854  2.3183  1.3329
  190SLPC     N21907   0.525   3.182   5.922 -0.2280  0.3698 -0.1950
  190SLPC   C1321908   0.483   3.326   5.911  0.5523 -0.0756  0.0478
  190SLPC  H13A21909   0.512   3.371   5.818  0.5481  0.7321  0.4337
  190SLPC  H13B21910   0.376   3.337   5.918  0.6104 -0.0886  1.1072
  190SLPC  H13C21911   0.517   3.395   5.987 -1.3148  1.0869 -0.1219
  190SLPC   C1421912   0.674   3.177   5.935 -0.1093  0.0945  0.0182
  190SLPC  H14A21913   0.711   3.076   5.931 -1.8086 -0.5706  0.4738
  190SLPC  H14B21914   0.728   3.247   5.872  2.3048 -0.2143  1.6213
  190SLPC  H14C21915   0.691   3.205   6.038 -2.3461 -2.5394  1.2129
  190SLPC   C1521916   0.477   3.106   5.803 -0.1216 -0.3140  0.1801
  190SLPC  H15A21917   0.499   3.163   5.714  0.7022 -0.7178  0.1128
  190SLPC  H15B21918   0.530   3.013   5.789  1.7950  1.0273 -2.4315
  190SLPC  H15C21919   0.370   3.093   5.807  0.1157 -2.5975  4.1877
  190SLPC   C1221920   0.467   3.105   6.043  0.5480 -0.4700  0.1678
  190SLPC  H12A21921   0.525   3.014   6.054 -1.1789 -1.4503  1.5962
  190SLPC  H12B21922   0.366   3.081   6.013  1.1222 -2.0711 -0.6298
  190SLPC   C1121923   0.452   3.178   6.177  0.7265  0.7064 -0.1824
  190SLPC  H11A21924   0.373   3.134   6.242 -1.7256  2.9002 -1.5103
  190SLPC  H11B21925   0.426   3.280   6.143  0.1614  0.4721 -0.4574
  190SLPC     P21926   0.650   3.081   6.320 -0.1684 -0.3253 -0.0140
  190SLPC   O1321927   0.695   2.971   6.230  0.0579  0.9715 -0.3369
  190SLPC   O1421928   0.755   3.140   6.405  0.2846 -0.6464 -0.6014
  190SLPC   O1221929   0.580   3.197   6.242  0.3091 -0.1360 -0.1399
  190SLPC   O1121930   0.536   3.023   6.413 -0.5651  0.4403  0.6354
  190SLPC    C121931   0.478   3.119   6.502 -0.6754 -0.4552 -0.1674
  190SLPC    HA21932   0.554   3.193   6.535 -1.6650  0.6475 -0.2823
  190SLPC    HB21933   0.398   3.179   6.453 -0.8054  0.7274  1.4163
  190SLPC    C221934   0.414   3.055   6.630 -0.5668  0.2542 -0.3926
  190SLPC    HS21935   0.369   3.140   6.685 -1.6691 -0.9708  0.6746
  190SLPC   O2121936   0.517   2.985   6.694  0.1400  0.2409  0.1295
  190SLPC   C2121937   0.603   3.060   6.762 -0.2464 -0.6020  0.1993
  190SLPC   O2221938   0.591   3.177   6.779 -0.3183 -0.1083 -0.0212
  190SLPC   C2221939   0.722   2.974   6.809  0.2887  0.5132  0.1845
  190SLPC   H2R21940   0.706   2.870   6.775 -0.7909  0.8959 -0.4893
  190SLPC   H2S21941   0.810   3.012   6.753  1.2056  0.9863  1.8539
  190SLPC    C321942   0.297   2.959   6.591  0.5032  0.7877  0.3633
  190SLPC    HX21943   0.342   2.872   6.540  0.0551 -0.2746  1.7228
  190SLPC    HY21944   0.239   2.998   6.504  1.4844  1.1231 -0.1574
  190SLPC   O3121945   0.215   2.910   6.699 -0.4457 -0.1783 -0.0660
  190SLPC   C3121946   0.119   2.989   6.735  0.1508  0.0202 -0.0290
  190SLPC   O3221947   0.082   3.096   6.679 -0.1782 -0.1807  0.3766
  190SLPC   C3221948   0.067   2.944   6.877  0.0028  0.3453  0.6794
  190SLPC   H2X21949   0.004   2.853   6.865  0.9309 -0.6914  3.0450
  190SLPC   H2Y21950   0.020   3.034   6.921  0.3440  2.4911 -2.9230
  190SLPC   C2321951   0.741   2.966   6.964 -0.2970  0.2547  0.0163
  190SLPC   H3R21952   0.762   3.066   7.007 -0.9223 -0.2586  1.5658
  190SLPC   H3S21953   0.827   2.898   6.981 -0.5193 -0.1498 -0.4503
  190SLPC   C2421954   0.612   2.911   7.029 -0.7042 -0.0583  0.2800
  190SLPC   H4R21955   0.584   2.808   7.001 -3.1328  0.5711  0.1969
  190SLPC   H4S21956   0.529   2.964   6.977  0.5178  0.9137 -0.7417
  190SLPC   C2521957   0.597   2.930   7.178  0.3008 -0.6323 -0.3922
  190SLPC   H5R21958   0.489   2.921   7.202  0.6761 -0.3265  1.6656
  190SLPC   H5S21959   0.629   3.033   7.204  5.3530 -1.6159 -1.4771
  190SLPC   C2621960   0.672   2.827   7.262  0.0840  0.6151 -0.4335
  190SLPC   H6R21961   0.783   2.836   7.267  0.0702  0.1657  1.4061
  190SLPC   H6S21962   0.655   2.726   7.218  0.9906 -1.2164  2.9804
  190SLPC   C2721963   0.645   2.827   7.415  0.1885  0.0043  0.2405
  190SLPC   H7R21964   0.545   2.780   7.431 -1.2696  3.1495  1.0616
  190SLPC   H7S21965   0.652   2.932   7.450  4.5677  0.5966 -1.7097
  190SLPC   C2821966   0.749   2.741   7.502 -0.1355 -0.4227  0.1004
  190SLPC   H8R21967   0.856   2.759   7.476 -0.5430  0.3108 -1.1596
  190SLPC   H8S21968   0.729   2.639   7.465  1.2442 -0.6074 -0.1917
  190SLPC   C2921969   0.723   2.768   7.649  0.0103  0.2081 -0.1384
  190SLPC   H9R21970   0.764   2.851   7.708 -1.3227  1.3327 -0.7152
  190SLPC  C21021971   0.654   2.680   7.730 -0.1873 -0.2362  1.2236
  190SLPC  H10R21972   0.641   2.694   7.838 -3.1386 -0.8678  1.0260
  190SLPC  C21121973   0.594   2.546   7.681  0.1501  0.4919 -0.0220
  190SLPC  H11R21974   0.567   2.557   7.574 -2.9758  1.6030  0.7657
  190SLPC  H11S21975   0.497   2.534   7.735  0.6095  2.4707  1.3759
  190SLPC  C21221976   0.686   2.425   7.715  0.0062 -0.2223  0.0068
  190SLPC  H12R21977   0.772   2.402   7.651  0.2017 -3.6369  1.3102
  190SLPC  C21321978   0.660   2.331   7.810 -0.1979 -0.1908 -0.1072
  190SLPC  H13R21979   0.725   2.242   7.816  0.5804  0.3705  0.0223
  190SLPC  C21421980   0.547   2.335   7.910  1.0521 -0.2368 -1.3342
  190SLPC  H14R21981   0.471   2.262   7.875  1.0992 -0.8146 -0.2895
  190SLPC  H14S21982   0.491   2.430   7.904  0.0688 -0.6475  0.4372
  190SLPC  C21521983   0.590   2.304   8.057 -0.1665  0.2324  0.6168
  190SLPC  H15R21984   0.645   2.393   8.094  0.7037 -0.4279  0.9562
  190SLPC  H15S21985   0.655   2.213   8.059 -0.4878 -0.1306 -2.1885
  190SLPC  C21621986   0.475   2.284   8.160  0.6235 -0.1988  0.4173
  190SLPC  H16R21987   0.407   2.201   8.133 -1.9356  1.8824  0.0767
  190SLPC  H16S21988   0.412   2.375   8.173 -0.6257 -1.1474  1.1279
  190SLPC  C21721989   0.530   2.262   8.298 -0.3182 -0.8020 -0.2530
  190SLPC  H17R21990   0.603   2.344   8.319 -0.3084 -0.4339 -1.6225
  190SLPC  H17S21991   0.576   2.165   8.326  1.0360  0.0725  0.6915
  190SLPC  C21821992   0.422   2.268   8.406 -0.4242  0.0454  0.4254
  190SLPC  H18R21993   0.359   2.176   8.406 -2.4825  1.3876  1.2218
  190SLPC  H18S21994   0.356   2.357   8.411  0.5816  0.8069  0.5187
  190SLPC  H18T21995   0.475   2.271   8.504 -0.1354  2.7803  0.2707
  190SLPC   C3321996   0.178   2.911   6.974  0.5031  0.6230 -0.5751
  190SLPC   H3X21997   0.239   3.000   7.000 -2.0215  2.8984 -1.8908
  190SLPC   H3Y21998   0.244   2.841   6.918 -0.4074 -0.2796 -0.5669
  190SLPC   C3421999   0.127   2.833   7.097  0.6566 -0.3181  0.0879
  190SLPC   H4X22000   0.059   2.754   7.057 -0.7399  0.7223  0.3324
  190SLPC   H4Y22001   0.076   2.901   7.168 -0.5008 -1.8032  0.7295
  190SLPC   C3522002   0.244   2.768   7.180 -0.3486 -0.0285  0.1505
  190SLPC   H5X22003   0.280   2.848   7.248 -0.6368  2.0134 -1.9892
  190SLPC   H5Y22004   0.330   2.737   7.116 -1.0420 -0.4938 -0.5719
  190SLPC   C3622005   0.205   2.655   7.272 -0.2862 -0.0083 -0.4460
  190SLPC   H6X22006   0.142   2.578   7.222 -0.8599 -0.1944  0.5394
  190SLPC   H6Y22007   0.140   2.708   7.344  2.1850  1.3089  0.9648
  190SLPC   C3722008   0.313   2.589   7.358 -0.2188 -0.5905  0.5747
  190SLPC   H7X22009   0.351   2.653   7.441  0.6973 -1.4551  0.8397
  190SLPC   H7Y22010   0.403   2.561   7.299 -0.2745  0.0188  0.1992
  190SLPC   C3822011   0.261   2.457   7.424 -0.4515 -0.1123  0.6514
  190SLPC   H8X22012   0.350   2.413   7.474  0.7240 -0.6562 -1.7800
  190SLPC   H8Y22013   0.222   2.393   7.343  0.7406  0.7565 -0.6512
  190SLPC   C3922014   0.146   2.480   7.523  0.5845 -0.4025  0.2754
  190SLPC   H9X22015   0.112   2.376   7.543  1.1822 -0.2164  2.4912
  190SLPC   H9Y22016   0.063   2.531   7.469 -0.0307  0.0200  1.5828
  190SLPC  C31022017   0.176   2.544   7.664 -0.5438 -0.2577  0.5699
  190SLPC  H10X22018   0.240   2.634   7.653 -1.2670  0.1549 -0.3433
  190SLPC  H10Y22019   0.240   2.468   7.714  2.6311  2.0501  0.3061
  190SLPC  C31122020   0.054   2.567   7.743  0.1261 -0.2946 -0.6685
  190SLPC  H11X22021   0.004   2.470   7.765 -1.7346 -0.4057 -4.5422
  190SLPC  H11Y22022  -0.017   2.626   7.682 -1.4769 -0.2695  1.1436
  190SLPC  C31222023   0.078   2.665   7.863 -0.3016 -0.0391  0.4443
  190SLPC  H12X22024  -0.019   2.692   7.909 -0.2851 -1.0386  1.0826
  190SLPC  H12Y22025   0.133   2.755   7.827  0.1445  0.2508  1.7926
  190SLPC  C31322026   0.177   2.603   7.965 -0.0000  0.2401 -0.0273
  190SLPC  H13X22027   0.285   2.588   7.944  0.3407 -1.8077  2.6545
  190SLPC  H13Y22028   0.131   2.503   7.978 -1.6418  0.7659 -1.4526
  190SLPC  C31422029   0.176   2.678   8.099 -0.3488 -0.4061  0.1069
  190SLPC  H14X22030   0.070   2.694   8.128  0.4554  2.6200  1.8824
  190SLPC  H14Y22031   0.218   2.779   8.080  0.3672 -0.7855 -0.3809
  190SLPC  C31522032   0.264   2.618   8.208 -0.2582 -0.2999  0.2809
  190SLPC  H15X22033   0.369   2.616   8.170  0.4642  0.3153  2.0958
  190SLPC  H15Y22034   0.239   2.513   8.233  0.3895 -0.1750  1.5656
  190SLPC  C31622035   0.269   2.701   8.338 -0.3805  0.2584  0.2518
  190SLPC  H16X22036   0.177   2.696   8.401  0.2991  0.9232  1.3257
  190SLPC  H16Y22037   0.293   2.808   8.322 -0.8010  0.7074  2.2923
  190SLPC  C31722038   0.370   2.649   8.442 -0.4719  0.4316  0.1433
  190SLPC  H17X22039   0.469   2.639   8.393 -0.0554 -1.2403  1.2574
  190SLPC  H17Y22040   0.341   2.559   8.501  0.0526 -0.5905 -1.1260
  190SLPC  C31822041   0.393   2.749   8.557 -0.4185 -0.9615  0.1650
  190SLPC  H18X22042   0.318   2.736   8.637 -1.0688 -0.8244 -0.4149
  190SLPC  H18Y22043   0.394   2.854   8.522  0.5921 -0.8560  0.4668
  190SLPC  H18Z22044   0.496   2.737   8.597  0.0253  1.0914 -0.2799
  191SLPC     N22045   5.371   3.436   6.014 -0.3359 -0.0701 -0.4080
  191SLPC   C1322046   5.258   3.359   5.961  0.5314  0.5923 -0.3558
  191SLPC  H13A22047   5.264   3.329   5.858  0.0915 -0.0466 -0.1997
  191SLPC  H13B22048   5.237   3.270   6.019  0.0987 -0.1616 -1.6328
  191SLPC  H13C22049   5.175   3.427   5.974  1.6991  1.9517  0.3465
  191SLPC   C1422050   5.502   3.368   5.967  0.3556  0.1012 -0.0253
  191SLPC  H14A22051   5.589   3.424   5.998 -0.7482  0.5333  2.5663
  191SLPC  H14B22052   5.502   3.265   6.000  0.4795 -0.3647 -1.3885
  191SLPC  H14C22053   5.490   3.355   5.860  0.2074  2.0203 -0.2724
  191SLPC   C1522054   5.364   3.431   6.173 -0.2960  0.7943 -0.3223
  191SLPC  H15A22055   5.270   3.448   6.223  0.2771 -1.3438  1.6472
  191SLPC  H15B22056   5.403   3.332   6.193  0.9097  0.4802 -3.6031
  191SLPC  H15C22057   5.437   3.499   6.215 -1.7977  1.1355  1.8734
  191SLPC   C1222058   5.375   3.584   5.974 -0.4406 -0.4523  0.6480
  191SLPC  H12A22059   5.383   3.590   5.866 -1.3634  1.0662  0.6336
  191SLPC  H12B22060   5.466   3.630   6.011  0.5504 -1.0633 -0.8936
  191SLPC   C1122061   5.254   3.672   6.000  0.3213  0.1398  0.4044
  191SLPC  H11A22062   5.285   3.772   5.963 -0.3831 -0.2042 -1.1648
  191SLPC  H11B22063   5.243   3.673   6.111  2.1864  0.4292  0.6284
  191SLPC     P22064   4.995   3.717   5.952 -0.5618  0.3185 -0.8423
  191SLPC   O1322065   5.020   3.854   5.905  0.1739 -0.3256 -0.4473
  191SLPC   O1422066   4.886   3.643   5.888  0.4254 -0.0520 -0.2938
  191SLPC   O1222067   5.131   3.625   5.934  0.5351 -0.6982  0.0295
  191SLPC   O1122068   4.971   3.720   6.108 -0.5286  0.4548 -0.5002
  191SLPC    C122069   4.947   3.590   6.164  0.8928 -0.5220  0.6986
  191SLPC    HA22070   4.848   3.550   6.136 -0.0511  1.2126  1.4055
  191SLPC    HB22071   5.025   3.514   6.140 -0.3281 -2.1444  1.6891
  191SLPC    C222072   4.964   3.591   6.316 -0.0775 -0.1879 -0.6846
  191SLPC    HS22073   4.918   3.685   6.354  0.5917 -0.1428  0.0508
  191SLPC   O2122074   5.103   3.577   6.353  0.0657 -0.0496  0.9155
  191SLPC   C2122075   5.147   3.670   6.434 -0.2828  0.1196 -0.4839
  191SLPC   O2222076   5.081   3.755   6.493  0.0156  0.5520  0.2423
  191SLPC   C2222077   5.298   3.646   6.436  0.7014 -0.4481  0.5251
  191SLPC   H2R22078   5.326   3.540   6.450  1.7907 -0.1550  0.6658
  191SLPC   H2S22079   5.344   3.677   6.340 -0.2813  0.4140  0.3112
  191SLPC    C322080   4.883   3.481   6.385  0.2783 -0.3515  1.1438
  191SLPC    HX22081   4.908   3.386   6.333 -0.7598  0.7671 -1.5997
  191SLPC    HY22082   4.774   3.497   6.374 -0.0171 -2.3257  0.7773
  191SLPC   O3122083   4.915   3.466   6.525  0.2170 -0.1560 -0.2981
  191SLPC   C3122084   4.846   3.536   6.610 -0.2144  0.0163 -0.6291
  191SLPC   O3222085   4.765   3.624   6.586  0.0182  0.3343 -0.3785
  191SLPC   C3222086   4.880   3.487   6.750 -0.0703  0.2222 -0.9740
  191SLPC   H2X22087   4.986   3.505   6.778 -1.0874 -0.8224  4.7077
  191SLPC   H2Y22088   4.872   3.376   6.748  4.4906 -0.3278 -3.2696
  191SLPC   C2322089   5.375   3.741   6.535  0.0662  0.0264  0.3985
  191SLPC   H3R22090   5.318   3.834   6.557  0.5416  1.1356 -2.6776
  191SLPC   H3S22091   5.470   3.766   6.484 -0.6023 -1.7479 -1.8822
  191SLPC   C2422092   5.395   3.670   6.662  0.0574  0.5505 -0.7055
  191SLPC   H4R22093   5.463   3.743   6.710 -2.5770  2.6866  0.0038
  191SLPC   H4S22094   5.455   3.582   6.631 -0.8240 -0.4828  0.4690
  191SLPC   C2522095   5.265   3.639   6.740 -0.5487  0.3219  0.7325
  191SLPC   H5R22096   5.203   3.565   6.686 -0.3281  1.9035 -1.8968
  191SLPC   H5S22097   5.203   3.731   6.747  0.1254  0.8200  0.2773
  191SLPC   C2622098   5.292   3.607   6.885 -0.8436  0.0253 -0.1288
  191SLPC   H6R22099   5.340   3.506   6.888  0.9707  0.8575  0.6416
  191SLPC   H6S22100   5.197   3.592   6.940 -0.7895 -0.9567 -0.2812
  191SLPC   C2722101   5.400   3.699   6.949  0.7317  0.4724 -0.0281
  191SLPC   H7R22102   5.374   3.800   6.911 -1.0269  0.4905  1.1178
  191SLPC   H7S22103   5.502   3.675   6.913  0.9810  1.9363 -0.3663
  191SLPC   C2822104   5.405   3.705   7.100 -0.2244  0.1513  0.1682
  191SLPC   H8R22105   5.300   3.699   7.136 -0.9044 -0.0410 -1.7431
  191SLPC   H8S22106   5.452   3.799   7.137 -0.8834  0.9080 -0.8704
  191SLPC   C2922107   5.491   3.594   7.154 -0.6894  0.0671 -0.6289
  191SLPC   H9R22108   5.600   3.594   7.137 -0.6398 -0.8898 -0.3534
  191SLPC  C21022109   5.443   3.501   7.246  0.0991 -0.9932 -0.4786
  191SLPC  H10R22110   5.510   3.433   7.300  1.6520  0.4152 -0.5458
  191SLPC  C21122111   5.308   3.498   7.314 -0.5658  0.5362  0.5271
  191SLPC  H11R22112   5.243   3.581   7.277 -0.8658  0.2830  0.4857
  191SLPC  H11S22113   5.325   3.517   7.422 -0.0546  3.0164  0.0746
  191SLPC  C21222114   5.232   3.368   7.299 -0.0052 -0.7233 -0.0414
  191SLPC  H12R22115   5.214   3.335   7.196  1.4053  0.6588 -0.7805
  191SLPC  C21322116   5.175   3.299   7.402  0.3732 -0.3060  0.4163
  191SLPC  H13R22117   5.102   3.221   7.376 -2.5978  2.5177 -0.4338
  191SLPC  C21422118   5.187   3.333   7.547 -0.1444 -0.1020 -0.3069
  191SLPC  H14R22119   5.164   3.440   7.562  2.8763  0.2407  3.3238
  191SLPC  H14S22120   5.291   3.317   7.584 -0.5975 -2.1102  0.2514
  191SLPC  C21522121   5.095   3.241   7.630  0.4148  0.3463  0.2986
  191SLPC  H15R22122   5.135   3.138   7.617  1.5198  0.9238 -1.1939
  191SLPC  H15S22123   4.998   3.226   7.577  1.3073 -1.9108 -0.8116
  191SLPC  C21622124   5.068   3.278   7.775  0.4188 -0.6576  0.1225
  191SLPC  H16R22125   5.018   3.376   7.795 -1.1282 -1.3814 -0.0203
  191SLPC  H16S22126   5.164   3.276   7.831  0.2292  2.9212  0.8051
  191SLPC  C21722127   4.981   3.181   7.859 -0.1102 -0.3659  0.5274
  191SLPC  H17R22128   4.984   3.075   7.829  0.3749 -0.2408  0.1183
  191SLPC  H17S22129   4.876   3.217   7.847  0.5674  1.2837 -0.9917
  191SLPC  C21822130   5.012   3.204   8.002  0.4062 -0.5765 -0.4948
  191SLPC  H18R22131   5.009   3.112   8.064  1.9147 -0.3815 -0.0925
  191SLPC  H18S22132   4.940   3.264   8.062 -0.9723 -1.0972 -1.5762
  191SLPC  H18T22133   5.111   3.250   8.025  0.0661 -0.6600  1.2851
  191SLPC   C3322134   4.797   3.545   6.867  0.0737 -0.5028  0.0954
  191SLPC   H3X22135   4.688   3.528   6.858  0.4960 -3.1783 -1.1320
  191SLPC   H3Y22136   4.814   3.654   6.857  2.5160 -0.9265 -1.4837
  191SLPC   C3422137   4.862   3.497   6.999  0.1206  0.2662  0.4198
  191SLPC   H4X22138   4.962   3.545   7.011  1.3665 -1.8276 -0.9039
  191SLPC   H4Y22139   4.882   3.388   7.007  3.0940  0.7615  1.0103
  191SLPC   C3522140   4.772   3.529   7.118 -0.2792  0.0779  0.3257
  191SLPC   H5X22141   4.675   3.478   7.103 -0.1316 -1.0037  2.6621
  191SLPC   H5Y22142   4.756   3.639   7.128 -3.0502 -0.3211  1.0872
  191SLPC   C3622143   4.830   3.496   7.259  0.3336 -0.1437  1.0536
  191SLPC   H6X22144   4.927   3.547   7.275  1.7630 -0.1850 -5.0029
  191SLPC   H6Y22145   4.847   3.386   7.253  0.3934 -0.0762 -0.1973
  191SLPC   C3722146   4.735   3.521   7.377  0.1691 -0.3174 -0.2817
  191SLPC   H7X22147   4.643   3.476   7.334 -0.3125  2.6822 -2.7381
  191SLPC   H7Y22148   4.719   3.630   7.391  0.7966 -0.4536  1.9930
  191SLPC   C3822149   4.767   3.471   7.516  1.0075  0.6432 -0.1373
  191SLPC   H8X22150   4.848   3.527   7.567  2.6856  0.4148 -2.4058
  191SLPC   H8Y22151   4.796   3.364   7.502 -0.4298  0.2401 -0.2142
  191SLPC   C3922152   4.634   3.472   7.603 -0.2382 -0.1209 -0.0794
  191SLPC   H9X22153   4.556   3.401   7.570  2.7425 -2.1486 -3.6218
  191SLPC   H9Y22154   4.590   3.573   7.612  0.8700  0.2933  1.0385
  191SLPC  C31022155   4.665   3.431   7.751  0.1585  0.2071 -0.0152
  191SLPC  H10X22156   4.772   3.453   7.769  0.2175 -0.6208  0.6893
  191SLPC  H10Y22157   4.650   3.322   7.767  1.7111  0.1244  1.2222
  191SLPC  C31122158   4.584   3.495   7.874  0.6276 -0.2320  0.1860
  191SLPC  H11X22159   4.487   3.440   7.867 -0.6083  1.8318  0.3028
  191SLPC  H11Y22160   4.566   3.601   7.849 -0.3624 -0.5602 -0.5499
  191SLPC  C31222161   4.643   3.466   8.009 -0.3265  0.3315 -0.2867
  191SLPC  H12X22162   4.648   3.358   8.032  1.4079  0.7201  1.3974
  191SLPC  H12Y22163   4.568   3.507   8.080 -1.1969 -0.6845 -0.5913
  191SLPC  C31322164   4.784   3.527   8.030  0.1244  0.4091 -0.4631
  191SLPC  H13X22165   4.778   3.632   7.994 -3.0404  0.9319  1.2627
  191SLPC  H13Y22166   4.854   3.466   7.969 -0.3216 -0.2614 -0.3159
  191SLPC  C31422167   4.823   3.534   8.179 -0.0896  0.2176 -0.8156
  191SLPC  H14X22168   4.825   3.429   8.213  2.5710  0.7344  0.9098
  191SLPC  H14Y22169   4.754   3.596   8.240  0.8729  1.7116 -1.1756
  191SLPC  C31522170   4.964   3.585   8.199 -0.2241 -0.7151  0.7247
  191SLPC  H15X22171   4.959   3.695   8.186  0.2791 -0.7688  0.0222
  191SLPC  H15Y22172   5.013   3.544   8.109  1.4973 -0.0107  1.3111
  191SLPC  C31622173   5.030   3.543   8.337 -0.5184 -0.1016  0.4669
  191SLPC  H16X22174   5.055   3.435   8.332 -0.9087 -0.1339 -2.2765
  191SLPC  H16Y22175   4.951   3.552   8.415  0.7544  2.4142  1.6031
  191SLPC  C31722176   5.153   3.615   8.386  1.3823  0.2506  0.1864
  191SLPC  H17X22177   5.233   3.621   8.309  0.8499 -0.3475 -0.4193
  191SLPC  H17Y22178   5.194   3.560   8.474 -1.0192 -0.0394  1.2089
  191SLPC  C31822179   5.126   3.752   8.448  0.6245  0.3157 -0.2085
  191SLPC  H18X22180   5.017   3.761   8.462  0.5578  2.0174 -1.6002
  191SLPC  H18Y22181   5.158   3.841   8.390 -0.5219  1.7521  1.2733
  191SLPC  H18Z22182   5.178   3.752   8.547 -0.8292 -2.6013  0.6900
  192SLPC     N22183   5.236   5.536   6.289  0.1217 -0.8158  0.4975
  192SLPC   C1322184   5.259   5.518   6.142 -0.7296 -0.7073  0.2560
  192SLPC  H13A22185   5.206   5.588   6.080  1.6978 -0.1457 -1.3384
  192SLPC  H13B22186   5.365   5.531   6.123 -1.2857  1.6144 -1.7005
  192SLPC  H13C22187   5.226   5.422   6.106 -2.8176  0.4615 -1.1736
  192SLPC   C1422188   5.310   5.658   6.335  0.5723 -0.2334  0.0547
  192SLPC  H14A22189   5.412   5.656   6.301  0.2205  1.8858 -1.3393
  192SLPC  H14B22190   5.252   5.735   6.286  1.6399 -1.8138 -4.1742
  192SLPC  H14C22191   5.306   5.668   6.442 -0.2082 -1.6383  0.1873
  192SLPC   C1522192   5.314   5.419   6.343  0.3346  0.5570  0.2527
  192SLPC  H15A22193   5.417   5.421   6.310  0.3626 -1.9128 -0.0156
  192SLPC  H15B22194   5.311   5.428   6.451 -4.5577 -1.9479  0.6052
  192SLPC  H15C22195   5.266   5.324   6.325  0.2254  0.2751  1.8816
  192SLPC   C1222196   5.089   5.529   6.317  0.6353 -0.4730  0.7892
  192SLPC  H12A22197   5.046   5.439   6.275  3.2822 -1.4404 -0.0658
  192SLPC  H12B22198   5.035   5.612   6.276  1.3256  0.7873  2.3151
  192SLPC   C1122199   5.058   5.537   6.464 -0.0806  0.4022  0.2461
  192SLPC  H11A22200   5.110   5.624   6.510  1.1956 -1.3999  2.4748
  192SLPC  H11B22201   5.098   5.452   6.524  2.1392  2.2089  1.4925
  192SLPC     P22202   4.828   5.416   6.465 -0.2607 -0.0852 -0.3725
  192SLPC   O1322203   4.686   5.453   6.472 -0.2198  0.2533  0.2608
  192SLPC   O1422204   4.879   5.323   6.352  0.0889 -0.9846 -0.2262
  192SLPC   O1222205   4.918   5.547   6.469 -0.1103 -0.4226 -0.2826
  192SLPC   O1122206   4.868   5.351   6.597 -0.1676  0.1763 -0.0143
  192SLPC    C122207   4.885   5.424   6.726 -0.3754  0.1453  0.3274
  192SLPC    HA22208   4.991   5.406   6.754  0.4723  0.5314 -2.3337
  192SLPC    HB22209   4.869   5.533   6.712  2.9985  0.7066 -0.1079
  192SLPC    C222210   4.800   5.357   6.831 -0.5058 -0.8808 -0.4645
  192SLPC    HS22211   4.796   5.247   6.816 -0.4659 -0.9256 -0.1439
  192SLPC   O2122212   4.667   5.414   6.823  0.6555 -0.0030  0.4018
  192SLPC   C2122213   4.569   5.331   6.844  0.0399 -0.4721 -0.0024
  192SLPC   O2222214   4.577   5.215   6.875 -0.0467  0.4760  0.5460
  192SLPC   C2222215   4.439   5.408   6.830  0.7402 -0.6726  0.8723
  192SLPC   H2R22216   4.443   5.506   6.881  0.4638 -0.3936  0.3754
  192SLPC   H2S22217   4.418   5.424   6.722 -1.5424  0.8915  1.4694
  192SLPC    C322218   4.864   5.383   6.964 -0.1138  0.0383  0.1170
  192SLPC    HX22219   4.882   5.493   6.962  1.3107 -0.1801 -1.6154
  192SLPC    HY22220   4.964   5.339   6.986  1.3084  0.7821 -3.9764
  192SLPC   O3122221   4.772   5.363   7.078 -0.3232 -0.0801  0.1166
  192SLPC   C3122222   4.756   5.236   7.116 -0.5351  0.4317  0.0177
  192SLPC   O3222223   4.832   5.143   7.085  0.9993 -0.2024 -0.1489
  192SLPC   C3222224   4.635   5.220   7.207 -0.7782 -0.9557 -1.0791
  192SLPC   H2X22225   4.619   5.111   7.220 -0.8152 -1.1675 -2.7065
  192SLPC   H2Y22226   4.551   5.264   7.149 -0.8353  0.4056 -0.0231
  192SLPC   C2322227   4.311   5.327   6.870  0.3103  0.3610  0.3723
  192SLPC   H3R22228   4.306   5.232   6.813 -3.0733  1.1988 -0.9522
  192SLPC   H3S22229   4.220   5.379   6.833  1.1496  1.0692 -0.7506
  192SLPC   C2422230   4.286   5.298   7.018  0.7169 -0.1627 -0.3919
  192SLPC   H4R22231   4.371   5.241   7.062  0.4295 -2.0717 -2.1360
  192SLPC   H4S22232   4.191   5.244   7.037  0.9183 -0.0969  0.8763
  192SLPC   C2522233   4.273   5.427   7.092 -0.4616 -0.1897  0.3351
  192SLPC   H5R22234   4.208   5.487   7.026 -2.0596 -1.7959  0.3659
  192SLPC   H5S22235   4.373   5.475   7.102  0.0289 -1.0840 -0.1003
  192SLPC   C2622236   4.206   5.408   7.227 -0.1459  0.4343 -0.3391
  192SLPC   H6R22237   4.142   5.318   7.230  3.3278 -2.2348  2.0887
  192SLPC   H6S22238   4.139   5.495   7.246 -1.5517 -1.0234  1.9275
  192SLPC   C2722239   4.301   5.385   7.347  0.1472 -0.7778 -0.0603
  192SLPC   H7R22240   4.339   5.487   7.374  1.8070 -1.9497  2.4108
  192SLPC   H7S22241   4.384   5.312   7.339  0.1304 -1.0252  1.5780
  192SLPC   C2822242   4.216   5.344   7.470 -0.0127 -0.1721 -0.5694
  192SLPC   H8R22243   4.178   5.239   7.467 -0.5493 -0.1195  2.2375
  192SLPC   H8S22244   4.126   5.408   7.459  0.3242  0.4444  0.2320
  192SLPC   C2922245   4.279   5.371   7.597 -0.6495  0.4487 -0.4062
  192SLPC   H9R22246   4.320   5.472   7.609 -1.2749  0.6635 -0.0053
  192SLPC  C21022247   4.286   5.292   7.708  0.2128 -0.4983  0.1353
  192SLPC  H10R22248   4.346   5.326   7.794  2.1049  0.2905 -1.4188
  192SLPC  C21122249   4.220   5.163   7.712 -0.4716  0.4214  0.2933
  192SLPC  H11R22250   4.289   5.080   7.688 -0.1805  0.2220  1.7362
  192SLPC  H11S22251   4.142   5.157   7.633 -0.5236 -3.2996  0.4522
  192SLPC  C21222252   4.158   5.130   7.851 -0.3549 -0.0899 -1.0192
  192SLPC  H12R22253   4.048   5.130   7.854 -0.4108  3.4129  1.3510
  192SLPC  C21322254   4.227   5.084   7.958  0.0881 -0.4850 -0.0282
  192SLPC  H13R22255   4.177   5.082   8.057  1.7891 -2.9382  0.8753
  192SLPC  C21422256   4.374   5.053   7.968  1.0138 -0.1717  0.3878
  192SLPC  H14R22257   4.435   5.088   7.881 -1.5045  1.6587 -0.7605
  192SLPC  H14S22258   4.378   4.942   7.970 -2.5081 -0.5322 -2.2811
  192SLPC  C21522259   4.433   5.126   8.087  0.2555  0.1573  0.3076
  192SLPC  H15R22260   4.371   5.101   8.175 -0.3208  0.5143  0.0064
  192SLPC  H15S22261   4.425   5.235   8.070 -0.3446 -0.0406 -0.7829
  192SLPC  C21622262   4.575   5.100   8.108 -0.7115 -0.3614 -0.6384
  192SLPC  H16R22263   4.636   5.144   8.026 -0.7531  1.3478  0.2208
  192SLPC  H16S22264   4.586   4.991   8.126  0.3390 -0.0496  0.7034
  192SLPC  C21722265   4.622   5.161   8.241 -0.7166  0.3786 -0.4947
  192SLPC  H17R22266   4.548   5.130   8.318  2.0302 -2.3773  1.2810
  192SLPC  H17S22267   4.713   5.105   8.274 -0.7924 -0.3003 -1.4010
  192SLPC  C21822268   4.646   5.315   8.241  0.2351 -0.4312  0.8459
  192SLPC  H18R22269   4.548   5.359   8.212 -0.8535 -2.7202  0.8608
  192SLPC  H18S22270   4.729   5.344   8.173 -1.0816  2.7279  0.4081
  192SLPC  H18T22271   4.668   5.360   8.340  1.3011 -1.3427  1.0367
  192SLPC   C3322272   4.659   5.289   7.348  0.3364  0.4046  0.4266
  192SLPC   H3X22273   4.562   5.305   7.401 -0.3184 -0.2791 -0.5255
  192SLPC   H3Y22274   4.707   5.389   7.336 -0.1056  0.4837 -0.8837
  192SLPC   C3422275   4.741   5.200   7.439 -0.2733 -0.6057  0.0989
  192SLPC   H4X22276   4.841   5.180   7.396 -1.1411 -2.5335 -1.1370
  192SLPC   H4Y22277   4.695   5.100   7.458  0.3404 -0.8429  0.3678
  192SLPC   C3522278   4.773   5.266   7.580 -0.4870  0.7949  0.1709
  192SLPC   H5X22279   4.678   5.297   7.629 -0.7755  0.3511 -0.1048
  192SLPC   H5Y22280   4.823   5.364   7.561 -2.1098  1.2169 -2.5139
  192SLPC   C3622281   4.864   5.179   7.670 -0.1905  0.2211 -0.1891
  192SLPC   H6X22282   4.888   5.236   7.762  3.5808  2.0742 -2.0996
  192SLPC   H6Y22283   4.958   5.151   7.617 -1.2578  0.2800 -2.2073
  192SLPC   C3722284   4.794   5.052   7.723 -0.0763 -0.0209  0.0023
  192SLPC   H7X22285   4.750   5.008   7.631 -0.9022  2.2052 -0.7334
  192SLPC   H7Y22286   4.708   5.091   7.783 -0.7273 -2.3982  0.7526
  192SLPC   C3822287   4.885   4.950   7.792  0.1979  1.0976 -0.4248
  192SLPC   H8X22288   4.968   4.947   7.718 -0.1104  0.2309 -0.7435
  192SLPC   H8Y22289   4.842   4.848   7.786  1.0371  0.7612 -0.8999
  192SLPC   C3922290   4.916   4.985   7.938 -0.7186  0.4513  0.4698
  192SLPC   H9X22291   4.815   4.999   7.983 -2.5927  2.2883 -3.7712
  192SLPC   H9Y22292   4.973   5.080   7.929 -1.1301  0.5810 -0.9373
  192SLPC  C31022293   5.001   4.874   7.998  0.1262  0.6056 -0.2317
  192SLPC  H10X22294   5.101   4.870   7.950  0.6175 -0.0893  0.8180
  192SLPC  H10Y22295   4.967   4.771   7.976  2.3531  0.1644 -1.8771
  192SLPC  C31122296   5.017   4.889   8.152  0.4125 -0.1854  0.5916
  192SLPC  H11X22297   4.918   4.888   8.202 -0.5324 -3.0218 -1.1312
  192SLPC  H11Y22298   5.062   4.990   8.167 -0.5165  0.3566 -0.1344
  192SLPC  C31222299   5.109   4.787   8.219  0.1089 -1.0491 -0.2766
  192SLPC  H12X22300   5.211   4.794   8.176 -0.9386  1.7250 -2.6116
  192SLPC  H12Y22301   5.071   4.683   8.208 -2.3643 -0.4601  1.7415
  192SLPC  C31322302   5.120   4.793   8.375 -0.7456  0.1705  1.0232
  192SLPC  H13X22303   5.138   4.898   8.406  2.0369 -0.3021  1.2995
  192SLPC  H13Y22304   5.203   4.724   8.403 -0.5345 -0.0219 -0.0426
  192SLPC  C31422305   4.996   4.745   8.455  0.5023  0.2596  0.1019
  192SLPC  H14X22306   4.957   4.646   8.426 -3.0133  1.6427 -0.4698
  192SLPC  H14Y22307   4.905   4.808   8.436  0.0288 -0.1418  0.9852
  192SLPC  C31522308   5.017   4.736   8.606  0.4286 -0.0949  0.2192
  192SLPC  H15X22309   5.038   4.833   8.655  0.0434  0.7952 -1.3182
  192SLPC  H15Y22310   5.111   4.680   8.628  0.2335 -0.6749 -0.4076
  192SLPC  C31622311   4.900   4.664   8.674  0.2759  0.8946  0.8789
  192SLPC  H16X22312   4.887   4.567   8.622  0.0259  1.2723  0.2283
  192SLPC  H16Y22313   4.807   4.725   8.670 -0.6657 -0.5724 -0.9956
  192SLPC  C31722314   4.922   4.622   8.821  0.7522 -0.2614 -0.0890
  192SLPC  H17X22315   4.945   4.709   8.887 -0.9682  0.3486 -0.2301
  192SLPC  H17Y22316   5.004   4.548   8.817  0.0878 -0.9989 -0.1169
  192SLPC  C31822317   4.798   4.555   8.883 -0.7454 -0.2270  0.1820
  192SLPC  H18X22318   4.777   4.459   8.830 -1.9203  0.3249 -0.3927
  192SLPC  H18Y22319   4.713   4.625   8.877  0.4153  1.3320  1.2623
  192SLPC  H18Z22320   4.813   4.536   8.991 -0.1279 -0.9389 -0.0179
  193SOD    SOD22321   5.478   6.210   0.717 -0.0220  0.2590  0.3262
  194SOD    SOD22322   4.505   4.202   6.212 -0.4109  0.4674 -0.2135
  195SOD    SOD22323   3.725   6.584  15.627  0.1393  0.6104  0.1408
  196SOD    SOD22324   0.095   6.272  13.115 -0.1833 -0.2367  0.5071
  197SOD    SOD22325   4.229   4.756  12.689  0.2390 -0.2480 -0.3418
  198SOD    SOD22326   2.190   6.269   1.573 -0.7264  0.1470  0.1463
  199SOD    SOD22327   1.395   2.581   4.427  0.2202  0.0281 -0.1682
  200SOD    SOD22328   2.869   2.791   6.022 -0.0429 -0.0329  0.0255
  201SOD    SOD22329   3.088   5.388  12.220  0.0274 -0.1161  0.2625
  202SOD    SOD22330   4.730   6.066  10.825  0.0041  0.2521  0.0962
  203SOD    SOD22331   6.429   3.991   3.041 -0.3973 -0.3966  0.4485
  204SOD    SOD22332   6.427   4.267  14.977  0.2668 -0.1594  0.0686
  205SOD    SOD22333   5.721   2.959  11.242 -0.5325 -0.0542 -0.0056
  206SOD    SOD22334   3.738   5.775  15.778 -0.3034  0.0477  0.4166
  207SOD    SOD22335   5.618   2.786  14.616 -0.1455 -0.0189 -0.0240
  208SOD    SOD22336   5.764   3.778  15.622 -0.2048 -0.1271 -0.0242
  209SOD    SOD22337   3.118   5.482   4.728  0.1364  0.2000  0.2740
  210SOD    SOD22338   3.359   2.383  11.217  0.2245  0.0485  0.2386
  211SOD    SOD22339   0.285   6.559  15.270  0.0410  0.2390  0.0889
  212SOD    SOD22340   6.448   3.300  14.171 -0.4178 -0.0079 -0.2056
  213SOD    SOD22341   0.020   5.899   6.315  0.0114  0.4089  0.1477
  214SOD    SOD22342   0.473   0.000  17.148  0.2213  0.3074 -0.2194
  215SOD    SOD22343   6.248   4.221   1.300  0.1851 -0.3881  0.1306
  216SOD    SOD22344   2.125   0.805   5.269  0.1035 -0.3436 -0.3308
  217SOD    SOD22345   2.347   1.074  16.501  0.1902  0.1037  0.2129
  218SOD    SOD22346   3.115   5.586  16.952  0.0708 -0.3650  0.0729
  219SOD    SOD22347   5.329   2.946  15.142 -0.2295  0.3384  0.0514
  220SOD    SOD22348   0.256   4.791  12.413  0.4330 -0.2361 -0.0539
  221SOD    SOD22349   2.399   1.098  14.269 -0.3603  0.3948 -0.2472
  222SOD    SOD22350   6.584   0.802   2.038  0.1459  0.2564 -0.0716
  223SOD    SOD22351   4.211   5.624  13.888  0.3126  0.0316  0.1604
  224SOD    SOD22352   3.531   0.087  16.530  0.1360  0.0009  0.5150
  225SOD    SOD22353   2.053   4.856   0.649  0.1312 -0.2832  0.3859
  226SOD    SOD22354   1.837   3.214  10.191 -0.3689  0.9478  0.3470
  227SOD    SOD22355   1.586   6.539   3.012  0.0883  0.6693  0.0613
  228SOD    SOD22356   5.481   6.005   6.098  0.5937 -0.2831  0.0878
  229SOD    SOD22357   1.596   0.588  14.843  0.3737 -0.7875 -0.2872
  230SOD    SOD22358   6.488   2.532   1.464  0.0861 -0.5096  0.1232
  231SOD    SOD22359   6.023   5.600   3.327 -0.0566 -0.3662  0.2020
  232SOD    SOD22360   6.770   5.228  16.526 -0.5155 -0.0752 -0.4503
  233SOD    SOD22361   6.595   0.977  15.087  0.1173 -0.1551 -0.0075
  234SOD    SOD22362   4.540   1.715  11.987 -0.1921 -0.0623 -0.1941
  235SOD    SOD22363   3.790   3.483   2.447  0.0174 -0.2947 -0.2728
  236SOD    SOD22364   5.881   1.971  11.444  0.4925  0.0965  0.2940
  237SOD    SOD22365   1.367   1.468  11.139 -0.0380 -0.1048  0.2455
  238SOD    SOD22366   3.570   1.728  16.842 -0.4918 -0.0298 -0.2309
  239SOD    SOD22367   0.818   0.772  10.872  0.2160  0.0140  0.1312
  240SOD    SOD22368   0.786   2.571   6.431  0.5342 -0.6781  0.0046
  241SOD    SOD22369   0.484   2.238  14.885 -0.1841  0.0827  0.2879
  242SOD    SOD22370   1.077   5.614  11.963 -0.5331 -0.1983  0.2732
  243SOD    SOD22371   3.133   2.389  16.843  0.2074  0.0950 -0.2564
  244SOD    SOD22372   5.510   2.304   1.237  0.4336 -0.0605 -0.0236
  245SOD    SOD22373   4.285   1.001  12.821  0.6533 -0.2607  0.0108
  246SOD    SOD22374   0.256   6.348  14.418 -0.5098 -0.2106 -0.1620
  247SOD    SOD22375   4.183   3.091   1.313 -0.3872 -0.4044 -0.1849
  248SOD    SOD22376   1.432   1.231  11.855  0.3434 -0.5059 -0.2636
  249SOD    SOD22377   1.438   6.571   1.255  0.6905 -0.4577 -0.0340
  250SOD    SOD22378   4.679   2.236  11.526 -0.4133  0.2427  0.3319
  251SOD    SOD22379   0.035   4.998  13.441 -0.4199 -0.1902 -0.3039
  252SOD    SOD22380   6.636   6.095   4.634 -0.2546  0.1237  0.1548
  253SOD    SOD22381   4.034   3.188  11.338  0.2128  0.2351 -0.8044
  254SOD    SOD22382   5.641   6.719   6.506  0.0551 -0.3972  0.0180
  255SOD    SOD22383   4.807   2.032   5.775  0.0208  0.3729  0.4130
  256SOD    SOD22384   2.942   0.932   0.301 -0.2944 -0.1269 -0.7580
  257SOD    SOD22385   5.474   6.829  15.376 -0.1632  0.0672 -0.1026
  258SOD    SOD22386   1.103   3.124   6.488  0.1035 -0.1463  0.2039
  259SOD    SOD22387   3.545   6.603  13.936  0.2316  0.1231  0.2749
  260SOD    SOD22388   4.359   2.083  10.976  0.1637 -0.0897  0.0705
  261SOD    SOD22389   1.727   1.780   1.997 -0.0193  0.1764 -0.2419
  262SOD    SOD22390   1.454   5.507   2.876 -0.4065  0.2791  0.2623
  263SOD    SOD22391   6.445   0.897  13.667 -0.0283 -0.3825  0.1847
  264SOD    SOD22392   3.776   5.314  11.653  0.2267 -0.0591 -0.2452
  265SOD    SOD22393   2.554   2.507  15.209 -0.1541 -0.1988  0.5930
  266CLA    CLA22394   0.443   0.568   1.750 -0.1830  0.3987  0.4063
  267CLA    CLA22395   1.920   0.705  15.549  0.4228  0.1579 -0.2948
  268CLA    CLA22396   6.782   5.644  16.069 -0.0711  0.0164  0.0157
  269CLA    CLA22397   0.262   0.420   6.185 -0.1107  0.0128 -0.1644
  270CLA    CLA22398   0.568   0.269  12.588  0.2762 -0.2740  0.0326
  271CLA    CLA22399   2.327   2.180   3.653 -0.3142 -0.1804  0.4168
  272CLA    CLA22400   4.025   1.655  15.308 -0.6310 -0.0581  0.0736
  273CLA    CLA22401   1.612   4.712   0.852  0.1008 -0.2033 -0.0714
  274CLA    CLA22402   1.600   0.171   0.744  0.7641  0.2650 -0.1581
  275CLA    CLA22403   2.303   4.563   3.472 -0.3110 -0.0421 -0.5261
  276CLA    CLA22404   3.715   2.993   0.854  0.0714 -0.2582 -0.0157
  277CLA    CLA22405   5.784   2.828   1.400 -0.2124  0.0930  0.2370
  278CLA    CLA22406   0.859   6.391  11.215 -0.3296  0.1498 -0.5887
  279CLA    CLA22407   6.112   1.858   2.920  0.5715  0.1266  0.1894
  280CLA    CLA22408   3.311   5.132  12.820 -0.4803 -0.3267 -0.0612
  281CLA    CLA22409   5.588   6.641  14.379 -0.2182 -0.0715 -0.2029
  282CLA    CLA22410   0.026   3.884   0.189  0.1551  0.0092  0.2553
  283CLA    CLA22411   3.602   2.541   4.445  0.1668 -0.0202 -0.6405
  284CLA    CLA22412   3.401   1.194   2.206  0.1370 -0.2645 -0.2983
  285CLA    CLA22413   2.374   0.806   2.066 -0.0282 -0.0678 -0.2551
  286CLA    CLA22414   3.772   2.304  14.161 -0.4023  0.0938 -0.0861
  287CLA    CLA22415   3.040   4.584  11.447  0.1347 -0.2476  0.2486
  288CLA    CLA22416   6.432   0.792  13.922 -0.3347  0.3482 -0.3619
  289CLA    CLA22417   0.021   1.094  13.901 -0.7969  0.0675  0.0279
  290CLA    CLA22418   1.849   2.811  15.762 -0.0226 -0.0739  0.1824
  291CLA    CLA22419   6.488   3.888  17.062 -0.6341 -0.1173 -0.0433
  292CLA    CLA22420   4.982   3.862  13.391  0.2550 -0.2435 -0.3886
  293CLA    CLA22421   0.610   0.821  15.773  0.2619 -0.3356  0.2471
  294CLA    CLA22422   6.135   2.488  14.843  0.0216 -0.1015  0.4192
  295CLA    CLA22423   0.830   4.334  12.599 -0.0094  0.1130 -0.4053
  296CLA    CLA22424   2.869   3.896  14.550 -0.0191  0.3654  0.0540
  297CLA    CLA22425   0.421   4.944   2.158  0.0971  0.3371 -0.2095
  298CLA    CLA22426   5.516   2.205  16.580 -0.0367  0.6788  0.0355
  299CLA    CLA22427   2.351   1.239   2.180 -0.2643  0.1081  0.0372
  300CLA    CLA22428   4.069   4.574   2.351 -0.4997 -0.0484 -0.1343
  301CLA    CLA22429   1.113   1.909  12.778  0.1759 -0.0783 -0.2579
  302CLA    CLA22430   3.337   1.463  11.232  0.2109 -0.1192 -0.0033
  303CLA    CLA22431   2.715   3.477  16.254  0.1813  0.0006 -0.0927
  304CLA    CLA22432   5.204   2.288  14.979  0.0526 -0.1694 -0.0676
  305CLA    CLA22433   4.706   5.068  16.873 -0.3569  0.2109 -0.0170
  306CLA    CLA22434   0.512   5.906  14.458  0.5010 -0.5053  0.0609
  307CLA    CLA22435   3.304   0.664  11.904  0.1552 -0.0333 -0.0344
  308CLA    CLA22436   2.830   1.446  14.834 -0.4865 -0.1460 -0.6719
  309CLA    CLA22437   4.523   0.857  14.508 -0.0121 -0.0061 -0.3691
  310CLA    CLA22438   0.395   1.437  14.451  0.2720 -0.2412 -0.0911
  311CLA    CLA22439   0.865   0.904  14.859 -0.0933 -0.0533  0.2821
  312CLA    CLA22440   5.804   4.042   2.830 -0.1498 -0.2509 -0.0412
  313CLA    CLA22441   4.675   0.290  16.919 -0.3135 -0.1948  0.1577
  314CLA    CLA22442   6.063   4.150  15.200  0.0374  0.1593 -0.0258
  315CLA    CLA22443   1.792   6.792   1.849 -0.0304  0.3729  0.0768
  316CLA    CLA22444   1.010   6.673   3.507  0.2256  0.0924  0.1714
  317CLA    CLA22445   0.091   2.987   3.936 -0.3221  0.0245 -0.4217
  318CLA    CLA22446   0.004   2.674  15.140  0.2059 -0.1901 -0.0256
  319TIP3   OH222447   5.706   3.995   1.570 -0.2294 -0.1974 -0.4295
  319TIP3    H122448   5.641   3.925   1.558 -0.9432  0.7446 -2.5652
  319TIP3    H222449   5.664   4.058   1.628 -0.2226 -0.7362  0.1766
  320TIP3   OH222450   4.055   5.324   1.712 -0.0471 -0.1483 -0.5007
  320TIP3    H122451   3.964   5.311   1.685  0.6179 -2.5799 -1.7765
  320TIP3    H222452   4.075   5.414   1.684 -1.8508  0.2318 -0.7093
  321TIP3   OH222453   3.035   1.446   2.814 -0.1657 -0.0632  0.2005
  321TIP3    H122454   3.007   1.496   2.737 -0.9967 -2.1230 -0.9082
  321TIP3    H222455   3.013   1.503   2.888  1.7097  2.4833 -1.0375
  322TIP3   OH222456   2.110   0.665   4.590  0.3328 -0.4271 -0.5217
  322TIP3    H122457   2.023   0.687   4.622  0.6304  0.8223 -0.5204
  322TIP3    H222458   2.100   0.579   4.549 -0.6196 -0.8479  0.5578
  323TIP3   OH222459   1.537   5.392  13.381 -0.0984 -0.1816 -0.5719
  323TIP3    H122460   1.468   5.327  13.395 -1.1849  0.6376 -1.7880
  323TIP3    H222461   1.608   5.344  13.339 -0.8203 -0.6192 -1.3105
  324TIP3   OH222462   3.024   4.821  16.237  0.1108 -0.0614  0.0936
  324TIP3    H122463   3.006   4.743  16.185 -0.5714  0.5692 -0.6469
  324TIP3    H222464   3.070   4.880  16.178 -2.1191  1.3270 -0.3979
  325TIP3   OH222465   1.080   5.167  16.669  0.1663  0.1729  0.4263
  325TIP3    H122466   1.034   5.103  16.724 -1.8366  0.4935 -0.7726
  325TIP3    H222467   1.133   5.217  16.731  0.0965 -1.2123  1.6781
  326TIP3   OH222468   4.105   1.675   5.472  0.0176 -0.0327 -0.0433
  326TIP3    H122469   4.031   1.702   5.417 -1.1563  0.3843  1.6579
  326TIP3    H222470   4.136   1.756   5.513  0.3104 -0.4335  0.5437
  327TIP3   OH222471   0.407   4.010  15.307  0.1937  0.2187 -0.0658
  327TIP3    H122472   0.471   4.054  15.363  1.9205 -0.6774 -1.2484
  327TIP3    H222473   0.442   3.921  15.296 -2.9201 -1.4649  1.9113
  328TIP3   OH222474   3.015   3.129  14.692 -0.1308 -0.1425  0.2837
  328TIP3    H122475   3.078   3.075  14.645  1.4862  1.2874  0.6859
  328TIP3    H222476   3.055   3.146  14.777 -0.3757  1.9207  0.0600
  329TIP3   OH222477   1.909   0.456   4.149 -0.1139 -0.5989  0.3824
  329TIP3    H122478   1.990   0.441   4.099  0.7418  1.4866  1.0373
  329TIP3    H222479   1.843   0.469   4.081 -0.2144 -3.2819 -0.1837
  330TIP3   OH222480   3.723   2.895  16.898  0.3675 -0.1764  0.4369
  330TIP3    H122481   3.694   2.987  16.898  1.1925  0.0976  0.3221
  330TIP3    H222482   3.775   2.887  16.978  0.7098 -0.4048  0.1948
  331TIP3   OH222483   0.601   2.807   5.662  0.0882  0.2533 -0.0924
  331TIP3    H122484   0.653   2.763   5.730 -1.0769 -0.4434  0.3817
  331TIP3    H222485   0.562   2.735   5.612 -0.8328  0.7545 -0.1061
  332TIP3   OH222486   0.223   4.032  15.585 -0.0212  0.8762 -0.2951
  332TIP3    H122487   0.174   4.069  15.512  1.0810  1.0409 -0.9880
  332TIP3    H222488   0.160   3.980  15.634 -0.8901  1.1683 -1.0901
  333TIP3   OH222489   4.515   2.211  13.829 -0.2419 -0.1700  0.3021
  333TIP3    H122490   4.479   2.130  13.866 -0.1296 -1.1699 -1.6377
  333TIP3    H222491   4.567   2.182  13.754  1.6253  1.5417  0.8453
  334TIP3   OH222492   5.706   6.381   2.846  0.8224 -0.4765 -0.0940
  334TIP3    H122493   5.667   6.318   2.906  0.3455  0.2387  0.3614
  334TIP3    H222494   5.639   6.448   2.835  1.2609 -0.1326 -0.6951
  335TIP3   OH222495   2.651   0.162   5.722 -0.5746  0.3320  0.5757
  335TIP3    H122496   2.567   0.132   5.688  0.8924 -1.5571 -1.6548
  335TIP3    H222497   2.669   0.242   5.674 -0.6438  0.1856  0.3036
  336TIP3   OH222498   0.526   6.830   3.364 -0.3689 -0.2424 -0.5435
  336TIP3    H122499   0.618   6.855   3.368  0.2929 -2.3755 -1.0579
  336TIP3    H222500   0.502   6.810   3.454  0.0199 -0.8268 -0.5691
  337TIP3   OH222501   4.496   4.366   0.521  0.7857  0.4515  0.0157
  337TIP3    H122502   4.485   4.409   0.437 -0.2310 -0.5199 -0.3783
  337TIP3    H222503   4.467   4.430   0.586  0.2244  0.7051 -0.4835
  338TIP3   OH222504   2.619   3.638  14.935  0.4048 -0.2594 -0.1904
  338TIP3    H122505   2.640   3.707  14.872 -2.5350  0.9019 -0.0229
  338TIP3    H222506   2.564   3.577  14.886 -1.3911  0.3281  1.0135
  339TIP3   OH222507   4.255   1.192   0.730 -0.4142 -0.3412 -0.0130
  339TIP3    H122508   4.320   1.154   0.671 -0.3449 -1.6214  0.8420
  339TIP3    H222509   4.296   1.189   0.817 -1.1734 -0.1311  0.3658
  340TIP3   OH222510   6.520   0.165  12.127 -0.3296  0.2714 -0.5758
  340TIP3    H122511   6.541   0.121  12.045  0.3888 -2.1991  0.8275
  340TIP3    H222512   6.432   0.133  12.150  0.9910 -2.3077  1.4711
  341TIP3   OH222513   6.559   1.816  11.391 -0.4989 -0.4597 -0.2921
  341TIP3    H122514   6.576   1.895  11.442 -2.5369 -0.1059 -0.0999
  341TIP3    H222515   6.642   1.799  11.346  1.2883 -0.5853  2.7869
  342TIP3   OH222516   3.302   6.754   3.611  0.2534 -0.1059  0.6154
  342TIP3    H122517   3.285   6.684   3.547  0.9838 -1.2746  1.6437
  342TIP3    H222518   3.340   6.825   3.559  0.6932 -0.9687 -0.2806
  343TIP3   OH222519   3.776   5.515  11.493  0.2063 -0.0273 -0.6744
  343TIP3    H122520   3.808   5.551  11.410 -0.1195  2.8959  0.3199
  343TIP3    H222521   3.813   5.574  11.559 -1.7239 -0.6231  1.0315
  344TIP3   OH222522   1.478   0.867   2.849 -0.2056  0.3854  1.1391
  344TIP3    H122523   1.565   0.865   2.809 -0.3090 -2.3136  0.8702
  344TIP3    H222524   1.418   0.877   2.775 -0.2433 -1.6061  0.8316
  345TIP3   OH222525   3.906   5.613  15.495 -0.5782  0.0028 -0.0702
  345TIP3    H122526   3.886   5.534  15.444 -1.3648 -0.7284  1.3080
  345TIP3    H222527   4.001   5.619  15.495 -0.4653 -1.3742  0.3921
  346TIP3   OH222528   5.282   3.594   5.637  0.0969 -0.1612 -0.2678
  346TIP3    H122529   5.257   3.684   5.617 -0.1176 -0.3250 -0.7406
  346TIP3    H222530   5.201   3.551   5.662  0.2568 -0.1337  0.3143
  347TIP3   OH222531   3.109   4.101   6.432  0.0038  0.1798 -0.1900
  347TIP3    H122532   3.062   4.138   6.507 -0.9315 -0.9782 -0.1789
  347TIP3    H222533   3.096   4.165   6.362 -2.0544 -0.2988 -0.3256
  348TIP3   OH222534   1.803   3.077   2.931  0.2639 -0.0024  0.1274
  348TIP3    H122535   1.765   2.991   2.915  0.7118 -0.0726 -0.6007
  348TIP3    H222536   1.776   3.099   3.020  0.4374 -1.0458  0.4514
  349TIP3   OH222537   5.527   0.772   2.406 -0.3124  0.4865  0.1159
  349TIP3    H122538   5.482   0.853   2.429 -0.4492  0.2328  0.7729
  349TIP3    H222539   5.599   0.767   2.469  0.4452  0.7215 -0.7139
  350TIP3   OH222540   6.696   3.495   2.475  0.2216  0.2490 -0.1792
  350TIP3    H122541   6.645   3.574   2.455 -0.5938  0.4288  2.2611
  350TIP3    H222542   6.741   3.517   2.556  1.5408 -1.1361 -0.5154
  351TIP3   OH222543   2.550   2.361   1.860 -0.2099 -0.1814  0.7994
  351TIP3    H122544   2.582   2.316   1.938 -0.8758  0.2110  1.2990
  351TIP3    H222545   2.587   2.310   1.787 -1.3273 -1.8286  1.3371
  352TIP3   OH222546   0.316   2.145   0.521  0.4011  0.0467 -0.2954
  352TIP3    H122547   0.311   2.154   0.617  0.5933  1.1567 -0.3729
  352TIP3    H222548   0.278   2.227   0.488  0.5019 -0.2561 -1.1662
  353TIP3   OH222549   4.698   4.985  12.244  0.2434 -0.2671 -0.1688
  353TIP3    H122550   4.669   5.075  12.228 -2.4563 -1.0053  0.0916
  353TIP3    H222551   4.778   4.976  12.193  0.6521  2.2916 -0.1292
  354TIP3   OH222552   4.264   4.207  16.355 -0.8736  0.5101 -0.2684
  354TIP3    H122553   4.203   4.273  16.388 -1.8956  0.5091 -1.9985
  354TIP3    H222554   4.324   4.256  16.299  0.0831  0.3511  0.5980
  355TIP3   OH222555   1.086   2.153   1.400  0.1648 -0.3413  0.0388
  355TIP3    H122556   1.019   2.146   1.332  1.0069  0.3803 -0.8932
  355TIP3    H222557   1.130   2.237   1.382  0.1610  0.0471  1.7033
  356TIP3   OH222558   0.261   2.874   3.139 -0.2483 -0.1110  0.3802
  356TIP3    H122559   0.292   2.784   3.146 -1.1824 -0.5123 -0.3475
  356TIP3    H222560   0.167   2.868   3.158 -0.3095  0.7061  0.3493
  357TIP3   OH222561   1.612   4.878   4.743  0.4795 -0.7052  0.1517
  357TIP3    H122562   1.532   4.865   4.691  0.5510  1.9816 -0.7846
  357TIP3    H222563   1.581   4.891   4.832 -0.4159  2.2438 -0.4914
  358TIP3   OH222564   6.243   2.420   4.332  0.1380  0.0901 -0.5034
  358TIP3    H122565   6.268   2.328   4.332 -0.1027 -0.0203  1.3942
  358TIP3    H222566   6.159   2.423   4.286  0.9884 -0.3384 -2.1467
  359TIP3   OH222567   0.666   1.073   4.520 -0.4155 -0.0435 -0.3405
  359TIP3    H122568   0.634   1.009   4.583 -1.9517  1.2908  0.2992
  359TIP3    H222569   0.612   1.060   4.442  0.8372 -1.0491 -1.0691
  360TIP3   OH222570   0.220   3.544  16.014 -0.6456  0.2716  0.3244
  360TIP3    H122571   0.232   3.484  15.940  0.0150 -1.9004  2.0631
  360TIP3    H222572   0.309   3.569  16.038 -0.7626 -0.0775  1.1437
  361TIP3   OH222573   1.678   4.504  10.710  0.4168  0.1479 -0.5164
  361TIP3    H122574   1.680   4.593  10.744  1.8676 -0.0140 -0.0868
  361TIP3    H222575   1.643   4.512  10.621 -1.5244  0.8371  0.2732
  362TIP3   OH222576   3.578   2.456   5.380 -0.1416 -0.1485 -0.7833
  362TIP3    H122577   3.662   2.484   5.343  1.0842 -0.2411  1.7614
  362TIP3    H222578   3.524   2.535   5.381  1.2692  0.8457  1.0155
  363TIP3   OH222579   3.416   0.882  14.415  0.5177  0.0153  0.1358
  363TIP3    H122580   3.478   0.905  14.345  1.0919  0.3041  0.7273
  363TIP3    H222581   3.421   0.787  14.422  0.4474 -0.0162 -0.2263
  364TIP3   OH222582   4.989   4.194  16.482  0.0223  0.2700 -0.0002
  364TIP3    H122583   5.003   4.186  16.576 -0.7155  0.4631  0.1358
  364TIP3    H222584   4.898   4.223  16.474  0.1987  0.6402 -0.7591
  365TIP3   OH222585   1.973   0.539  12.147 -0.2091  0.1685  0.1799
  365TIP3    H122586   2.021   0.540  12.064  0.9908  2.1473  0.7969
  365TIP3    H222587   1.931   0.625  12.151  1.0291  0.7585  2.2589
  366TIP3   OH222588   6.469   1.422  12.520 -0.2509  0.4225  0.1214
  366TIP3    H122589   6.415   1.499  12.504 -0.7059 -0.1357 -1.1101
  366TIP3    H222590   6.410   1.347  12.508  0.0864 -0.1484  1.6606
  367TIP3   OH222591   5.532   3.762   5.728 -0.0998 -0.4459  0.1089
  367TIP3    H122592   5.451   3.776   5.679 -1.0601 -1.2226  1.4228
  367TIP3    H222593   5.555   3.671   5.711  1.4437  0.2094 -1.5799
  368TIP3   OH222594   0.288   4.557  13.649 -0.0961  0.8492 -0.2129
  368TIP3    H122595   0.201   4.566  13.611 -0.8209  1.1648  1.4522
  368TIP3    H222596   0.273   4.518  13.735  1.4418  0.6098 -0.0192
  369TIP3   OH222597   3.910   6.489  15.540  0.1215 -0.6543  0.1061
  369TIP3    H122598   3.988   6.448  15.577  0.3408 -0.4823 -0.1576
  369TIP3    H222599   3.940   6.525  15.456 -0.1004 -0.0781  0.2731
  370TIP3   OH222600   2.370   3.316   4.955 -0.0511  0.3187  0.4280
  370TIP3    H122601   2.422   3.261   4.896 -0.3774 -0.5880  0.9547
  370TIP3    H222602   2.280   3.288   4.940 -0.1569  0.2089  1.2120
  371TIP3   OH222603   2.485   2.063   0.962  0.2466  0.0253 -0.1956
  371TIP3    H122604   2.580   2.075   0.970  0.0638  1.6171 -0.1020
  371TIP3    H222605   2.467   2.076   0.869  0.0953 -0.0912 -0.1826
  372TIP3   OH222606   0.674   2.513  12.046  0.4114 -0.1430 -0.1418
  372TIP3    H122607   0.626   2.464  12.113 -0.4547  0.5521 -0.2264
  372TIP3    H222608   0.730   2.573  12.094  0.2049 -0.0313 -0.0410
  373TIP3   OH222609   3.675   0.746   3.319  0.0343 -0.0699 -0.0029
  373TIP3    H122610   3.662   0.670   3.376 -1.1410  0.8662  1.0286
  373TIP3    H222611   3.632   0.721   3.237 -0.5380 -0.4474  0.3997
  374TIP3   OH222612   0.955   2.766   2.492 -0.0081  0.0857 -0.1180
  374TIP3    H122613   0.889   2.785   2.559 -0.0385 -1.7625  0.4442
  374TIP3    H222614   0.941   2.673   2.471  0.2239  0.5236 -2.4656
  375TIP3   OH222615   4.727   4.197  11.256 -0.0520 -0.3333 -0.2783
  375TIP3    H122616   4.767   4.265  11.202 -0.8064  1.4652  1.3308
  375TIP3    H222617   4.660   4.243  11.307 -1.0857 -2.4281  0.3667
  376TIP3   OH222618   3.098   2.340  14.115  0.0456 -0.5184  0.2673
  376TIP3    H122619   3.028   2.276  14.103 -0.4936  0.2254 -0.6865
  376TIP3    H222620   3.056   2.413  14.160 -0.1052  0.4125 -1.3129
  377TIP3   OH222621   4.485   2.666   3.912 -0.5054  0.2822  0.3196
  377TIP3    H122622   4.565   2.648   3.863 -2.3297 -1.2521 -2.3711
  377TIP3    H222623   4.515   2.683   4.002  2.8425  0.7143 -0.7313
  378TIP3   OH222624   6.289   4.202  14.500  0.0404  0.4178 -0.1762
  378TIP3    H122625   6.305   4.147  14.423  0.3917 -0.2753  0.3797
  378TIP3    H222626   6.301   4.291  14.468  2.3138  0.0830 -0.4739
  379TIP3   OH222627   4.476   6.706   0.381 -0.7857 -0.3295 -0.2057
  379TIP3    H122628   4.407   6.771   0.396 -0.7625 -0.4140  0.3134
  379TIP3    H222629   4.480   6.657   0.464 -0.3676 -0.5755 -0.3706
  380TIP3   OH222630   4.794   1.303   6.230  0.0679  0.2640  0.0400
  380TIP3    H122631   4.786   1.384   6.181  0.0043  0.6779  0.7268
  380TIP3    H222632   4.860   1.321   6.297 -1.4548  0.4637  1.5618
  381TIP3   OH222633   3.297   6.561   4.210 -0.2990 -0.1626 -1.0177
  381TIP3    H122634   3.371   6.547   4.150 -1.1175  0.7899 -2.2827
  381TIP3    H222635   3.267   6.472   4.230  0.3369 -0.5216 -1.5709
  382TIP3   OH222636   0.702   5.143   1.694  0.0387 -0.6164 -0.2078
  382TIP3    H122637   0.697   5.100   1.779 -0.1294 -0.9865 -0.4030
  382TIP3    H222638   0.794   5.133   1.668  0.4371  0.7335  0.5585
  383TIP3   OH222639   6.261   5.305  15.345 -0.4311  0.0655 -0.3591
  383TIP3    H122640   6.247   5.356  15.265  0.5637  1.1491  0.1252
  383TIP3    H222641   6.247   5.368  15.416  0.3058 -0.4564  0.2650
  384TIP3   OH222642   1.679   6.042   4.457  0.0891  0.7739  0.0417
  384TIP3    H122643   1.733   6.071   4.530  1.4368 -0.1013 -0.5679
  384TIP3    H222644   1.726   6.071   4.379  1.4814 -2.8183 -0.6060
  385TIP3   OH222645   0.732   3.367  12.116 -0.3428 -0.1578  0.3033
  385TIP3    H122646   0.794   3.306  12.076  0.7152  1.4649 -0.6926
  385TIP3    H222647   0.785   3.416  12.180 -0.7066  0.8866 -0.1702
  386TIP3   OH222648   0.029   5.669  15.496 -0.2279  0.4782  0.0328
  386TIP3    H122649   0.007   5.610  15.568 -1.5936  1.1175  0.1837
  386TIP3    H222650   0.024   5.756  15.535  0.5407  0.7566 -0.4798
  387TIP3   OH222651   2.407   4.303  11.152  0.4059  0.0469 -0.1967
  387TIP3    H122652   2.415   4.324  11.058  2.1465 -0.8828 -0.2891
  387TIP3    H222653   2.350   4.372  11.186  0.0377  0.6287 -1.8728
  388TIP3   OH222654   3.623   3.342   0.697  0.1842  0.1085 -0.5458
  388TIP3    H122655   3.579   3.346   0.782  0.1663 -0.6311 -0.5146
  388TIP3    H222656   3.572   3.279   0.646  0.8568 -0.3181 -0.7119
  389TIP3   OH222657   3.970   4.131  11.236 -0.1653  0.6601 -0.1731
  389TIP3    H122658   3.980   4.036  11.245 -1.4114  0.6631  1.8024
  389TIP3    H222659   4.024   4.168  11.306  0.0835  1.4085 -0.7462
  390TIP3   OH222660   3.154   2.633   0.027  0.4858 -0.4752  0.5293
  390TIP3    H122661   3.156   2.658   0.119  0.5778 -0.5967  0.5608
  390TIP3    H222662   3.208   2.553   0.022  1.0042 -0.1146  0.2635
  391TIP3   OH222663   1.338   1.869  17.003 -0.4977 -0.2643  0.6456
  391TIP3    H122664   1.395   1.928  16.954 -1.1783  0.7422  1.0557
  391TIP3    H222665   1.346   1.897  17.094 -1.5599 -0.1753  0.7204
  392TIP3   OH222666   6.022   4.607  10.552 -0.5249  0.0714 -0.0190
  392TIP3    H122667   5.942   4.628  10.600 -0.4324 -0.7180  0.5082
  392TIP3    H222668   6.093   4.639  10.609 -0.3964 -1.2802  0.6216
  393TIP3   OH222669   0.168   2.819  14.160 -0.3707  0.0872 -0.1250
  393TIP3    H122670   0.256   2.856  14.166  1.3232 -3.6436  3.4479
  393TIP3    H222671   0.170   2.765  14.081  0.0648  1.0941 -0.8136
  394TIP3   OH222672   3.342   0.500  16.961 -1.1480 -0.1490  0.5303
  394TIP3    H122673   3.420   0.523  16.910 -0.0291  0.0692  2.2440
  394TIP3    H222674   3.328   0.407  16.942  0.5495 -0.6233  1.4200
  395TIP3   OH222675   1.405   0.417   6.453  0.2641  0.1723 -0.2044
  395TIP3    H122676   1.357   0.421   6.370  0.0536  0.9557 -0.0522
  395TIP3    H222677   1.376   0.494   6.501  0.3891 -0.2722  0.6011
  396TIP3   OH222678   5.247   3.212   2.049  0.0423 -0.5699 -0.1763
  396TIP3    H122679   5.296   3.167   1.980 -1.5911 -1.1971 -0.9778
  396TIP3    H222680   5.206   3.141   2.099 -1.6899 -0.0425 -0.7816
  397TIP3   OH222681   0.256   3.291  14.839 -0.5532 -0.0167  0.9374
  397TIP3    H122682   0.331   3.243  14.873  0.1637  1.3506  1.3398
  397TIP3    H222683   0.294   3.359  14.783 -1.6360 -1.3051 -1.5266
  398TIP3   OH222684   6.755   0.607   3.639  0.0147 -0.3647 -0.1698
  398TIP3    H122685   6.711   0.574   3.718  1.2238 -0.1282  0.6349
  398TIP3    H222686   6.685   0.614   3.574 -0.6714 -2.4895  0.2522
  399TIP3   OH222687   2.653   2.694   5.963  0.3265 -0.5636 -0.3387
  399TIP3    H122688   2.589   2.634   6.001 -0.8979  0.4414 -0.7337
  399TIP3    H222689   2.622   2.708   5.873  0.3878  0.8970 -0.1608
  400TIP3   OH222690   4.926   0.871  11.114  0.0169  0.2842 -0.3859
  400TIP3    H122691   4.849   0.921  11.142 -0.9262 -0.9751 -0.6379
  400TIP3    H222692   4.892   0.782  11.099  1.3005 -0.0192 -1.6046
  401TIP3   OH222693   3.629   1.615   3.116  0.6498 -0.2224  0.1108
  401TIP3    H122694   3.615   1.530   3.156  0.8349 -0.6640 -0.7467
  401TIP3    H222695   3.555   1.669   3.146 -1.1351 -1.5317 -1.6641
  402TIP3   OH222696   0.377   2.909   5.479 -0.0072 -0.2140  0.3478
  402TIP3    H122697   0.415   2.823   5.499  1.1342  0.7671  2.7336
  402TIP3    H222698   0.445   2.971   5.505 -1.5957  1.4748  0.6139
  403TIP3   OH222699   1.919   5.812   2.587 -0.5570 -0.4566  0.2500
  403TIP3    H122700   1.917   5.737   2.527 -2.2958 -0.5727  0.3988
  403TIP3    H222701   1.879   5.883   2.537  0.4906  0.2169  0.3383
  404TIP3   OH222702   0.832   4.708   5.604 -0.9601  0.6209  0.5464
  404TIP3    H122703   0.836   4.798   5.571  2.0819  1.2963  2.3374
  404TIP3    H222704   0.862   4.715   5.695 -2.5919 -1.9891  1.3721
  405TIP3   OH222705   3.406   1.481   1.027  0.0897 -0.3938 -0.1621
  405TIP3    H122706   3.501   1.481   1.029  0.1766 -1.8265 -1.7204
  405TIP3    H222707   3.381   1.407   1.083 -0.1195 -0.0444  0.2152
  406TIP3   OH222708   1.239   3.645   0.010  0.0229 -0.0108 -0.0572
  406TIP3    H122709   1.253   3.733   0.045  2.7719 -0.5305  0.4627
  406TIP3    H222710   1.312   3.631  -0.051 -1.7208 -1.0821 -2.0159
  407TIP3   OH222711   5.265   0.561   5.359 -0.1413 -0.6017  0.1213
  407TIP3    H122712   5.188   0.537   5.411  0.8556  0.4356  2.2166
  407TIP3    H222713   5.304   0.634   5.407  0.5177  0.8631 -2.5120
  408TIP3   OH222714   6.085   6.044  14.023  0.5470  0.0309  0.6973
  408TIP3    H122715   5.992   6.022  14.027  0.4145  0.4512 -0.0201
  408TIP3    H222716   6.102   6.090  14.106 -0.4525  2.0400 -0.1285
  409TIP3   OH222717   5.417   5.784   0.624  0.1965  0.0590 -0.0822
  409TIP3    H122718   5.366   5.714   0.582  2.2430  0.2449 -3.1341
  409TIP3    H222719   5.506   5.770   0.594  1.9284  0.3769  4.2185
  410TIP3   OH222720   4.015   1.523   0.624  0.1518 -0.3180  0.2603
  410TIP3    H122721   3.998   1.582   0.698 -0.0642  2.1904 -1.6757
  410TIP3    H222722   4.109   1.504   0.631 -0.0827 -1.0681  1.7984
  411TIP3   OH222723   5.453   1.463  12.526 -0.5820  0.4229  0.1950
  411TIP3    H122724   5.485   1.516  12.599 -2.1310 -0.0876  1.3170
  411TIP3    H222725   5.373   1.422  12.560 -0.4708 -1.1198 -1.2634
  412TIP3   OH222726   5.520   4.927  11.707  0.0494  0.3045  0.1511
  412TIP3    H122727   5.550   4.965  11.790 -2.3478 -0.1953  1.3418
  412TIP3    H222728   5.512   5.003  11.649  1.3595  0.7257  0.4860
  413TIP3   OH222729   6.806   4.608   0.067 -0.0970 -0.0708  0.2276
  413TIP3    H122730   6.711   4.613   0.069 -0.1843 -1.5676  1.9226
  413TIP3    H222731   6.830   4.567   0.150  1.8700 -2.1221 -1.2512
  414TIP3   OH222732   5.752   1.334   3.088  0.6788  0.5194  0.3560
  414TIP3    H122733   5.671   1.385   3.096  0.1078 -0.3724  0.4906
  414TIP3    H222734   5.822   1.399   3.086 -0.0649  1.3218 -0.0643
  415TIP3   OH222735   6.503   2.337   4.132  0.2631  0.2887 -0.5125
  415TIP3    H122736   6.525   2.372   4.045  2.2791  0.4865  0.0186
  415TIP3    H222737   6.489   2.415   4.186  2.8206  0.3530  0.1988
  416TIP3   OH222738   4.317   2.879   3.559  0.1722 -0.0175 -0.0142
  416TIP3    H122739   4.413   2.870   3.554  0.3535  1.8556 -1.1102
  416TIP3    H222740   4.288   2.867   3.469 -0.7350 -1.1752  0.4089
  417TIP3   OH222741   4.902   3.448  15.412  0.1501  0.1349  0.5825
  417TIP3    H122742   4.909   3.543  15.399 -0.5706  0.0512 -0.5844
  417TIP3    H222743   4.930   3.434  15.502  2.4232  1.1830  0.1009
  418TIP3   OH222744   2.931   4.706  12.417  0.4211 -0.1640  0.4538
  418TIP3    H122745   2.913   4.800  12.418  0.6166 -0.1144 -0.1848
  418TIP3    H222746   2.847   4.665  12.438 -0.6037  0.0485 -2.6588
  419TIP3   OH222747   3.051   3.515  14.770  0.1194  0.4482 -0.2214
  419TIP3    H122748   3.083   3.535  14.682  2.5712 -1.0373  0.2564
  419TIP3    H222749   3.116   3.552  14.829 -1.7452  1.8812  1.0861
  420TIP3   OH222750   0.925   3.638  15.424  0.3711 -0.1733  0.7025
  420TIP3    H122751   1.008   3.591  15.427  1.0474  1.0715  2.1029
  420TIP3    H222752   0.863   3.578  15.467  0.7173 -0.7199  0.4601
  421TIP3   OH222753   6.227   3.616  12.539  0.0987  0.3712  0.2431
  421TIP3    H122754   6.257   3.588  12.453 -0.6594 -0.2743  0.1724
  421TIP3    H222755   6.257   3.706  12.547  2.2801 -0.2982  0.3049
  422TIP3   OH222756   6.716   6.652   0.469  0.1971 -0.1636  0.1479
  422TIP3    H122757   6.676   6.713   0.532 -0.1259 -0.7588  0.5322
  422TIP3    H222758   6.798   6.695   0.443 -0.2806  0.6837 -0.0082
  423TIP3   OH222759   4.575   3.498   2.582 -0.2617 -0.2514  0.3175
  423TIP3    H122760   4.548   3.495   2.490  1.4173 -2.3909 -0.2011
  423TIP3    H222761   4.569   3.590   2.606 -0.2436  0.4511 -2.1188
  424TIP3   OH222762   2.743   6.160  13.124  0.1309  0.2190 -0.0396
  424TIP3    H122763   2.824   6.211  13.119 -1.1054  2.1368 -1.9882
  424TIP3    H222764   2.673   6.224  13.110 -1.7481 -1.4292  1.2563
  425TIP3   OH222765   5.512   1.339   4.405 -0.1534 -0.5230 -0.9191
  425TIP3    H122766   5.591   1.373   4.448  0.1820 -0.3790 -1.6320
  425TIP3    H222767   5.458   1.306   4.477 -0.2332  0.9984 -0.2443
  426TIP3   OH222768   3.442   3.900   3.745  0.8584  0.0573  0.1749
  426TIP3    H122769   3.482   3.929   3.662  1.8546  1.5886  1.1348
  426TIP3    H222770   3.507   3.920   3.812 -0.1876 -0.5421  1.4280
  427TIP3   OH222771   1.456   2.414   0.588  0.0288 -0.2837 -0.0939
  427TIP3    H122772   1.471   2.351   0.658  0.5676 -0.7628 -0.6346
  427TIP3    H222773   1.361   2.410   0.572 -0.0497 -0.3931  0.3969
  428TIP3   OH222774   3.547   5.237  15.266  0.1718 -0.3097 -0.1017
  428TIP3    H122775   3.628   5.208  15.223  0.2129  0.0781 -0.2917
  428TIP3    H222776   3.501   5.156  15.287 -0.4368 -0.5114 -1.9870
  429TIP3   OH222777   1.516   6.219  11.406 -0.2788 -0.1082 -0.1590
  429TIP3    H122778   1.468   6.153  11.356  0.1435  0.3861 -1.2436
  429TIP3    H222779   1.608   6.200  11.389 -0.1299  0.1110  0.3818
  430TIP3   OH222780   1.659   1.837  13.929 -0.3780 -0.2398  0.2275
  430TIP3    H122781   1.666   1.909  13.991  0.0330  0.1214 -0.2296
  430TIP3    H222782   1.636   1.879  13.846 -2.9157 -0.8662  0.5093
  431TIP3   OH222783   5.871   1.307  11.301  0.5423  0.5508  0.1378
  431TIP3    H122784   5.787   1.322  11.257 -1.2007 -0.9368  2.7119
  431TIP3    H222785   5.895   1.393  11.336 -0.4483  0.7984  0.2480
  432TIP3   OH222786   4.118   3.693   1.012 -0.3932  0.0813 -0.2121
  432TIP3    H122787   4.083   3.746   1.084 -0.9810 -1.1430  0.4307
  432TIP3    H222788   4.142   3.757   0.945  0.1899  1.2484  1.0708
  433TIP3   OH222789   1.235   2.215  16.112 -0.1737 -0.3920 -0.0022
  433TIP3    H122790   1.247   2.261  16.195  1.1682 -0.3906 -0.1840
  433TIP3    H222791   1.197   2.280  16.053  0.6822  0.1773  0.0637
  434TIP3   OH222792   4.476   0.532   0.636 -0.3788 -0.8071 -0.7627
  434TIP3    H122793   4.566   0.515   0.666 -0.5045  0.9409  0.7674
  434TIP3    H222794   4.483   0.542   0.541  1.4996  1.6735 -0.4557
  435TIP3   OH222795   4.935   4.377  15.861 -0.2128  0.1520  0.0811
  435TIP3    H122796   4.889   4.461  15.860 -0.5846 -0.0175  1.4766
  435TIP3    H222797   4.866   4.312  15.854 -0.0289 -0.0682  0.3099
  436TIP3   OH222798   2.775   0.941   3.546 -0.1801 -0.3504  0.2262
  436TIP3    H122799   2.700   0.999   3.542  0.6917  0.8657  0.9167
  436TIP3    H222800   2.759   0.885   3.622  1.0237  2.0411  2.4002
  437TIP3   OH222801   1.922   2.145  14.760  0.4252 -0.4378 -0.2941
  437TIP3    H122802   1.836   2.165  14.798  1.3752  0.2368  1.6270
  437TIP3    H222803   1.952   2.229  14.724  0.7548 -0.4043  0.0534
  438TIP3   OH222804   1.250   5.211   0.764 -0.0614  0.2900  0.0383
  438TIP3    H122805   1.232   5.170   0.680  0.0396  2.1718 -0.9403
  438TIP3    H222806   1.168   5.254   0.788 -0.4324 -1.1016  1.4743
  439TIP3   OH222807   1.216   6.372   4.118  0.3529 -0.5299 -0.4376
  439TIP3    H122808   1.234   6.454   4.071  0.1331 -1.1734 -1.6913
  439TIP3    H222809   1.302   6.338   4.141  0.4484 -0.0083  0.0026
  440TIP3   OH222810   4.206   0.223  14.479  0.1320 -0.3777 -0.3328
  440TIP3    H122811   4.281   0.271  14.515  1.3826 -0.2161 -2.9600
  440TIP3    H222812   4.215   0.135  14.516  1.5201 -0.3101 -0.4394
  441TIP3   OH222813   2.886   2.763   5.784  0.2107  0.3386  0.1260
  441TIP3    H122814   2.920   2.804   5.705 -0.1860  0.8500  0.2171
  441TIP3    H222815   2.826   2.696   5.752  0.7922 -0.1182 -0.0210
  442TIP3   OH222816   1.695   0.643   5.233  0.7778  0.0574 -0.3029
  442TIP3    H122817   1.645   0.624   5.153 -0.7553  0.1150  0.5884
  442TIP3    H222818   1.664   0.729   5.261 -1.2380 -1.2935  2.0865
  443TIP3   OH222819   2.188   6.382   3.627 -0.1374 -0.6261  0.0173
  443TIP3    H122820   2.100   6.418   3.639  0.3315  0.9881 -1.0623
  443TIP3    H222821   2.217   6.361   3.715 -0.6756  1.1884  0.6751
  444TIP3   OH222822   0.032   5.071  12.823  0.1446 -0.5666  0.2467
  444TIP3    H122823  -0.026   5.146  12.837 -0.1088 -0.5274 -0.9158
  444TIP3    H222824   0.092   5.073  12.898 -0.2863  0.3882  0.5858
  445TIP3   OH222825   6.635   5.004   1.543 -0.0629 -0.3087 -0.1687
  445TIP3    H122826   6.606   4.989   1.633 -1.8456 -0.2898 -0.7022
  445TIP3    H222827   6.617   4.922   1.498  0.3188 -0.1411 -0.6223
  446TIP3   OH222828   5.713   5.125   4.459  0.0680 -0.0770 -0.1770
  446TIP3    H122829   5.650   5.164   4.520 -1.0732 -0.7417 -0.8925
  446TIP3    H222830   5.682   5.035   4.447 -0.1388  0.2381 -2.2569
  447TIP3   OH222831   1.943   3.070  14.017 -0.0728 -0.4925  0.5689
  447TIP3    H122832   1.986   3.156  14.019 -2.0609  0.5837 -0.3044
  447TIP3    H222833   1.910   3.059  14.106 -2.3746  1.1107  0.0175
  448TIP3   OH222834   0.705   3.391   2.239  0.0263  0.5057 -0.3044
  448TIP3    H122835   0.720   3.319   2.299  1.4780  1.3587  0.3976
  448TIP3    H222836   0.674   3.463   2.294 -2.7584  0.0902 -1.1621
  449TIP3   OH222837   5.996   0.362   2.831  0.8110  0.2719  0.1796
  449TIP3    H122838   6.086   0.356   2.862  0.4918  1.1060  1.3748
  449TIP3    H222839   5.950   0.406   2.902  0.2247  3.2770 -1.8629
  450TIP3   OH222840   4.149   1.998  11.506  0.4256 -0.2551  0.4111
  450TIP3    H122841   4.158   1.912  11.465  1.1950  0.3414 -0.7350
  450TIP3    H222842   4.226   2.046  11.477 -1.3142  1.7206 -1.2642
  451TIP3   OH222843   6.508   4.888   0.363  0.6917  0.1044  0.0171
  451TIP3    H122844   6.490   4.794   0.355  0.8095  0.1377 -0.7586
  451TIP3    H222845   6.553   4.897   0.447 -1.4809 -0.1986  1.3009
  452TIP3   OH222846   5.692   1.892   2.080  0.0788  0.1904 -0.3219
  452TIP3    H122847   5.643   1.880   2.162  1.4974 -1.9998  0.3091
  452TIP3    H222848   5.693   1.804   2.041  0.4586  0.9540 -2.1014
  453TIP3   OH222849   0.931   5.468   2.457 -0.2172 -0.1925 -0.2244
  453TIP3    H122850   0.900   5.433   2.374 -0.0538  1.7167 -1.1403
  453TIP3    H222851   0.973   5.551   2.434  0.8327 -0.1542  1.6364
  454TIP3   OH222852   0.203   6.475  13.979  0.1639 -0.7204 -0.1321
  454TIP3    H122853   0.264   6.445  13.912 -0.0136  1.6338 -1.4569
  454TIP3    H222854   0.118   6.441  13.950  0.2955 -0.8380 -0.3845
  455TIP3   OH222855   5.524   1.072   4.667 -0.2724  0.5222 -0.8860
  455TIP3    H122856   5.505   1.034   4.581  2.5010  1.0799 -1.8464
  455TIP3    H222857   5.555   1.161   4.648  0.0079  0.8083  0.7394
  456TIP3   OH222858   4.490   6.574   5.294  0.0769 -0.0159 -0.1829
  456TIP3    H122859   4.450   6.597   5.210 -0.9763 -1.2007 -0.0432
  456TIP3    H222860   4.516   6.483   5.284  0.2303 -0.0777  0.6653
  457TIP3   OH222861   3.120   2.656  12.027  0.1638 -0.3903 -0.3747
  457TIP3    H122862   3.024   2.653  12.037  0.1578 -0.3652 -0.4245
  457TIP3    H222863   3.146   2.734  12.075  0.2061 -0.6343  0.0054
  458TIP3   OH222864   4.769   1.353  13.225 -0.5319  0.0846  0.0908
  458TIP3    H122865   4.833   1.299  13.180 -0.8757 -0.3749  0.1516
  458TIP3    H222866   4.769   1.436  13.177 -1.1497 -0.5101 -0.9765
  459TIP3   OH222867   4.353   6.048   0.437  0.0621 -0.2466  0.3439
  459TIP3    H122868   4.324   6.082   0.522 -2.7995  0.0374 -0.6316
  459TIP3    H222869   4.281   5.993   0.407  0.9234 -0.2433 -1.9598
  460TIP3   OH222870   0.452   1.421  15.463  0.2421  0.1135  0.5272
  460TIP3    H122871   0.491   1.366  15.395 -1.1111 -2.6842  1.8313
  460TIP3    H222872   0.483   1.509  15.443  1.0290 -0.7615 -2.8561
  461TIP3   OH222873   6.545   1.420  11.939 -0.7492  0.4689 -0.5975
  461TIP3    H122874   6.455   1.408  11.971 -1.0158 -0.4400 -1.6365
  461TIP3    H222875   6.537   1.481  11.866 -0.4697  0.6529 -0.4764
  462TIP3   OH222876   2.888   3.278   2.107  0.4530 -0.5597 -0.2469
  462TIP3    H122877   2.909   3.316   2.193 -0.4360 -0.4472 -0.0736
  462TIP3    H222878   2.946   3.202   2.100 -1.4623 -2.3472  1.7691
  463TIP3   OH222879   6.702   4.331  11.133 -0.4040 -0.7121 -0.5205
  463TIP3    H122880   6.672   4.290  11.052 -0.4998  0.5764 -1.1599
  463TIP3    H222881   6.651   4.412  11.139  0.7844  0.0257 -0.0550
  464TIP3   OH222882   1.010   2.455  16.454 -0.0520  0.5683  0.1983
  464TIP3    H122883   0.969   2.382  16.407 -1.7101  1.4804  0.1436
  464TIP3    H222884   1.094   2.420  16.483  0.5305 -0.4224 -2.3633
  465TIP3   OH222885   0.343   4.928   6.227 -0.3427  0.2794 -0.0041
  465TIP3    H122886   0.413   4.887   6.176  0.0577 -0.0574  0.8103
  465TIP3    H222887   0.371   5.018   6.239  1.0581 -0.3908  2.2221
  466TIP3   OH222888   1.946   2.667   5.505  0.3205 -0.3834 -0.0455
  466TIP3    H122889   2.030   2.704   5.534  0.4713 -0.7553 -0.0042
  466TIP3    H222890   1.964   2.574   5.492 -0.2518 -0.5896  0.6057
  467TIP3   OH222891   1.349   3.077   4.493  0.5270  0.4795 -0.2644
  467TIP3    H122892   1.444   3.067   4.487  0.2742 -1.6479 -2.6947
  467TIP3    H222893   1.318   2.990   4.518 -0.8116  1.1344  0.4281
  468TIP3   OH222894   6.079   0.931   4.840  0.1690 -0.0897  1.4791
  468TIP3    H122895   6.159   0.955   4.794  0.0805 -2.8324 -0.2860
  468TIP3    H222896   6.103   0.854   4.892 -1.4645 -1.5409  0.1990
  469TIP3   OH222897   2.888   4.613  12.888  0.0070 -0.3806  0.1083
  469TIP3    H122898   2.899   4.551  12.960  3.2516  0.4504  0.4510
  469TIP3    H222899   2.829   4.680  12.923 -1.5281 -1.8978  0.5817
  470TIP3   OH222900   0.663   0.190   5.285  0.6072 -0.1547  0.5110
  470TIP3    H122901   0.752   0.224   5.280  0.5541 -0.1241 -2.8723
  470TIP3    H222902   0.673   0.095   5.276  0.3448 -0.0389 -1.7875
  471TIP3   OH222903   4.416   2.241  12.630  0.6862  0.0146 -0.6818
  471TIP3    H122904   4.396   2.162  12.579 -0.4212  0.2558 -0.6322
  471TIP3    H222905   4.417   2.210  12.721  0.6954 -0.0277 -0.6960
  472TIP3   OH222906   6.305   1.267  14.367  0.0182 -0.0147  0.8791
  472TIP3    H122907   6.345   1.217  14.438 -1.5821 -1.9745  0.4566
  472TIP3    H222908   6.267   1.344  14.411 -0.6792 -1.0292  2.1243
  473TIP3   OH222909   1.349   0.328   2.172  0.5427 -0.0111  0.1108
  473TIP3    H122910   1.328   0.370   2.256  0.6022 -0.1508  0.1961
  473TIP3    H222911   1.289   0.254   2.166 -0.3448  0.7489 -0.5740
  474TIP3   OH222912   0.355   1.616   2.769  0.0879 -0.1031 -0.1683
  474TIP3    H122913   0.266   1.588   2.748  0.2861 -1.0210  0.1742
  474TIP3    H222914   0.400   1.620   2.684  0.6727 -3.0373 -0.1200
  475TIP3   OH222915   3.876   1.321   2.904 -0.0093 -0.2904  0.2170
  475TIP3    H122916   3.906   1.231   2.886 -1.6161 -1.1518  1.5684
  475TIP3    H222917   3.810   1.338   2.837  1.8766  0.8223 -1.4705
  476TIP3   OH222918   5.139   3.333  15.599  0.4008 -0.6230 -0.0353
  476TIP3    H122919   5.211   3.328  15.661  2.1732  0.3967 -1.9028
  476TIP3    H222920   5.078   3.396  15.637  1.4892  0.0585  0.6053
  477TIP3   OH222921   2.020   2.647  11.935  0.7054 -0.9930 -0.0153
  477TIP3    H122922   1.956   2.673  11.868  0.7886  2.3585  0.9805
  477TIP3    H222923   1.984   2.681  12.017  1.9833 -2.4266  1.2114
  478TIP3   OH222924   3.437   1.912   0.669  0.4038  0.2821  0.5476
  478TIP3    H122925   3.463   1.874   0.586 -2.8124  1.0692 -0.9694
  478TIP3    H222926   3.437   1.839   0.731  0.9001 -0.7156 -0.6083
  479TIP3   OH222927   4.798   2.933  14.185  0.0772  0.2343 -0.3354
  479TIP3    H122928   4.855   2.927  14.109  0.0318 -0.9917 -0.3029
  479TIP3    H222929   4.720   2.883  14.160  0.2021 -0.4699  0.6215
  480TIP3   OH222930   0.443   2.684  14.060 -0.2368 -0.1995 -0.6037
  480TIP3    H122931   0.528   2.650  14.087 -0.8823  0.0245  2.0059
  480TIP3    H222932   0.433   2.765  14.110 -3.4499 -2.0184  2.1272
  481TIP3   OH222933   6.212   3.287  10.727 -0.1041 -0.3845 -0.3517
  481TIP3    H122934   6.212   3.228  10.651 -0.0968  0.0693 -0.7103
  481TIP3    H222935   6.305   3.307  10.741 -0.0887 -0.6419 -0.0837
  482TIP3   OH222936   0.592   2.973  12.075 -0.9656 -0.8009  0.0244
  482TIP3    H122937   0.600   3.036  12.146 -3.4294 -1.4371  0.9845
  482TIP3    H222938   0.682   2.951  12.051 -0.0524 -0.2653  2.6617
  483TIP3   OH222939   6.680   5.115  16.872  0.2368 -0.5550  0.2927
  483TIP3    H122940   6.766   5.150  16.893  0.2871 -0.6209  0.1931
  483TIP3    H222941   6.649   5.078  16.955  0.1062 -0.1147  0.4444
  484TIP3   OH222942   3.840   1.918  17.093  0.1208 -0.5079  0.0635
  484TIP3    H122943   3.783   1.994  17.080  2.9441  1.8682  0.6087
  484TIP3    H222944   3.782   1.852  17.131 -3.2740 -0.0046 -3.5834
  485TIP3   OH222945   3.479   4.324   1.456  0.2716 -0.7709 -0.4303
  485TIP3    H122946   3.544   4.287   1.515  0.7929 -0.2309 -0.6475
  485TIP3    H222947   3.412   4.256   1.447  0.6724 -1.2282  0.0108
  486TIP3   OH222948   1.652   4.501  13.241 -0.3506 -0.1806  0.0384
  486TIP3    H122949   1.601   4.422  13.226 -0.1674 -0.7485  2.1254
  486TIP3    H222950   1.597   4.572  13.209  0.0345 -1.1800 -3.1440
  487TIP3   OH222951   3.413   5.774   3.059  0.2238  0.2352 -0.1713
  487TIP3    H122952   3.475   5.811   2.996 -0.5687  0.9658 -0.5328
  487TIP3    H222953   3.379   5.850   3.107  0.3532 -0.2527  0.7258
  488TIP3   OH222954   2.582   3.020  13.441 -0.0599 -0.1242 -0.4187
  488TIP3    H122955   2.592   3.108  13.478 -0.6149 -0.5433  0.7852
  488TIP3    H222956   2.493   3.019  13.406 -0.2352 -0.3563  0.0223
  489TIP3   OH222957   1.818   5.800  11.087  0.7372 -0.2744  0.4650
  489TIP3    H122958   1.832   5.720  11.035 -0.6659 -0.9743  1.1041
  489TIP3    H222959   1.808   5.869  11.021  0.4627 -0.8974 -0.1669
  490TIP3   OH222960   4.495   3.819   1.510  0.0121 -0.5100 -0.0371
  490TIP3    H122961   4.409   3.777   1.511 -0.4145  0.0621 -3.4030
  490TIP3    H222962   4.478   3.909   1.484  1.3429  0.8416  3.2248
  491TIP3   OH222963   0.558   6.829  16.637  0.2091  0.1147  0.0997
  491TIP3    H122964   0.651   6.824  16.613  0.3889  1.1459  0.5609
  491TIP3    H222965   0.526   6.907  16.592  0.4112  1.7776  2.6313
  492TIP3   OH222966   5.273   6.819   2.438 -0.1779  0.3901  0.2388
  492TIP3    H122967   5.303   6.908   2.454 -0.3253  0.4329  0.2775
  492TIP3    H222968   5.347   6.764   2.466 -0.1528  0.4925  0.3788
  493TIP3   OH222969   5.372   3.986  10.701  0.0962 -0.2779  0.1430
  493TIP3    H122970   5.456   3.948  10.674  0.4204  0.1033  0.5890
  493TIP3    H222971   5.308   3.948  10.641  0.6009 -0.5001 -0.2664
  494TIP3   OH222972   3.210   2.939  12.774 -0.0329 -0.3802  0.1584
  494TIP3    H122973   3.160   2.999  12.830 -2.2364 -0.8566 -1.1677
  494TIP3    H222974   3.185   2.852  12.804  0.0580 -0.6343 -0.4886
  495TIP3   OH222975   1.774   2.856   2.641  0.2340  0.0287 -0.1722
  495TIP3    H122976   1.770   2.803   2.561  0.8021 -0.5308  0.1590
  495TIP3    H222977   1.794   2.793   2.711  1.7874  0.7717  0.1047
  496TIP3   OH222978   3.907   5.030   0.159  0.1900  0.5202  0.2176
  496TIP3    H122979   3.980   4.973   0.135 -0.5321  0.1740 -1.2513
  496TIP3    H222980   3.837   4.971   0.185  0.3238  0.8472  1.3997
  497TIP3   OH222981   2.932   0.323  11.928  0.1801 -0.7505  0.0198
  497TIP3    H122982   2.847   0.351  11.961  0.7153  2.8941 -1.1846
  497TIP3    H222983   2.912   0.256  11.863 -1.6133 -1.1674  0.9438
  498TIP3   OH222984   4.383   0.768   3.438  0.5485  0.2591  0.3134
  498TIP3    H122985   4.330   0.700   3.478 -1.6806  2.1957  0.8544
  498TIP3    H222986   4.381   0.841   3.500 -0.4918  2.2627 -1.9030
  499TIP3   OH222987   5.651   2.575  14.724 -0.4813 -0.4621  0.0538
  499TIP3    H122988   5.730   2.588  14.776  0.4825 -0.9764 -1.2085
  499TIP3    H222989   5.590   2.530  14.783 -0.4514  1.3537  1.5465
  500TIP3   OH222990   1.969   5.117  12.446  0.2418  0.0400 -0.3715
  500TIP3    H122991   1.885   5.119  12.399  1.7111  1.5195 -3.1504
  500TIP3    H222992   1.955   5.173  12.522 -1.1825  0.6308 -1.0308
  501TIP3   OH222993   2.718   5.522   3.327 -0.6750  0.0724 -0.7259
  501TIP3    H122994   2.685   5.442   3.286  0.3206 -0.5487 -0.3224
  501TIP3    H222995   2.713   5.588   3.257 -0.3136 -0.6421 -1.4320
  502TIP3   OH222996   2.277   1.287  11.740 -0.3030  0.3028 -0.6220
  502TIP3    H122997   2.254   1.199  11.709 -0.2763  1.1661 -3.4343
  502TIP3    H222998   2.318   1.328  11.664  1.6555  2.0715  1.2719
  503TIP3   OH222999   4.062   3.196   2.469  1.0472 -0.4400 -0.1910
  503TIP3    H123000   4.030   3.139   2.538  0.2700  0.2279  0.0082
  503TIP3    H223001   4.146   3.157   2.443  1.7763 -0.2387  1.6931
  504TIP3   OH223002   1.552   0.879   3.775  0.5373 -0.3585  0.1558
  504TIP3    H123003   1.519   0.959   3.734 -2.4952 -1.7785 -0.4675
  504TIP3    H223004   1.555   0.900   3.869  1.1006  0.8752 -0.1211
  505TIP3   OH223005   0.314   4.063  12.068  1.0774 -0.3404 -0.1893
  505TIP3    H123006   0.295   4.069  11.974  0.7788 -2.9971 -0.3938
  505TIP3    H223007   0.245   4.114  12.110 -0.3517 -1.2089 -1.3678
  506TIP3   OH223008   5.023   2.185  11.312 -0.2314 -0.3446 -0.3907
  506TIP3    H123009   5.080   2.167  11.386 -0.6034  0.4939  0.1121
  506TIP3    H223010   5.043   2.275  11.288 -2.8966  0.8073  1.2517
  507TIP3   OH223011   4.237   4.003   6.253 -0.1527 -0.5613  0.5388
  507TIP3    H123012   4.205   4.043   6.333  0.5783 -0.4482  0.7761
  507TIP3    H223013   4.299   3.936   6.282 -0.6893 -1.2656  0.1120
  508TIP3   OH223014   0.358   2.567   0.000  0.4033 -0.4794 -0.8767
  508TIP3    H123015   0.396   2.540  -0.083  3.1143  0.3805 -0.0183
  508TIP3    H223016   0.397   2.653   0.018 -1.0912 -0.0575  0.6870
  509TIP3   OH223017   5.235   5.368  14.152 -0.3852 -0.2789 -0.0990
  509TIP3    H123018   5.195   5.296  14.103 -0.9820 -1.2491  1.6833
  509TIP3    H223019   5.329   5.356  14.141 -0.4832 -1.2253 -0.0258
  510TIP3   OH223020   4.010   5.254  16.006  0.0873  0.1697  0.4130
  510TIP3    H123021   4.093   5.280  15.967 -0.2119  1.3036  0.4707
  510TIP3    H223022   4.028   5.247  16.100  0.3840 -0.7506  0.2914
  511TIP3   OH223023   5.587   6.482   3.576 -0.1162  0.0068  0.1220
  511TIP3    H123024   5.584   6.495   3.671  2.1212 -0.5095  0.3156
  511TIP3    H223025   5.675   6.509   3.551 -0.4916 -0.3678 -1.7484
  512TIP3   OH223026   3.011   1.598  14.600  0.2075  0.1339 -0.0170
  512TIP3    H123027   2.943   1.561  14.657  1.0331 -2.0526 -0.3536
  512TIP3    H223028   3.008   1.545  14.521  1.7774  0.4868 -0.3534
  513TIP3   OH223029   3.417   1.980  11.642  0.0404 -0.0804 -0.1385
  513TIP3    H123030   3.352   1.916  11.672 -0.3252  0.7376  0.8594
  513TIP3    H223031   3.499   1.951  11.682 -0.2387  0.3899  0.8029
  514TIP3   OH223032   2.712   5.013   3.760  0.1009 -0.2010  0.1926
  514TIP3    H123033   2.655   5.019   3.683 -1.0883  0.5118  1.0874
  514TIP3    H223034   2.653   4.992   3.832  1.0001  0.3541  1.1254
  515TIP3   OH223035   0.465   6.050   0.086 -0.2723 -0.2198  0.5356
  515TIP3    H123036   0.546   6.016   0.123  0.1562  0.9937  0.7471
  515TIP3    H223037   0.482   6.057  -0.008  0.7208  2.1818  0.8281
  516TIP3   OH223038   4.505   4.249  16.896 -0.2072 -0.0014 -0.4812
  516TIP3    H123039   4.545   4.170  16.859  0.1295 -0.1342  0.1491
  516TIP3    H223040   4.415   4.248  16.864  0.1760  0.0822 -1.5856
  517TIP3   OH223041   3.710   3.905  10.948 -0.4344 -0.1339 -0.0894
  517TIP3    H123042   3.800   3.937  10.947 -0.2985 -0.3624 -2.5041
  517TIP3    H223043   3.665   3.961  10.885 -2.1463  0.3042  1.4483
  518TIP3   OH223044   5.047   1.245   1.893  0.1300  0.1992 -0.0350
  518TIP3    H123045   5.021   1.190   1.818 -0.0951  0.9600 -0.5230
  518TIP3    H223046   4.984   1.224   1.961 -1.0244  1.1102 -0.7945
  519TIP3   OH223047   6.135   6.293   3.505 -0.2456 -0.1420  0.1928
  519TIP3    H123048   6.224   6.326   3.510 -0.0418 -0.7534  0.7766
  519TIP3    H223049   6.081   6.369   3.485  0.5209  0.0589 -1.2449
  520TIP3   OH223050   3.209   1.671  15.229 -0.0513  0.3606 -0.0690
  520TIP3    H123051   3.170   1.625  15.154  1.1344  0.4062 -0.7340
  520TIP3    H223052   3.271   1.732  15.190  0.7252  0.2476  0.9556
  521TIP3   OH223053   0.533   4.882   2.449  0.5772  0.0778 -0.0049
  521TIP3    H123054   0.531   4.964   2.498  1.7221  0.9396 -1.3203
  521TIP3    H223055   0.497   4.904   2.363  1.4956 -0.6141 -0.5935
  522TIP3   OH223056   4.645   4.745  16.914 -0.4371  0.2553 -0.3680
  522TIP3    H123057   4.557   4.727  16.947  0.6809 -1.2603  2.1381
  522TIP3    H223058   4.659   4.839  16.932 -1.3665  0.3866 -0.3115
  523TIP3   OH223059   5.051   2.260   5.998  0.7751  0.1643  0.2052
  523TIP3    H123060   5.140   2.279   5.969  0.2413  0.7633 -1.1438
  523TIP3    H223061   5.032   2.327   6.065  1.8214 -0.8723  1.5895
  524TIP3   OH223062   5.154   6.597   2.101  0.1332 -0.0964  0.0550
  524TIP3    H123063   5.247   6.581   2.117  0.2305 -0.9454 -1.2710
  524TIP3    H223064   5.121   6.516   2.064 -0.9614  0.4735 -0.2619
  525TIP3   OH223065   0.498   0.464   5.737 -0.4538 -0.1243  0.3550
  525TIP3    H123066   0.484   0.468   5.831 -1.7289  0.8337  0.1447
  525TIP3    H223067   0.482   0.553   5.706 -0.5528 -0.5357 -0.8382
  526TIP3   OH223068   4.162   3.974   6.000 -0.0453  0.3648 -0.0748
  526TIP3    H123069   4.078   4.002   5.965 -0.1429  1.0915  0.6967
  526TIP3    H223070   4.155   3.991   6.094  0.4592 -0.8725  0.1988
  527TIP3   OH223071   2.770   4.280   2.789 -0.3935  1.1788 -0.4798
  527TIP3    H123072   2.863   4.291   2.769 -0.2470  1.3623  0.2759
  527TIP3    H223073   2.738   4.221   2.721  0.4090  0.6186 -0.3839
  528TIP3   OH223074   0.725   1.873  13.426 -0.4944  0.2412 -0.2526
  528TIP3    H123075   0.747   1.803  13.487 -0.5424 -0.9936 -1.6050
  528TIP3    H223076   0.696   1.945  13.482  0.5369 -0.4366  1.2289
  529TIP3   OH223077   6.049   6.280   0.067  0.3296  0.2487 -0.0285
  529TIP3    H123078   6.059   6.205   0.125  0.5300  0.2974  0.0001
  529TIP3    H223079   5.992   6.340   0.115 -0.4624 -0.2150 -0.3725
  530TIP3   OH223080   2.929   4.036   2.143 -0.0765  0.2922 -0.1280
  530TIP3    H123081   2.964   4.074   2.063 -2.1013 -0.5251 -1.4816
  530TIP3    H223082   2.866   4.100   2.175 -0.4751 -0.0898 -0.1310
  531TIP3   OH223083   0.620   5.231   5.921 -0.0894  0.0964 -0.1875
  531TIP3    H123084   0.598   5.285   5.845  0.6214  0.6282 -0.0253
  531TIP3    H223085   0.703   5.189   5.897  0.2954  0.4970  0.3994
  532TIP3   OH223086   4.145   5.008  11.865  0.0711 -0.2000 -0.0021
  532TIP3    H123087   4.185   4.974  11.785 -1.8470  0.3302 -1.2345
  532TIP3    H223088   4.219   5.021  11.925  1.9614  1.7547 -2.5285
  533TIP3   OH223089   6.455   3.523  13.585  0.2553  0.0930  0.2605
  533TIP3    H123090   6.448   3.447  13.528  1.2383 -0.6769  1.0998
  533TIP3    H223091   6.518   3.580  13.541 -0.2795  0.3027 -0.2417
  534TIP3   OH223092   4.423   5.720  17.037 -0.3702  0.1731 -0.8897
  534TIP3    H123093   4.448   5.644  17.090 -2.0961  1.1422  1.4722
  534TIP3    H223094   4.495   5.783  17.049  0.1346 -0.3157 -1.2749
  535TIP3   OH223095   5.173   2.169   0.022 -0.1600  0.3403 -0.2682
  535TIP3    H123096   5.219   2.129   0.096 -1.3128 -0.1745  0.1932
  535TIP3    H223097   5.238   2.226  -0.018  0.1791  1.5534  1.8491
  536TIP3   OH223098   4.732   4.841   2.704 -0.0331  0.2607 -0.1592
  536TIP3    H123099   4.762   4.906   2.769 -0.8686  0.7530 -0.2592
  536TIP3    H223100   4.809   4.785   2.690  0.8281  1.4635 -0.3642
  537TIP3   OH223101   5.728   5.891   1.014 -0.0685 -0.2166 -0.1665
  537TIP3    H123102   5.766   5.817   1.061 -0.2327 -0.6171 -0.6592
  537TIP3    H223103   5.792   5.911   0.945 -1.8245 -2.5618 -2.6891
  538TIP3   OH223104   1.371   1.582   0.191  0.6173 -0.6264 -0.2656
  538TIP3    H123105   1.336   1.493   0.201  0.1481 -0.4202 -0.0506
  538TIP3    H223106   1.392   1.610   0.280 -0.9032  0.1405 -0.1140
  539TIP3   OH223107   0.594   5.539  16.048  0.4509 -0.3467  0.4093
  539TIP3    H123108   0.511   5.529  16.094  1.0123 -0.3381  1.4456
  539TIP3    H223109   0.606   5.456  16.001 -0.2564 -0.2501  0.0482
  540TIP3   OH223110   5.833   2.698  11.566 -0.7485 -0.1733 -0.1307
  540TIP3    H123111   5.909   2.704  11.508  0.1986 -1.6840  0.8954
  540TIP3    H223112   5.865   2.725  11.651 -2.0377  1.6568 -0.1768
  541TIP3   OH223113   3.524   0.454   5.907  0.0075 -0.0495 -0.2102
  541TIP3    H123114   3.465   0.501   5.848 -0.9025 -0.3963  0.4013
  541TIP3    H223115   3.591   0.518   5.930  1.2402 -0.2801 -2.7154
  542TIP3   OH223116   4.886   3.246   0.344  0.6045  1.2423  0.1648
  542TIP3    H123117   4.845   3.166   0.376  0.8847  0.9419 -0.2192
  542TIP3    H223118   4.814   3.297   0.308  0.1605  1.9339  1.9490
  543TIP3   OH223119   2.912   3.046   3.515 -0.2359  0.0189  0.1997
  543TIP3    H123120   2.899   3.121   3.457 -0.0824 -1.1037 -1.3240
  543TIP3    H223121   2.858   3.066   3.592 -0.7280  1.3790 -0.4701
  544TIP3   OH223122   4.829   6.424  13.716  0.6256 -0.0452 -0.2970
  544TIP3    H123123   4.772   6.463  13.650  1.3096 -0.0255 -0.8912
  544TIP3    H223124   4.806   6.469  13.797  1.1671  1.3770 -0.9032
  545TIP3   OH223125   4.847   4.914   0.192 -0.3367  0.4761 -0.2149
  545TIP3    H123126   4.820   4.980   0.128  0.1302 -0.3023 -1.2666
  545TIP3    H223127   4.923   4.952   0.236 -0.3520  0.8285 -0.4927
  546TIP3   OH223128   6.570   4.659  14.590  0.1225 -0.1015  0.0643
  546TIP3    H123129   6.571   4.666  14.685  1.6490 -0.3543  0.0969
  546TIP3    H223130   6.501   4.596  14.570 -0.9211  0.7460  0.9289
  547TIP3   OH223131   1.563   6.341  12.105 -0.2009 -0.1306  0.6743
  547TIP3    H123132   1.481   6.386  12.088 -0.5386 -0.2111  1.9439
  547TIP3    H223133   1.538   6.250  12.118  0.2092 -0.3149  0.2246
  548TIP3   OH223134   0.995   0.137   1.974 -0.0390  0.0895 -0.1366
  548TIP3    H123135   0.941   0.130   2.053 -0.2232 -0.0908 -0.2758
  548TIP3    H223136   1.061   0.202   1.996  0.3116 -0.4330  0.3983
  549TIP3   OH223137   2.484   2.833   3.899 -0.2904 -0.3263  0.4697
  549TIP3    H123138   2.543   2.780   3.844 -0.4802 -1.5150  1.3787
  549TIP3    H223139   2.536   2.853   3.977  0.9459  3.5858 -1.0783
  550TIP3   OH223140   5.400   3.468   5.075  0.0027  0.0807 -0.2222
  550TIP3    H123141   5.336   3.397   5.078  0.1993 -0.0947 -0.1985
  550TIP3    H223142   5.430   3.476   5.166  0.3649 -0.1534 -0.3219
  551TIP3   OH223143   5.738   4.198  13.984 -0.2969 -0.2241  0.3677
  551TIP3    H123144   5.688   4.119  13.968  0.8903 -1.5606  2.6870
  551TIP3    H223145   5.699   4.236  14.063 -0.8212  1.5345 -0.6776
  552TIP3   OH223146   1.084   3.422  14.920 -0.0155  0.1685  0.9088
  552TIP3    H123147   1.144   3.373  14.975 -0.9868 -0.4297  1.4610
  552TIP3    H223148   1.138   3.455  14.848  0.6035 -2.0723  0.2847
  553TIP3   OH223149   4.849   3.595   5.553  0.2273  0.2442  0.0584
  553TIP3    H123150   4.804   3.511   5.541  1.7438 -0.5806 -0.0265
  553TIP3    H223151   4.805   3.654   5.491  0.2268 -0.9291 -1.1041
  554TIP3   OH223152   5.851   3.029  14.533  0.2618  0.5895  0.1426
  554TIP3    H123153   5.841   2.942  14.495  0.2885  0.3209  0.7505
  554TIP3    H223154   5.865   3.086  14.457  0.6805  0.0048 -0.2278
  555TIP3   OH223155   4.753   2.359   6.129  0.0171 -0.6096 -0.2142
  555TIP3    H123156   4.660   2.339   6.144 -0.1637  0.3896  0.0479
  555TIP3    H223157   4.752   2.425   6.060  0.3121  1.7639  1.9062
  556TIP3   OH223158   2.419   3.662   1.974 -0.4601  0.0800 -0.1893
  556TIP3    H123159   2.429   3.577   1.930 -0.3200  0.0880 -0.1720
  556TIP3    H223160   2.341   3.701   1.933  0.0937  0.4104 -0.9609
  557TIP3   OH223161   5.977   3.793  16.926 -0.7119  0.0414 -0.4367
  557TIP3    H123162   6.039   3.844  16.874  1.3135 -2.0867 -0.3096
  557TIP3    H223163   6.012   3.796  17.015 -0.8597 -1.0498 -0.3272
  558TIP3   OH223164   1.993   5.528  11.453 -0.7075  0.3716 -0.8650
  558TIP3    H123165   1.944   5.491  11.380 -0.2320 -2.6537  0.1804
  558TIP3    H223166   2.074   5.478  11.455  0.1371  1.7027  0.5932
  559TIP3   OH223167   1.763   5.636   5.446  0.2032 -0.3251  0.1136
  559TIP3    H123168   1.767   5.682   5.362 -0.1501  0.9676  0.7964
  559TIP3    H223169   1.680   5.587   5.443 -0.1512  0.2770 -0.0077
  560TIP3   OH223170   0.978   3.259  13.133 -0.1122  0.3501 -0.1393
  560TIP3    H123171   0.903   3.205  13.109  0.6447 -0.7581 -0.0648
  560TIP3    H223172   1.029   3.266  13.052  0.5786 -0.3506  0.2228
  561TIP3   OH223173   6.218   6.209   2.487  0.1730  1.0259 -0.3794
  561TIP3    H123174   6.274   6.283   2.511 -0.6423  1.8894 -1.0850
  561TIP3    H223175   6.194   6.225   2.396  0.3668 -0.3713 -0.6961
  562TIP3   OH223176   1.337   6.126  12.407  0.1342 -0.7139 -0.4186
  562TIP3    H123177   1.319   6.217  12.384 -0.1067 -0.2666  1.4040
  562TIP3    H223178   1.430   6.124  12.429  0.2494 -1.0325 -0.9016
  563TIP3   OH223179   4.353   5.524  15.328  0.2591 -0.1728  0.1644
  563TIP3    H123180   4.296   5.483  15.263 -1.2070  1.9025  0.0382
  563TIP3    H223181   4.302   5.598  15.361  2.1920  0.6700  1.4206
  564TIP3   OH223182   5.292   3.736  12.255  0.2273 -0.3956 -0.4947
  564TIP3    H123183   5.367   3.686  12.222  0.8764  0.1382  0.1336
  564TIP3    H223184   5.327   3.823  12.271 -0.8584  0.2401 -1.4495
  565TIP3   OH223185   2.710   1.583   2.778 -0.2356 -1.1541 -0.1714
  565TIP3    H123186   2.764   1.603   2.701 -0.0225 -1.0783 -0.0041
  565TIP3    H223187   2.652   1.659   2.786  1.5475  0.1570  1.3222
  566TIP3   OH223188   5.879   6.546  13.107  0.4357 -0.7281 -0.4601
  566TIP3    H123189   5.861   6.636  13.081 -0.5628 -0.2988  1.5340
  566TIP3    H223190   5.794   6.501  13.099  0.1839 -0.6756  1.5101
  567TIP3   OH223191   2.191   4.110  11.334 -0.1017  0.5501  0.0596
  567TIP3    H123192   2.207   4.021  11.302 -2.1154  0.7441 -1.6500
  567TIP3    H223193   2.276   4.138  11.369  1.1539 -1.2035 -1.4045
  568TIP3   OH223194   3.274   1.466  12.899 -0.0666 -0.3269  0.6468
  568TIP3    H123195   3.240   1.526  12.966 -1.1121  0.5297 -0.5971
  568TIP3    H223196   3.217   1.389  12.905  1.0702 -1.0975  2.0229
  569TIP3   OH223197   4.570   4.017   2.618 -0.4447 -0.0093 -0.0096
  569TIP3    H123198   4.526   4.099   2.592  1.7655  1.1125 -0.4801
  569TIP3    H223199   4.653   4.046   2.655  0.2794 -2.0559  0.0645
  570TIP3   OH223200   1.166   0.719   4.248  0.0394  0.2057 -0.4910
  570TIP3    H123201   1.228   0.764   4.191  0.3831  0.1423 -0.1709
  570TIP3    H223202   1.083   0.721   4.200  0.7586 -1.6211 -1.9408
  571TIP3   OH223203   3.619   2.772  12.535  0.1155 -0.2051 -0.2105
  571TIP3    H123204   3.641   2.755  12.443 -0.6496  1.2873 -0.7054
  571TIP3    H223205   3.573   2.856  12.533  0.4672  0.0620  1.6018
  572TIP3   OH223206   2.460   1.970  16.391 -0.3146 -0.4380 -0.2470
  572TIP3    H123207   2.518   1.983  16.316  0.1890  0.7896  0.3246
  572TIP3    H223208   2.485   1.884  16.425  1.8687  0.4144  0.5211
  573TIP3   OH223209   6.801   0.973  11.396 -0.0732 -0.1771  0.4376
  573TIP3    H123210   6.870   1.019  11.444 -0.4669  0.4612  0.3936
  573TIP3    H223211   6.844   0.946  11.314  0.5550 -1.1421  1.0549
  574TIP3   OH223212   1.438   1.436   1.304 -0.0452 -0.2414  0.2209
  574TIP3    H123213   1.505   1.471   1.245  0.2889  0.8714  1.2072
  574TIP3    H223214   1.375   1.393   1.247  0.4975  0.4103 -0.9015
  575TIP3   OH223215   1.774   6.143  14.257  0.0896  0.4840  0.5773
  575TIP3    H123216   1.810   6.231  14.268  0.9457  0.2973 -0.5701
  575TIP3    H223217   1.730   6.125  14.340  0.6389  1.6530  1.1504
  576TIP3   OH223218   3.090   2.299   4.290 -0.0114 -0.4943  0.2523
  576TIP3    H123219   3.134   2.368   4.242  0.4332 -0.4397  0.7249
  576TIP3    H223220   3.000   2.330   4.301  0.3825  0.3914  1.1665
  577TIP3   OH223221   4.728   5.349   2.585 -0.0683  0.0380 -0.0544
  577TIP3    H123222   4.684   5.284   2.639 -1.1439  1.1965  0.5096
  577TIP3    H223223   4.714   5.319   2.495 -0.9584 -0.2631  0.1804
  578TIP3   OH223224   1.626   3.993  11.428  0.3326 -0.5816  0.1165
  578TIP3    H123225   1.573   4.073  11.421  0.2049 -0.6057  0.7058
  578TIP3    H223226   1.626   3.956  11.340 -1.7270 -1.2778  0.3619
  579TIP3   OH223227   4.247   0.592   3.613  0.1312 -0.0983  0.4045
  579TIP3    H123228   4.169   0.557   3.570 -0.1175  1.0552 -0.1094
  579TIP3    H223229   4.316   0.527   3.594 -0.5646 -0.8632  0.4205
  580TIP3   OH223230   0.296   0.982  16.545 -0.2798  0.2394 -0.0493
  580TIP3    H123231   0.334   1.065  16.519  1.2951 -1.1323 -2.5546
  580TIP3    H223232   0.322   0.970  16.636  0.6815  1.8375 -0.0884
  581TIP3   OH223233   3.400   4.275  11.797 -0.2982  0.0094  0.2388
  581TIP3    H123234   3.469   4.228  11.752 -1.2502 -2.1250  0.9040
  581TIP3    H223235   3.319   4.235  11.766 -1.2445  1.8999  0.0906
  582TIP3   OH223236   0.838   3.185  16.426 -0.2356  0.3306  0.3046
  582TIP3    H123237   0.906   3.190  16.359 -0.0938 -0.1955  0.4091
  582TIP3    H223238   0.875   3.230  16.502  0.1760 -0.3242  0.5060
  583TIP3   OH223239   5.895   1.096  11.601  0.2234  0.0930  0.0869
  583TIP3    H123240   5.895   1.050  11.518 -0.4044  2.2825 -1.2140
  583TIP3    H223241   5.960   1.166  11.589  0.0094  0.5348  1.3663
  584TIP3   OH223242   3.366   0.211  12.235 -0.3061  0.1523  0.1908
  584TIP3    H123243   3.340   0.273  12.167 -1.1247 -0.5586 -0.1666
  584TIP3    H223244   3.333   0.249  12.317  1.5427  1.5089  0.3737
  585TIP3   OH223245   3.361   3.658  12.442  0.1441 -0.3540  0.2391
  585TIP3    H123246   3.339   3.751  12.441  1.0673 -0.0234  2.9499
  585TIP3    H223247   3.283   3.616  12.480 -0.1141 -0.6740 -0.6121
  586TIP3   OH223248   6.054   1.540   2.023 -0.0687  0.3649 -0.2857
  586TIP3    H123249   6.026   1.591   1.947  0.9967  2.2206  0.5097
  586TIP3    H223250   6.041   1.449   1.997 -1.9749  1.0088 -1.7853
  587TIP3   OH223251   6.578   2.250  15.433 -0.0241  0.1068  0.5543
  587TIP3    H123252   6.514   2.178  15.438  0.1833 -0.0246  1.3714
  587TIP3    H223253   6.596   2.259  15.339  0.6579 -1.5518  0.4852
  588TIP3   OH223254   0.509   4.693  10.456  0.8440 -0.3693 -0.4619
  588TIP3    H123255   0.549   4.768  10.500  2.0996 -0.5840 -1.2046
  588TIP3    H223256   0.562   4.618  10.482  0.3777 -0.8101 -0.7515
  589TIP3   OH223257   0.635   5.397   4.999  0.0424  0.0841  0.2773
  589TIP3    H123258   0.725   5.402   5.032  0.1877  1.6820 -0.2985
  589TIP3    H223259   0.610   5.487   4.980 -1.3666 -0.4120 -0.4446
  590TIP3   OH223260   6.219   4.944  13.847  0.7341 -0.7945  0.1299
  590TIP3    H123261   6.172   4.862  13.865  0.7929 -0.4461  1.9626
  590TIP3    H223262   6.248   4.975  13.932  0.7452  1.1479 -0.5277
  591TIP3   OH223263   4.246   1.280   3.272  0.4213  0.0543  0.3819
  591TIP3    H123264   4.291   1.198   3.294  0.1297 -0.3657 -0.5795
  591TIP3    H223265   4.176   1.254   3.213  1.1021  1.1333 -0.9615
  592TIP3   OH223266   3.806   4.016  14.932 -0.1640  0.1321  0.5552
  592TIP3    H123267   3.715   4.037  14.912 -0.3351 -0.6269  0.4874
  592TIP3    H223268   3.813   3.923  14.912  0.4026 -0.0101  1.3646
  593TIP3   OH223269   4.067   1.155  14.059 -0.4348 -0.0859 -0.0021
  593TIP3    H123270   4.115   1.228  14.099  1.4291 -1.2534  0.0090
  593TIP3    H223271   4.049   1.095  14.131  0.6085 -0.9607 -0.4438
  594TIP3   OH223272   3.684   0.482  11.727  0.2161 -0.5965 -0.1066
  594TIP3    H123273   3.635   0.416  11.775 -1.1334 -0.2033 -0.8783
  594TIP3    H223274   3.642   0.565  11.750  1.6467 -0.0173  0.5597
  595TIP3   OH223275   4.327   3.202  12.761  0.4410  0.0142  0.0401
  595TIP3    H123276   4.247   3.240  12.799 -0.6583 -1.5300 -0.6414
  595TIP3    H223277   4.334   3.116  12.801  1.0504 -0.3697 -0.8692
  596TIP3   OH223278   3.460   5.702   1.719 -0.4687 -0.0419 -0.2940
  596TIP3    H123279   3.484   5.658   1.638 -0.2889 -0.8418  0.1841
  596TIP3    H223280   3.503   5.788   1.714 -0.7387  0.0516 -1.1857
  597TIP3   OH223281   3.292   0.901   0.537 -0.1648  0.2025 -0.1577
  597TIP3    H123282   3.381   0.935   0.552 -0.7219  1.4710  0.3687
  597TIP3    H223283   3.234   0.970   0.569 -1.3596 -0.3471 -1.0781
  598TIP3   OH223284   5.369   5.193  14.898  0.1573 -0.3147  0.2736
  598TIP3    H123285   5.387   5.233  14.983  0.9031 -0.6061  0.2536
  598TIP3    H223286   5.287   5.234  14.870  1.2233  1.7377 -0.0643
  599TIP3   OH223287   4.983   2.673   1.803  0.0366  0.0181 -0.2227
  599TIP3    H123288   5.075   2.655   1.821 -0.4022 -0.1629  2.2118
  599TIP3    H223289   4.943   2.680   1.890 -2.2786 -0.0919 -1.2181
  600TIP3   OH223290   2.638   5.996   1.780  0.2280 -0.4560 -1.0639
  600TIP3    H123291   2.563   5.971   1.725 -1.1526 -0.2422  0.6230
  600TIP3    H223292   2.660   5.916   1.828  0.7050 -0.3553 -1.1128
  601TIP3   OH223293   4.309   0.973  15.736 -0.3687  0.3648 -0.1183
  601TIP3    H123294   4.279   1.062  15.716 -1.7504  0.5562  2.3574
  601TIP3    H223295   4.371   0.983  15.808 -0.8919 -0.6700  0.5130
  602TIP3   OH223296   0.347   0.309  13.850 -0.1447 -0.3172  0.4800
  602TIP3    H123297   0.385   0.374  13.790  0.6827 -0.9505  0.3037
  602TIP3    H223298   0.313   0.361  13.922 -0.7397  0.4277 -0.3066
  603TIP3   OH223299   1.778   5.125  14.777  0.1529  0.2857 -0.0750
  603TIP3    H123300   1.853   5.082  14.818 -0.5730 -0.7886  0.1726
  603TIP3    H223301   1.733   5.169  14.849 -1.8317 -2.6393  0.6492
  604TIP3   OH223302   2.027   4.850  12.780 -0.1168 -0.7224 -0.4001
  604TIP3    H123303   2.060   4.869  12.692  1.2413 -0.3025  0.1748
  604TIP3    H223304   1.932   4.856  12.772 -0.0013 -0.5414 -1.8050
  605TIP3   OH223305   0.466   1.081   1.312  0.4545  0.4839 -0.5020
  605TIP3    H123306   0.422   1.166   1.319  0.5440  0.4405  0.6854
  605TIP3    H223307   0.556   1.103   1.287  1.0028  0.8943  1.6644
  606TIP3   OH223308   5.353   2.725   4.763 -0.0519 -0.0848  0.1804
  606TIP3    H123309   5.268   2.704   4.801 -0.7906  0.0465 -1.3188
  606TIP3    H223310   5.350   2.819   4.748  0.6840  0.0535  0.8574
  607TIP3   OH223311   2.487   1.269   4.812  0.8117  0.4410  0.5672
  607TIP3    H123312   2.459   1.179   4.794 -0.3822  0.7443  0.8099
  607TIP3    H223313   2.425   1.323   4.764  1.4499  1.1408  0.5214
  608TIP3   OH223314   1.796   0.187   2.078 -0.7638  0.1141  0.0225
  608TIP3    H123315   1.806   0.132   2.001  0.6977 -0.1068  0.3406
  608TIP3    H223316   1.880   0.182   2.123 -0.7312  2.2284  0.3195
  609TIP3   OH223317   3.342   1.972  11.361  0.0917 -1.0722  0.0199
  609TIP3    H123318   3.347   1.949  11.454 -0.8682  3.0833  1.3070
  609TIP3    H223319   3.249   1.965  11.340  0.2984 -1.9350 -0.6565
  610TIP3   OH223320   3.723   0.464   5.206  0.0139 -0.2195  0.0883
  610TIP3    H123321   3.651   0.515   5.168  0.4433 -0.6266 -1.3341
  610TIP3    H223322   3.728   0.493   5.297  0.4623  2.5491 -0.7240
  611TIP3   OH223323   4.303   0.702   0.391 -0.1632  0.7116  0.2671
  611TIP3    H123324   4.283   0.761   0.464 -1.8464 -1.1241  1.3875
  611TIP3    H223325   4.312   0.760   0.316 -1.7661  2.4275  1.3029
  612TIP3   OH223326   6.112   3.076   1.888  0.4358  0.0889 -0.1581
  612TIP3    H123327   6.066   3.013   1.833 -1.1464  0.9062  0.1326
  612TIP3    H223328   6.063   3.075   1.970  1.2272  0.6899  0.3304
  613TIP3   OH223329   0.814   3.422   1.080  0.4244  0.1173  0.4622
  613TIP3    H123330   0.754   3.369   1.027  0.5521  0.4706 -0.0439
  613TIP3    H223331   0.890   3.434   1.024  1.0303 -0.4302  1.1472
  614TIP3   OH223332   1.088   4.557   0.385  0.8443 -0.7844 -0.5342
  614TIP3    H123333   1.171   4.531   0.345  1.8699  0.5367  0.6308
  614TIP3    H223334   1.095   4.528   0.475 -1.0004 -2.7884 -0.9750
  615TIP3   OH223335   6.454   6.536  13.660  0.3472 -0.4522  0.3099
  615TIP3    H123336   6.400   6.614  13.664 -1.3552 -1.1467 -3.9807
  615TIP3    H223337   6.543   6.566  13.680 -0.6450  1.9807  1.3351
  616TIP3   OH223338   0.440   2.324  15.825  0.2335 -0.0777 -0.2604
  616TIP3    H123339   0.524   2.311  15.868  0.6671  0.4950 -0.9037
  616TIP3    H223340   0.399   2.238  15.824  1.1704 -0.5288 -0.6396
  617TIP3   OH223341   6.703   6.310   5.271 -0.0881 -0.1717  0.0773
  617TIP3    H123342   6.695   6.384   5.331 -1.2104  0.6930 -1.0725
  617TIP3    H223343   6.764   6.340   5.204 -0.9110 -0.0832 -0.6508
  618TIP3   OH223344   3.619   6.077  16.083  0.3840 -0.0757 -0.3471
  618TIP3    H123345   3.626   6.172  16.077 -1.0671  0.0926  0.2476
  618TIP3    H223346   3.655   6.055  16.169 -0.3218  0.0830  0.0012
  619TIP3   OH223347   3.575   3.956  14.555 -0.0394  0.0596 -0.7993
  619TIP3    H123348   3.603   3.920  14.471 -0.8271  2.2038 -2.0923
  619TIP3    H223349   3.615   4.043  14.558 -0.4885  0.2396  0.7983
  620TIP3   OH223350   0.286   0.612  13.147 -0.1483 -0.3457 -0.0283
  620TIP3    H123351   0.357   0.665  13.183  0.0761  0.0009 -0.9689
  620TIP3    H223352   0.251   0.565  13.223  0.9068 -0.3245  0.4881
  621TIP3   OH223353   6.444   3.155  12.658  0.0908  0.1921 -0.1330
  621TIP3    H123354   6.382   3.184  12.725 -0.3890  3.0494 -1.6698
  621TIP3    H223355   6.530   3.169  12.698 -0.1643 -1.2227  1.0056
  622TIP3   OH223356   3.177   5.819  15.318  0.0372  0.0080 -0.3607
  622TIP3    H123357   3.133   5.775  15.392 -2.3134  1.5271 -0.7326
  622TIP3    H223358   3.229   5.888  15.359 -0.2998  0.0806 -0.0479
  623TIP3   OH223359   4.732   3.579   0.462  0.3992 -0.1862  0.3089
  623TIP3    H123360   4.798   3.599   0.529 -1.0799  0.9240  1.5147
  623TIP3    H223361   4.702   3.490   0.484  1.4513 -0.6993 -0.2504
  624TIP3   OH223362   0.436   3.798  16.707  0.3190 -0.3040  0.2722
  624TIP3    H123363   0.439   3.887  16.740 -0.5986  0.3835 -1.3940
  624TIP3    H223364   0.454   3.806  16.613 -1.7175 -1.6134 -0.3007
  625TIP3   OH223365   2.340   6.712   3.304  0.0762  0.3556  0.4908
  625TIP3    H123366   2.377   6.634   3.263  0.9778  0.3900  1.2102
  625TIP3    H223367   2.406   6.780   3.291 -0.5563  0.9181  0.1670
  626TIP3   OH223368   0.782   4.398  14.189 -0.4955 -0.4143 -0.0785
  626TIP3    H123369   0.873   4.366  14.189 -0.2122  0.2784 -1.8365
  626TIP3    H223370   0.729   4.319  14.203  0.3576 -0.7347  1.6906
  627TIP3   OH223371   4.982   3.016  16.776 -0.3412 -0.0648 -0.2454
  627TIP3    H123372   4.922   2.942  16.787 -2.8397  2.0087  1.2867
  627TIP3    H223373   5.010   3.038  16.865  0.5428  0.7016 -0.6880
  628TIP3   OH223374   3.169   3.476  12.537  0.1136 -0.4975 -0.7364
  628TIP3    H123375   3.210   3.390  12.540 -2.3686 -1.7205  1.0108
  628TIP3    H223376   3.093   3.465  12.481 -2.2348 -0.5199  2.2170
  629TIP3   OH223377   1.358   3.464  11.180 -0.1794  0.3882  0.2978
  629TIP3    H123378   1.297   3.491  11.249 -1.7108  0.9273 -1.1828
  629TIP3    H223379   1.301   3.445  11.105  1.3309 -1.3995 -0.4585
  630TIP3   OH223380   3.162   6.533  12.615  0.3990  0.6861  0.2732
  630TIP3    H123381   3.181   6.587  12.538 -1.6210 -0.2495 -0.9448
  630TIP3    H223382   3.162   6.443  12.583 -0.8097  0.2920  1.2751
  631TIP3   OH223383   0.792   0.306  16.515  0.6823  0.5309 -0.2155
  631TIP3    H123384   0.788   0.305  16.419  1.1166 -0.4914 -0.2356
  631TIP3    H223385   0.823   0.219  16.539  1.6734  1.1367  0.8128
  632TIP3   OH223386   2.422   2.904   0.346 -0.1349  0.1842 -0.0174
  632TIP3    H123387   2.426   2.903   0.250 -0.1962 -2.0505 -0.0543
  632TIP3    H223388   2.511   2.928   0.373  0.1987 -0.2792 -0.6581
  633TIP3   OH223389   2.188   6.758   4.700 -0.2963 -0.2086 -0.3867
  633TIP3    H123390   2.111   6.814   4.693  1.1356  2.0563  0.5913
  633TIP3    H223391   2.240   6.778   4.622 -0.7933 -1.9856 -1.2241
  634TIP3   OH223392   4.045   2.539  16.291  0.7752  0.1475 -0.1709
  634TIP3    H123393   4.077   2.587  16.367 -1.5611  0.4256  0.7398
  634TIP3    H223394   4.083   2.452  16.300  1.8151  0.6400  0.4084
  635TIP3   OH223395   2.620   5.123  14.914  0.0687  0.3317 -0.1043
  635TIP3    H123396   2.602   5.150  14.824 -0.6876 -1.1533 -0.4289
  635TIP3    H223397   2.552   5.165  14.966 -0.6727 -0.3522 -0.5040
  636TIP3   OH223398   0.580   0.084   4.189  0.7273 -0.1290 -0.1985
  636TIP3    H123399   0.618   0.083   4.102  1.5863 -2.1516  0.1367
  636TIP3    H223400   0.520   0.010   4.190  0.5355  0.0202  0.8336
  637TIP3   OH223401   2.658   0.946  17.113 -0.0810  0.3040  0.5946
  637TIP3    H123402   2.722   1.014  17.132 -1.1465  1.9354 -1.2686
  637TIP3    H223403   2.649   0.898  17.195  1.0097  2.1666  1.8831
  638TIP3   OH223404   0.704   6.154   4.418 -0.5978  0.0321  0.3164
  638TIP3    H123405   0.653   6.121   4.344 -0.3377  0.8862 -0.2553
  638TIP3    H223406   0.673   6.104   4.493  0.8493 -2.6379 -0.7247
  639TIP3   OH223407   6.525   3.451   5.602 -0.4749  0.2257  0.3534
  639TIP3    H123408   6.513   3.518   5.669 -1.8652  0.7047 -0.3400
  639TIP3    H223409   6.616   3.423   5.612 -0.1563  1.5165  1.2948
  640TIP3   OH223410   5.710   6.164   0.336 -0.0379 -0.8343  0.6506
  640TIP3    H123411   5.635   6.213   0.303 -0.2652 -1.7216 -0.1892
  640TIP3    H223412   5.785   6.199   0.287 -0.4801 -2.7209 -1.5742
  641TIP3   OH223413   2.877   5.806   0.048  0.0431 -0.1709  0.7452
  641TIP3    H123414   2.829   5.734   0.007 -0.4596 -0.3402  1.6100
  641TIP3    H223415   2.852   5.802   0.140  0.7328  0.5408  0.9716
  642TIP3   OH223416   1.964   1.901  14.010 -0.2455  0.3034 -0.4287
  642TIP3    H123417   1.937   1.811  13.991 -1.8226 -0.0511  2.8874
  642TIP3    H223418   1.977   1.940  13.924  1.0213 -3.1872 -2.0265
  643TIP3   OH223419   5.718   0.303  14.663  0.3292 -0.1612 -0.0696
  643TIP3    H123420   5.703   0.397  14.673  0.7513 -0.0320 -0.6545
  643TIP3    H223421   5.678   0.265  14.741  1.3660  0.6216  0.8737
  644TIP3   OH223422   5.456   4.924  13.620  0.2035 -0.2944  0.3529
  644TIP3    H123423   5.542   4.886  13.638 -0.4309 -1.6534  0.6644
  644TIP3    H223424   5.443   4.908  13.526 -0.4378 -1.7445  0.6525
  645TIP3   OH223425   4.005   1.722  16.971  0.3245 -0.2945  0.0374
  645TIP3    H123426   4.074   1.777  16.935 -0.1930 -0.6879 -1.6306
  645TIP3    H223427   3.937   1.783  16.999  0.2466 -0.0286 -0.7252
  646TIP3   OH223428   6.381   1.120  12.793 -0.0151  0.4446  0.2498
  646TIP3    H123429   6.366   1.070  12.713 -2.4621 -0.3251  1.1016
  646TIP3    H223430   6.306   1.178  12.800  1.6923  2.7759  0.4419
  647TIP3   OH223431   2.473   2.102  13.035 -0.4417  1.2323 -0.2809
  647TIP3    H123432   2.414   2.103  13.110 -0.0792  4.8845  0.1468
  647TIP3    H223433   2.557   2.075  13.071 -1.0693 -0.9356 -0.2791
  648TIP3   OH223434   1.625   6.478  16.881 -1.0034 -0.3390 -0.2010
  648TIP3    H123435   1.567   6.410  16.845 -0.9977  0.1169 -1.1182
  648TIP3    H223436   1.698   6.482  16.820 -0.4531 -0.2802  0.4572
  649TIP3   OH223437   0.454   0.554  11.687 -0.5193  0.0484 -0.1976
  649TIP3    H123438   0.453   0.464  11.721  0.8296  0.2504  0.4507
  649TIP3    H223439   0.364   0.570  11.659 -0.7294 -1.6061 -0.6109
  650TIP3   OH223440   5.204   0.427  12.957 -0.0824  0.1881  0.1495
  650TIP3    H123441   5.246   0.513  12.948  0.8905 -0.3530 -0.6817
  650TIP3    H223442   5.252   0.371  12.897 -2.5064 -0.3190 -1.4257
  651TIP3   OH223443   4.208   5.235  15.799 -0.2774 -0.0779  0.0577
  651TIP3    H123444   4.234   5.284  15.720 -1.2488  1.4252  0.6204
  651TIP3    H223445   4.279   5.251  15.861 -0.3240  0.1523  0.0526
  652TIP3   OH223446   0.974   2.508   2.375  0.3490 -0.4311  1.1932
  652TIP3    H123447   0.897   2.459   2.347  1.2462 -2.1885  1.6271
  652TIP3    H223448   1.047   2.467   2.328  0.9503  1.8453 -0.0100
  653TIP3   OH223449   1.886   5.520   1.999  0.2491 -0.1253  0.5523
  653TIP3    H123450   1.791   5.522   1.987  0.4487 -0.4841 -1.3308
  653TIP3    H223451   1.909   5.610   2.020 -0.4000  0.1480  0.1324
  654TIP3   OH223452   2.706   3.149  14.926 -0.0565  0.2097 -0.0683
  654TIP3    H123453   2.624   3.163  14.879 -0.0909  0.4385  0.0571
  654TIP3    H223454   2.747   3.235  14.929 -0.4205  0.3677  1.0034
  655TIP3   OH223455   4.096   2.083  16.482  0.2670 -0.3625 -0.4206
  655TIP3    H123456   4.087   2.001  16.531  1.3239 -0.4611 -0.3858
  655TIP3    H223457   4.182   2.078  16.442  1.2014  1.5679  1.1537
  656TIP3   OH223458   6.700   0.411   0.317  0.1375  0.2291 -0.3413
  656TIP3    H123459   6.657   0.361   0.248  1.3399  0.1005 -1.0240
  656TIP3    H223460   6.642   0.402   0.393 -0.5574 -0.7157 -0.9591
  657TIP3   OH223461   2.022   1.250   3.755  0.0105 -0.4647  0.0497
  657TIP3    H123462   2.068   1.332   3.739  1.0785 -1.2141 -0.9136
  657TIP3    H223463   2.091   1.190   3.785 -0.5654 -1.2781 -0.2152
  658TIP3   OH223464   1.534   5.512   3.115  0.0530  0.1257 -0.2000
  658TIP3    H123465   1.588   5.564   3.176  1.1574  0.4531 -1.4010
  658TIP3    H223466   1.543   5.422   3.146  0.3646  0.3183  0.2902
  659TIP3   OH223467   1.182   6.271  13.461 -0.2085 -0.4625 -0.0150
  659TIP3    H123468   1.278   6.276  13.454 -0.3040  0.4175 -1.0321
  659TIP3    H223469   1.151   6.303  13.376 -1.4107 -0.6872  0.3290
  660TIP3   OH223470   3.533   1.282   2.937  0.5222  0.3613  0.9595
  660TIP3    H123471   3.454   1.264   2.989  0.2670 -0.9109  0.1789
  660TIP3    H223472   3.593   1.325   2.999 -0.6844  1.1496  1.6211
  661TIP3   OH223473   1.640   1.627   3.174 -0.4814  0.1049  0.1156
  661TIP3    H123474   1.674   1.706   3.216 -0.7750 -0.1523  0.8545
  661TIP3    H223475   1.700   1.611   3.101  0.4358  0.2028  0.8231
  662TIP3   OH223476   2.896   5.448  13.102  0.7885  0.2470 -0.2825
  662TIP3    H123477   2.829   5.454  13.170  0.0649  2.1936 -1.0862
  662TIP3    H223478   2.848   5.446  13.020  1.6798 -1.0952 -0.8022
  663TIP3   OH223479   1.252   6.586   3.949 -0.5685 -0.3425 -0.3323
  663TIP3    H123480   1.226   6.634   3.871  0.2215 -0.0249 -0.4019
  663TIP3    H223481   1.339   6.620   3.971 -1.0051 -0.0209  1.0023
  664TIP3   OH223482   5.467   2.341   2.692  0.1184 -0.2293 -0.2525
  664TIP3    H123483   5.542   2.304   2.739 -0.6692 -0.1982  1.0756
  664TIP3    H223484   5.392   2.291   2.723 -0.4815  0.0823 -1.1796
  665TIP3   OH223485   4.349   6.172  15.159 -0.4313 -0.0288 -0.2762
  665TIP3    H123486   4.405   6.124  15.220  0.1511 -1.5770 -1.9513
  665TIP3    H223487   4.263   6.173  15.201 -0.4666 -2.5729 -0.1398
  666TIP3   OH223488   2.146   6.442  12.726  0.6745 -0.1570  0.8607
  666TIP3    H123489   2.087   6.510  12.758  2.3107  0.6541  2.3463
  666TIP3    H223490   2.122   6.364  12.777 -1.0699 -0.7114 -0.7055
  667TIP3   OH223491   5.002   2.896   5.925 -0.4104 -0.0937 -0.2627
  667TIP3    H123492   5.047   2.888   6.009 -0.7224  2.4071  0.2180
  667TIP3    H223493   5.067   2.934   5.866 -0.9227  0.5096 -0.4475
  668TIP3   OH223494   6.439   6.651  11.596  0.1586 -0.3707 -0.2912
  668TIP3    H123495   6.440   6.645  11.692  0.5794 -2.2209 -0.3861
  668TIP3    H223496   6.349   6.627  11.572  0.3804 -1.0664 -0.4223
  669TIP3   OH223497   1.548   6.402   0.611 -0.5092 -0.2371  0.3103
  669TIP3    H123498   1.505   6.327   0.570  0.1357 -0.4075 -0.0751
  669TIP3    H223499   1.481   6.470   0.613 -1.5724 -1.2642  1.9955
  670TIP3   OH223500   3.380   4.434  10.800 -0.4769 -0.4581  0.1899
  670TIP3    H123501   3.449   4.401  10.858  0.2777  0.9424  0.1359
  670TIP3    H223502   3.397   4.528  10.795 -2.0999 -0.1714 -0.2478
  671TIP3   OH223503   1.461   4.302  15.273  0.4302 -0.3409  0.8229
  671TIP3    H123504   1.479   4.321  15.181 -1.0649  2.4565  1.0114
  671TIP3    H223505   1.548   4.289  15.312  1.0977 -1.4054 -0.8750
  672TIP3   OH223506   2.072   5.221   4.026 -0.3128  0.2555  0.2154
  672TIP3    H123507   1.986   5.263   4.024 -0.6314 -0.3605  0.7053
  672TIP3    H223508   2.053   5.127   4.028  0.3888  0.0255 -1.7475
  673TIP3   OH223509   4.010   2.904   0.892 -0.2748 -0.0925  0.4768
  673TIP3    H123510   3.927   2.951   0.889  0.0691  0.7155  2.3422
  673TIP3    H223511   4.064   2.946   0.825  0.1808  2.5670  2.3705
  674TIP3   OH223512   5.221   1.806   1.019  0.1481  0.0019 -0.0344
  674TIP3    H123513   5.290   1.849   1.070 -0.2523  0.7173 -0.0748
  674TIP3    H223514   5.151   1.791   1.083 -0.3265  0.8321 -0.3476
  675TIP3   OH223515   3.302   6.054  16.679  0.3884 -0.4547  0.4179
  675TIP3    H123516   3.252   6.067  16.759 -0.6571  1.7591 -0.5305
  675TIP3    H223517   3.363   6.127  16.676  1.1217 -1.0710 -0.3247
  676TIP3   OH223518   2.996   3.172  11.024  0.1280  0.5224 -0.1948
  676TIP3    H123519   2.993   3.099  11.085 -1.7020  0.1776 -0.6465
  676TIP3    H223520   2.948   3.242  11.067  1.4771  1.3342  0.0366
  677TIP3   OH223521   6.415   1.753   0.089 -0.2715 -0.0149  0.1264
  677TIP3    H123522   6.368   1.696   0.029 -2.2949  1.7382 -0.0533
  677TIP3    H223523   6.392   1.842   0.062  1.5166  0.9029  1.3631
  678TIP3   OH223524   2.148   4.377   2.316  0.1452  0.3919 -0.3037
  678TIP3    H123525   2.080   4.364   2.250 -0.9405 -0.8324  0.9691
  678TIP3    H223526   2.146   4.471   2.334 -2.2440  0.2271  0.6801
  679TIP3   OH223527   0.447   1.983   5.645 -0.3407 -0.8758 -0.6283
  679TIP3    H123528   0.388   1.969   5.719  1.3701 -0.0132  0.9919
  679TIP3    H223529   0.414   2.061   5.602  0.2634  0.3611  1.0325
  680TIP3   OH223530   4.305   1.583  10.858 -0.1354  0.4861 -0.0239
  680TIP3    H123531   4.246   1.535  10.916 -0.5076 -0.1449 -0.9015
  680TIP3    H223532   4.352   1.515  10.810  0.2993  0.9992 -0.3336
  681TIP3   OH223533   2.683   2.508  11.149  0.1920  0.0920  0.0117
  681TIP3    H123534   2.709   2.564  11.222 -1.3160  1.2227 -0.2722
  681TIP3    H223535   2.640   2.433  11.190  0.4819  0.0905  0.3176
  682TIP3   OH223536   5.007   5.091  16.922 -0.5201 -0.2121  0.0137
  682TIP3    H123537   4.911   5.089  16.925 -0.5779  0.5644 -0.9118
  682TIP3    H223538   5.032   5.149  16.994 -0.7128 -0.7572  0.5313
  683TIP3   OH223539   1.695   1.165   3.188  0.4516  0.3534  0.2934
  683TIP3    H123540   1.608   1.125   3.188  1.2581 -1.7198  2.6874
  683TIP3    H223541   1.688   1.238   3.250  0.0192  1.3357 -0.8804
  684TIP3   OH223542   0.149   1.105  14.931 -0.3044  0.3221 -0.5893
  684TIP3    H123543   0.219   1.064  14.982 -0.9083  0.9641  0.7940
  684TIP3    H223544   0.194   1.151  14.861  0.5816 -0.0918 -0.3036
  685TIP3   OH223545   4.073   3.689   4.304 -0.1547  0.3732 -0.1890
  685TIP3    H123546   4.009   3.694   4.233 -0.1584  0.6322 -0.1654
  685TIP3    H223547   4.026   3.645   4.375 -0.0626 -0.1492 -0.4416
  686TIP3   OH223548   5.695   6.281   1.683  0.4109  0.2142 -0.1368
  686TIP3    H123549   5.616   6.333   1.671  0.0598 -0.0701  0.8469
  686TIP3    H223550   5.752   6.307   1.610 -0.0048  1.4853 -0.0313
  687TIP3   OH223551   4.617   0.253   3.476 -0.2322 -0.0560  0.9944
  687TIP3    H123552   4.557   0.191   3.434 -0.6761  0.3678  0.9826
  687TIP3    H223553   4.612   0.232   3.569  0.8335 -1.0669  0.8396
  688TIP3   OH223554   5.432   1.086   3.304 -0.0175 -0.4246  0.0771
  688TIP3    H123555   5.495   1.016   3.287  1.8815  0.8066  1.6825
  688TIP3    H223556   5.447   1.149   3.233  1.3615  0.3720  1.0506
  689TIP3   OH223557   1.612   6.663  15.204  0.1109  0.8438  0.1618
  689TIP3    H123558   1.626   6.573  15.231 -1.4800  0.4900 -0.0447
  689TIP3    H223559   1.637   6.716  15.279 -0.1810  0.1409  0.7567
  690TIP3   OH223560   4.964   0.453   4.218 -0.4092 -0.4510 -0.6744
  690TIP3    H123561   5.027   0.523   4.233  1.3952 -2.0860 -0.2432
  690TIP3    H223562   4.979   0.426   4.128 -1.8686  0.3984 -1.2033
  691TIP3   OH223563   3.755   5.164  15.075  0.2190 -0.3752  0.0845
  691TIP3    H123564   3.714   5.178  14.990  0.6513  0.8361  0.0458
  691TIP3    H223565   3.849   5.159  15.055  0.3832  0.5674  0.5311
  692TIP3   OH223566   3.162   0.229   1.481 -0.3005  0.1122  0.4350
  692TIP3    H123567   3.111   0.308   1.463 -0.2306  0.3832  1.4117
  692TIP3    H223568   3.170   0.226   1.576 -0.5785 -1.2475  0.4352
  693TIP3   OH223569   4.143   1.242  16.054 -0.2770 -0.1872  0.3724
  693TIP3    H123570   4.057   1.216  16.086 -0.2322  0.7486  1.3156
  693TIP3    H223571   4.202   1.223  16.127  0.0892  0.4344  0.2483
  694TIP3   OH223572   0.854   5.879  15.500  0.1414 -0.0459  0.1912
  694TIP3    H123573   0.872   5.875  15.594  0.4056 -2.3925  0.0973
  694TIP3    H223574   0.869   5.790  15.469 -0.9135  0.4465 -1.9113
  695TIP3   OH223575   3.892   5.932   2.206 -0.0658  0.4785 -0.1989
  695TIP3    H123576   3.969   5.917   2.150  0.9847  1.1982  1.0046
  695TIP3    H223577   3.924   5.989   2.275 -1.0196 -1.2653  1.7796
  696TIP3   OH223578   5.938   5.505   1.658  0.1199  0.9414  0.3842
  696TIP3    H123579   5.979   5.423   1.629  1.0332  2.4270 -3.1095
  696TIP3    H223580   5.993   5.535   1.731  0.0955 -1.2176  1.3547
  697TIP3   OH223581   3.658   6.772   1.789  0.5401 -0.2887  0.0548
  697TIP3    H123582   3.564   6.787   1.787  0.8671  2.0451 -0.2218
  697TIP3    H223583   3.682   6.752   1.698  0.4273 -0.1554 -0.0024
  698TIP3   OH223584   0.612   2.842   0.645  0.5896  0.0044 -0.1909
  698TIP3    H123585   0.518   2.825   0.640  0.8863 -1.5651 -0.8404
  698TIP3    H223586   0.622   2.929   0.606 -0.6611  0.4961  0.5290
  699TIP3   OH223587   1.265   2.972  14.722 -0.8073  0.1068  0.3570
  699TIP3    H123588   1.243   3.056  14.682  0.6787  0.0789 -0.5679
  699TIP3    H223589   1.227   2.977  14.810 -1.9595  1.1603 -0.1698
  700TIP3   OH223590   4.732   6.745  12.304  0.0854 -0.2414 -0.0537
  700TIP3    H123591   4.656   6.759  12.249 -0.0509 -2.0606 -0.4125
  700TIP3    H223592   4.804   6.732  12.243  0.3291 -0.2929  0.2393
  701TIP3   OH223593   0.102   2.706  13.888 -0.2759 -0.4458 -0.6747
  701TIP3    H123594   0.187   2.670  13.863 -1.1248 -3.2333  0.0586
  701TIP3    H223595   0.052   2.710  13.807  0.3629  0.7264 -1.0273
  702TIP3   OH223596   5.454   5.475   0.442  0.4360  0.3121  0.3345
  702TIP3    H123597   5.385   5.466   0.509  0.1621  2.2210  0.3741
  702TIP3    H223598   5.515   5.403   0.461 -0.3606 -0.0409  1.7575
  703TIP3   OH223599   2.439   3.523   3.222 -0.5547 -0.1199  0.3079
  703TIP3    H123600   2.510   3.525   3.158 -1.0579 -1.4091 -0.3327
  703TIP3    H223601   2.476   3.563   3.301  1.4849 -2.3065  0.5769
  704TIP3   OH223602   2.990   0.238  16.581  0.0349 -0.0639  0.5054
  704TIP3    H123603   2.964   0.191  16.660  1.9903 -2.3412 -0.1114
  704TIP3    H223604   2.908   0.272  16.546 -0.9612  0.6036  3.1872
  705TIP3   OH223605   1.088   1.006   3.660 -0.3536 -0.6086  0.3871
  705TIP3    H123606   1.168   0.992   3.608 -0.3558 -0.1460  0.2621
  705TIP3    H223607   1.017   0.998   3.597 -0.4000 -0.8016  0.4605
  706TIP3   OH223608   6.458   4.498   2.782 -0.9754  0.2474  0.2638
  706TIP3    H123609   6.530   4.547   2.743 -0.5575 -1.1103 -0.7665
  706TIP3    H223610   6.383   4.557   2.777 -0.3174  1.0556 -0.2384
  707TIP3   OH223611   1.162   0.425  10.695 -0.4315 -0.6382  0.2875
  707TIP3    H123612   1.167   0.376  10.777 -2.3531 -0.5233  0.5104
  707TIP3    H223613   1.125   0.363  10.632  1.5984 -0.9276 -0.7161
  708TIP3   OH223614   0.287   3.922  11.297 -0.1880  0.2131 -0.2407
  708TIP3    H123615   0.321   3.853  11.241  0.0156  0.0913  0.0279
  708TIP3    H223616   0.358   3.986  11.303  0.3632 -0.4823  1.0610
  709TIP3   OH223617   2.066   4.659   0.529 -0.3903 -0.1355  0.1090
  709TIP3    H123618   2.104   4.685   0.445 -0.6362  0.6080  0.2253
  709TIP3    H223619   2.106   4.574   0.547  0.2835  0.0695 -0.3640
  710TIP3   OH223620   4.333   3.738  12.087  0.0431  0.6396  0.4292
  710TIP3    H123621   4.329   3.790  12.007  0.0673  1.7683  1.1494
  710TIP3    H223622   4.262   3.675  12.079  1.0713 -0.3750 -1.2335
  711TIP3   OH223623   5.986   3.043  10.693  0.2092  0.3238 -0.0572
  711TIP3    H123624   5.924   3.016  10.624  0.4264 -0.6343  0.1138
  711TIP3    H223625   6.072   3.032  10.653  0.3759 -0.9734  0.5908
  712TIP3   OH223626   5.290   5.977   2.891  0.6913  0.2414  0.2815
  712TIP3    H123627   5.260   5.991   2.801 -1.3711  2.9776  1.2583
  712TIP3    H223628   5.249   5.894   2.917 -0.9548  0.7629 -0.4892
  713TIP3   OH223629   6.641   4.062   1.883  0.5411  0.4220 -0.2554
  713TIP3    H123630   6.555   4.020   1.873  0.3036  0.5148  1.1252
  713TIP3    H223631   6.662   4.051   1.976  1.0186  2.3182 -0.0981
  714TIP3   OH223632   0.336   1.557   6.199  0.1235 -0.2306 -0.2344
  714TIP3    H123633   0.268   1.499   6.233 -0.2924  0.7141  0.5719
  714TIP3    H223634   0.368   1.605   6.275  2.1824 -1.1072 -0.4567
  715TIP3   OH223635   0.613   1.869   4.690  0.4523  0.2878  0.2652
  715TIP3    H123636   0.672   1.863   4.615  0.3342  0.9173  0.1157
  715TIP3    H223637   0.574   1.956   4.683  0.2981  0.2810  0.9530
  716TIP3   OH223638   2.938   0.708   5.034 -0.5214 -0.4882  0.3595
  716TIP3    H123639   2.996   0.782   5.053 -1.7174  0.5154  0.2486
  716TIP3    H223640   2.877   0.741   4.968 -2.3220 -0.9045  1.7145
  717TIP3   OH223641   1.281   3.506   3.235  0.6072 -0.5881  0.2272
  717TIP3    H123642   1.292   3.411   3.231 -0.2081 -0.6698 -0.7383
  717TIP3    H223643   1.348   3.540   3.176  0.8539 -0.5715  0.5188
  718TIP3   OH223644   3.704   4.970   4.995  0.1939 -0.1555 -0.3601
  718TIP3    H123645   3.693   5.063   5.016  1.1589  0.0001 -0.4930
  718TIP3    H223646   3.628   4.928   5.035  0.3422  0.5456  0.7275
  719TIP3   OH223647   2.681   0.760   2.766 -0.6212 -0.3005  0.5016
  719TIP3    H123648   2.612   0.813   2.726  0.3592  0.9379  0.4280
  719TIP3    H223649   2.719   0.816   2.833 -0.4665 -1.4113  1.3794
  720TIP3   OH223650   0.731   6.763  11.910  0.3311  0.2758 -0.0449
  720TIP3    H123651   0.763   6.846  11.947  1.4006 -0.2306  0.1997
  720TIP3    H223652   0.647   6.786  11.869  0.5916  1.4672  0.0517
  721TIP3   OH223653   3.375   6.558  13.784  0.0405  0.1471  0.0639
  721TIP3    H123654   3.364   6.496  13.713  0.5120  0.5120 -0.3350
  721TIP3    H223655   3.372   6.644  13.742  2.1188  0.3433  0.1865
  722TIP3   OH223656   5.841   3.380  15.172 -0.1246  0.0238  0.1709
  722TIP3    H123657   5.878   3.439  15.237  1.0091 -2.6543  2.1763
  722TIP3    H223658   5.911   3.318  15.154 -0.8348 -0.0390 -2.7808
  723TIP3   OH223659   2.571   2.396  13.905  0.0890 -0.4973  0.1139
  723TIP3    H123660   2.548   2.304  13.895  0.1669 -0.7327  1.7806
  723TIP3    H223661   2.500   2.444  13.863  0.3417 -1.3055 -1.2949
  724TIP3   OH223662   4.116   6.727   1.366 -0.0318 -0.5505  0.4830
  724TIP3    H123663   4.027   6.705   1.338  0.3228  0.8113 -2.0567
  724TIP3    H223664   4.105   6.804   1.421 -0.4631 -0.7431  0.6697
  725TIP3   OH223665   1.742   4.673   4.810  0.3875  0.3485  0.2431
  725TIP3    H123666   1.724   4.762   4.780  1.0005  0.3254 -0.2039
  725TIP3    H223667   1.688   4.663   4.889 -0.7207  0.6387 -0.4553
  726TIP3   OH223668   6.453   1.376   5.659 -0.2901 -0.1657 -0.6375
  726TIP3    H123669   6.427   1.374   5.751  0.8567  0.3223 -0.2756
  726TIP3    H223670   6.544   1.347   5.660 -0.4772 -0.8507 -1.7168
  727TIP3   OH223671   2.560   3.596  13.532 -0.7072 -0.1619  0.4827
  727TIP3    H123672   2.488   3.641  13.576 -1.6787  0.1122 -1.2933
  727TIP3    H223673   2.605   3.665  13.483 -0.0515 -0.5636  0.5064
  728TIP3   OH223674   0.861   0.419   4.507  0.4354 -0.2703 -0.2402
  728TIP3    H123675   0.939   0.428   4.452  0.7006  0.3823  0.2221
  728TIP3    H223676   0.823   0.335   4.482  2.3558 -1.5508  0.8801
  729TIP3   OH223677   6.267   5.128  14.846 -0.1136 -0.0108 -0.2110
  729TIP3    H123678   6.183   5.094  14.816 -0.4802  0.3769  0.3540
  729TIP3    H223679   6.317   5.050  14.871  0.0426 -0.3103 -1.3964
  730TIP3   OH223680   3.512   3.621   3.890  0.3704  0.0116  0.4738
  730TIP3    H123681   3.477   3.658   3.809  0.5900 -0.6723  0.0604
  730TIP3    H223682   3.436   3.581   3.932  0.3734 -0.1852  0.2951
  731TIP3   OH223683   4.520   6.414  15.418  0.6793  1.1936 -0.0781
  731TIP3    H123684   4.477   6.406  15.503  1.6577 -0.7542  0.2832
  731TIP3    H223685   4.580   6.340  15.414  0.6911  1.2582 -2.4616
  732TIP3   OH223686   3.603   0.793  15.640 -0.4091 -0.2474 -0.5824
  732TIP3    H123687   3.558   0.851  15.578  1.3445  2.2126  0.2919
  732TIP3    H223688   3.661   0.851  15.690  0.5126 -2.5949  1.2831
  733TIP3   OH223689   2.600   2.685  15.040  0.1650  0.0513  0.8657
  733TIP3    H123690   2.669   2.739  15.078  0.2510 -0.2595  1.1516
  733TIP3    H223691   2.624   2.678  14.948  0.1527  0.4979  0.8231
  734TIP3   OH223692   6.000   1.855  16.203 -0.7969  0.0423 -0.4811
  734TIP3    H123693   5.962   1.782  16.252 -0.3172 -0.7086 -1.1979
  734TIP3    H223694   6.054   1.813  16.136  0.9571  1.0497  0.2210
  735TIP3   OH223695   3.069   3.618   1.380 -0.5834 -0.1030  0.7725
  735TIP3    H123696   3.083   3.559   1.454  0.9597 -1.5014 -0.5563
  735TIP3    H223697   3.061   3.560   1.304  0.7362  1.3452 -0.5648
  736TIP3   OH223698   3.510   5.391  15.039 -0.3127 -0.5926 -0.2024
  736TIP3    H123699   3.530   5.350  15.123  0.4626 -0.0777 -0.1250
  736TIP3    H223700   3.477   5.319  14.984 -1.7795 -0.7615  0.8211
  737TIP3   OH223701   6.766   6.013   3.776  0.6278 -0.4454 -0.0098
  737TIP3    H123702   6.727   5.937   3.818 -0.1658 -1.2067 -2.0019
  737TIP3    H223703   6.846   5.979   3.736  0.1937 -0.3044 -1.0311
  738TIP3   OH223704   0.196   5.555   4.247  0.4996 -0.5103  0.1339
  738TIP3    H123705   0.120   5.513   4.207 -0.4547  0.2997  1.0302
  738TIP3    H223706   0.167   5.644   4.267  2.6083  0.8050 -2.1083
  739TIP3   OH223707   5.855   0.110  15.648 -0.1112 -0.3369  0.4864
  739TIP3    H123708   5.923   0.114  15.715  1.1253 -0.7303 -0.7101
  739TIP3    H223709   5.885   0.043  15.587 -0.8844  0.4399 -0.7955
  740TIP3   OH223710   3.016   6.307   3.589 -0.1986 -0.0146 -0.3902
  740TIP3    H123711   2.983   6.239   3.647  1.4716 -0.5276  0.0169
  740TIP3    H223712   3.061   6.369   3.647 -2.4042  1.9728 -0.6347
  741TIP3   OH223713   0.208   4.148   0.573 -0.0112 -0.0732  0.3155
  741TIP3    H123714   0.288   4.150   0.520  0.2067  0.6354  0.6638
  741TIP3    H223715   0.188   4.054   0.581  0.6216 -0.2459 -0.0161
  742TIP3   OH223716   2.677   6.489   3.823 -0.4140 -0.6025  0.4236
  742TIP3    H123717   2.707   6.529   3.741  0.5133 -3.0375 -0.5061
  742TIP3    H223718   2.657   6.564   3.880  1.0415  1.1682 -1.2474
  743TIP3   OH223719   2.011   4.209   3.760  0.4394 -0.0788 -0.3068
  743TIP3    H123720   2.009   4.303   3.743  0.9976  0.4337  2.0971
  743TIP3    H223721   1.925   4.189   3.795  0.9544 -0.0169  1.0621
  744TIP3   OH223722   2.821   6.373   4.091  0.6797 -0.1737  0.1271
  744TIP3    H123723   2.821   6.463   4.123  0.0317 -0.8274  2.1333
  744TIP3    H223724   2.744   6.366   4.035  0.7570  0.5111 -0.0661
  745TIP3   OH223725   4.346   3.343  17.113 -0.0587 -0.3352 -0.0560
  745TIP3    H123726   4.427   3.378  17.077  0.7023 -2.4570 -0.5737
  745TIP3    H223727   4.356   3.351  17.208 -0.0542  1.0565 -0.1596
  746TIP3   OH223728   3.658   4.819   1.448 -0.5103 -0.2518  0.7284
  746TIP3    H123729   3.612   4.800   1.367 -0.8464  0.7480  0.6729
  746TIP3    H223730   3.609   4.772   1.516 -2.3616  1.7216  0.8477
  747TIP3   OH223731   5.074   6.780  12.027  0.3106  0.3611 -0.0959
  747TIP3    H123732   5.106   6.802  12.114  0.0178  1.9347 -0.3570
  747TIP3    H223733   5.052   6.864  11.987  1.1714 -0.2592 -1.9812
  748TIP3   OH223734   5.065   5.661  13.044  0.2897  0.5764 -0.5736
  748TIP3    H123735   5.046   5.570  13.022 -2.8582  0.5316  1.7106
  748TIP3    H223736   5.063   5.707  12.960 -1.4206 -0.9814 -1.4571
  749TIP3   OH223737   5.541   0.134   0.876  0.6931 -0.5004 -0.0480
  749TIP3    H123738   5.621   0.125   0.928  1.0666  0.3920 -0.4596
  749TIP3    H223739   5.497   0.049   0.886  0.5832 -0.2704  1.9979
  750TIP3   OH223740   2.945   0.429   1.001  0.1958  0.0101  0.3481
  750TIP3    H123741   2.949   0.350   1.056  0.0361 -0.7584 -0.7018
  750TIP3    H223742   3.027   0.474   1.017 -0.4326  0.5697  2.2846
  751TIP3   OH223743   4.764   2.875   2.657  0.6829 -0.0105  0.3674
  751TIP3    H123744   4.801   2.838   2.576 -1.8343 -0.0792 -0.8398
  751TIP3    H223745   4.711   2.805   2.693  0.7028  0.4788  1.3634
  752TIP3   OH223746   0.003   1.422   5.967 -0.1961  0.0851 -0.2042
  752TIP3    H123747   0.095   1.447   5.964  0.0448 -0.7509 -0.0306
  752TIP3    H223748   0.004   1.327   5.980 -1.0702 -0.0393 -0.8964
  753TIP3   OH223749   5.276   0.567   5.758 -0.0647 -0.2602  0.0165
  753TIP3    H123750   5.262   0.639   5.696 -0.8537  0.2582  0.7889
  753TIP3    H223751   5.324   0.606   5.831 -2.3093  0.0257  1.4228
  754TIP3   OH223752   1.356   2.570  14.939 -0.4346  0.1004 -0.1150
  754TIP3    H123753   1.305   2.589  14.860  2.6266  1.5383 -1.9236
  754TIP3    H223754   1.381   2.656  14.972  0.5112 -0.5489  0.9154
  755TIP3   OH223755   2.427   4.425   5.161 -0.1846  0.4036 -0.1452
  755TIP3    H123756   2.362   4.355   5.153 -1.3346  1.4786 -0.4974
  755TIP3    H223757   2.471   4.407   5.244 -0.6901 -0.5498 -0.0752
  756TIP3   OH223758   4.550   2.832   2.303 -0.5496 -0.0764  0.2118
  756TIP3    H123759   4.532   2.806   2.213 -1.8298 -0.0660  0.4470
  756TIP3    H223760   4.589   2.919   2.295 -0.1852 -0.2812 -0.3439
  757TIP3   OH223761   3.552   2.938   2.744  0.0696  0.3106  0.0274
  757TIP3    H123762   3.516   2.883   2.675 -1.7705  1.6096 -0.1041
  757TIP3    H223763   3.533   2.892   2.825 -2.1401  1.0488 -0.0247
  758TIP3   OH223764   1.469   6.645   4.688  0.2107 -0.2440  0.6618
  758TIP3    H123765   1.450   6.643   4.782  0.2949 -0.5142  0.6731
  758TIP3    H223766   1.383   6.656   4.647  0.3679  2.2890  0.8451
  759TIP3   OH223767   3.178   0.337   3.031 -0.0744  0.4255 -0.6784
  759TIP3    H123768   3.163   0.265   2.971  0.5171  1.1397 -1.7238
  759TIP3    H223769   3.102   0.394   3.021 -1.7292 -1.1631  1.9069
  760TIP3   OH223770   3.991   0.283   3.992 -0.3221  0.5399 -0.4911
  760TIP3    H123771   3.955   0.271   3.904 -2.4360  1.3817  0.1843
  760TIP3    H223772   3.951   0.212   4.043  1.6609 -0.5553 -0.3522
  761TIP3   OH223773   5.525   0.390  15.453  0.0273  0.6363  0.2263
  761TIP3    H123774   5.611   0.431  15.445  0.6620 -0.5345  0.7334
  761TIP3    H223775   5.542   0.309  15.502 -1.1609 -0.2153 -0.7195
  762TIP3   OH223776   1.153   6.782  13.826  0.8610 -0.2767 -0.0783
  762TIP3    H123777   1.196   6.704  13.793  2.2853 -0.4579  2.0054
  762TIP3    H223778   1.082   6.750  13.882 -0.4613  0.0112 -1.5005
  763TIP3   OH223779   6.319   1.119   4.868  0.0065  0.1411 -0.1995
  763TIP3    H123780   6.371   1.100   4.946 -1.6367  0.0400  0.9206
  763TIP3    H223781   6.317   1.215   4.863 -0.7750  0.1682  0.5222
  764TIP3   OH223782   1.303   0.654  11.976  0.0712  0.1468  0.0239
  764TIP3    H123783   1.341   0.572  11.945 -0.8376 -0.2353 -0.1059
  764TIP3    H223784   1.258   0.691  11.900  2.7607  2.1868 -0.7230
  765TIP3   OH223785   3.914   5.827  16.799  0.2577  0.6098 -0.1491
  765TIP3    H123786   3.879   5.916  16.794  1.4865  1.0441 -2.1676
  765TIP3    H223787   4.000   5.837  16.838  0.1529  0.1920  0.2084
  766TIP3   OH223788   6.045   0.027  16.365 -0.3590 -0.1633 -0.5706
  766TIP3    H123789   6.120   0.076  16.331  0.5887 -1.8048 -0.9538
  766TIP3    H223790   6.078  -0.062  16.378 -1.5835 -0.3925  1.5768
  767TIP3   OH223791   5.326   1.275   5.078 -0.2926 -0.1339 -0.3456
  767TIP3    H123792   5.273   1.339   5.030  1.3019  0.2656 -1.6515
  767TIP3    H223793   5.336   1.202   5.017  0.3296 -0.3653  0.0298
  768TIP3   OH223794   1.289   2.968  16.182 -0.6046 -0.3463 -0.3166
  768TIP3    H123795   1.356   2.972  16.251 -0.7992 -1.1628 -0.0695
  768TIP3    H223796   1.238   2.889  16.203 -2.1188  0.6622 -0.0573
  769TIP3   OH223797   3.082   6.403   3.991 -0.5338 -0.1328 -0.5704
  769TIP3    H123798   2.990   6.382   4.004 -0.4431  0.4956  1.5527
  769TIP3    H223799   3.123   6.385   4.076  1.3343 -0.5306 -1.5026
  770TIP3   OH223800   3.773   0.033   3.557  0.1015 -0.1333 -0.6117
  770TIP3    H123801   3.710  -0.035   3.532  0.7240 -0.3733 -1.5534
  770TIP3    H223802   3.750   0.108   3.502  0.7248 -0.2688 -1.0623
  771TIP3   OH223803   6.622   1.928   3.452  0.3531  0.4298  0.1863
  771TIP3    H123804   6.700   1.984   3.455  2.7650 -2.5995 -0.2392
  771TIP3    H223805   6.625   1.880   3.534 -0.0712 -0.9049 -0.5533
  772TIP3   OH223806   0.783   0.713   4.822  0.2917  0.0299 -0.3153
  772TIP3    H123807   0.696   0.711   4.862  0.3069  1.1142 -0.2097
  772TIP3    H223808   0.836   0.658   4.880 -0.4942 -1.3630 -0.8564
  773TIP3   OH223809   0.693   5.328   3.652  0.2515  0.6071  0.0125
  773TIP3    H123810   0.646   5.266   3.597 -2.0505  1.7260  0.6121
  773TIP3    H223811   0.688   5.291   3.740 -0.7772  1.4052  0.3052
  774TIP3   OH223812   2.819   5.241   1.900 -0.8747 -0.0733  1.0389
  774TIP3    H123813   2.871   5.161   1.906 -2.1160 -0.8538  1.6166
  774TIP3    H223814   2.861   5.301   1.962  0.2163 -0.1754  0.4158
  775TIP3   OH223815   5.452   3.217  11.987 -0.6402 -0.8149 -0.7148
  775TIP3    H123816   5.424   3.225  12.078  2.2492 -2.2995  0.4351
  775TIP3    H223817   5.415   3.134  11.958  0.8200 -1.8339  0.1757
  776TIP3   OH223818   3.919   0.376  16.194 -0.5417 -0.7635 -0.0503
  776TIP3    H123819   4.004   0.333  16.203 -1.0368 -1.5870  1.0312
  776TIP3    H223820   3.896   0.403  16.283 -2.0047 -1.7873 -0.0735
  777TIP3   OH223821   5.424   1.510   3.380 -0.3216 -0.3236  0.2100
  777TIP3    H123822   5.484   1.553   3.441  1.1860  0.8308 -1.9717
  777TIP3    H223823   5.454   1.420   3.376  0.3500 -0.1052  0.2500
  778TIP3   OH223824   0.122   6.759   1.750 -0.0833 -0.3916 -0.4483
  778TIP3    H123825   0.214   6.753   1.779  0.3847 -0.0933 -1.8196
  778TIP3    H223826   0.109   6.851   1.729 -0.7617 -0.3998 -0.0965
  779TIP3   OH223827   1.390   5.861  13.364 -0.6155 -0.0424 -0.0289
  779TIP3    H123828   1.297   5.880  13.379 -1.3497 -3.1202 -0.0652
  779TIP3    H223829   1.391   5.799  13.292  1.2556 -1.7634  1.3610
  780TIP3   OH223830   0.201   2.570   4.957  0.4515 -0.3990  0.4609
  780TIP3    H123831   0.181   2.490   5.006 -3.0614 -0.8472 -1.3964
  780TIP3    H223832   0.167   2.641   5.012  2.3042 -0.2177  1.4603
  781TIP3   OH223833   3.501   0.200   0.718  0.2253  0.3019 -0.4502
  781TIP3    H123834   3.529   0.234   0.633 -0.5839  0.7784 -0.5424
  781TIP3    H223835   3.421   0.151   0.699  0.1365  0.2624  0.0049
  782TIP3   OH223836   6.243   3.250  13.812  0.5144 -0.4598 -0.0934
  782TIP3    H123837   6.267   3.259  13.720  2.5109  0.3006  0.4342
  782TIP3    H223838   6.310   3.300  13.859  0.0578 -1.5510  1.8311
  783TIP3   OH223839   1.094   4.540  15.743  0.2277 -0.1376  0.6781
  783TIP3    H123840   1.138   4.583  15.670 -1.0982 -1.2781 -0.8814
  783TIP3    H223841   1.120   4.590  15.821  2.5933  0.4238 -0.4016
  784TIP3   OH223842   6.705   0.098  11.520  0.7021 -0.3072  0.4278
  784TIP3    H123843   6.751   0.165  11.571  0.7082 -1.1521  1.5690
  784TIP3    H223844   6.744   0.104  11.432  1.1114  0.7705  0.6674
  785TIP3   OH223845   6.513   4.012   3.471 -0.0357  0.0487  0.7639
  785TIP3    H123846   6.568   4.091   3.473  0.5435 -0.3496  0.8444
  785TIP3    H223847   6.427   4.043   3.444 -0.0132  0.8300  1.5676
  786TIP3   OH223848   5.431   3.628   3.672  0.5977 -0.2786 -0.5230
  786TIP3    H123849   5.460   3.542   3.642  0.6066 -0.6126  0.3914
  786TIP3    H223850   5.511   3.682   3.671  0.9656 -0.7787  0.5618
  787TIP3   OH223851   2.307   6.557   3.009 -0.6381  0.0137 -0.5990
  787TIP3    H123852   2.316   6.508   3.090 -0.0167  1.6343  0.3623
  787TIP3    H223853   2.341   6.499   2.941  0.1142 -0.8596  0.4945
  788TIP3   OH223854   1.016   2.304   5.393  0.3251 -0.1352  0.6170
  788TIP3    H123855   1.040   2.216   5.363 -0.8605 -0.5660  0.8994
  788TIP3    H223856   1.024   2.359   5.315  0.3134 -0.6429  0.2539
  789TIP3   OH223857   3.212   4.833  17.202 -0.1800  0.2693  0.0737
  789TIP3    H123858   3.307   4.842  17.195 -0.1056 -1.0704 -0.8799
  789TIP3    H223859   3.177   4.901  17.144  0.1499  1.3568  1.1055
  790TIP3   OH223860   0.292   0.339  14.251  0.3256 -0.1106 -0.4723
  790TIP3    H123861   0.279   0.390  14.172  0.8389 -0.5072 -0.8142
  790TIP3    H223862   0.224   0.271  14.247 -1.7087  1.6884  0.9787
  791TIP3   OH223863   5.854   6.759   5.703 -0.5927 -0.0640 -0.1989
  791TIP3    H123864   5.839   6.776   5.610 -0.3725  4.2553  0.3829
  791TIP3    H223865   5.947   6.737   5.708  0.1920  2.7701 -0.7879
  792TIP3   OH223866   1.507   4.483  12.535 -0.0794 -0.3944  0.1922
  792TIP3    H123867   1.520   4.536  12.614  2.0217 -0.0924 -0.2939
  792TIP3    H223868   1.593   4.446  12.517 -0.3833 -0.0772 -2.2269
  793TIP3   OH223869   2.515   6.826   2.086  0.1163  0.0483  0.4287
  793TIP3    H123870   2.551   6.751   2.134 -2.0544  0.0170  2.1823
  793TIP3    H223871   2.568   6.901   2.115  0.9261 -0.4579  0.3009
  794TIP3   OH223872   4.742   3.720   0.245 -0.3927  0.0676  0.8310
  794TIP3    H123873   4.731   3.660   0.318  2.5262  0.0691  1.3621
  794TIP3    H223874   4.777   3.666   0.174 -1.4086  0.4439  0.0047
  795TIP3   OH223875   2.653   5.004  11.868 -0.1333 -0.3576  0.2907
  795TIP3    H123876   2.615   4.969  11.788  0.1640  0.4650 -0.2219
  795TIP3    H223877   2.630   4.940  11.936 -1.8134 -0.2449 -0.1294
  796TIP3   OH223878   0.083   0.536   5.195  0.0418 -0.2514  0.3001
  796TIP3    H123879   0.103   0.446   5.219  3.6543  0.1365 -0.6974
  796TIP3    H223880   0.076   0.535   5.100  0.2791  0.5356  0.2634
  797TIP3   OH223881   4.363   1.699   0.286  0.1473 -0.6231 -0.0097
  797TIP3    H123882   4.426   1.763   0.255  0.1391 -0.3026  0.6050
  797TIP3    H223883   4.359   1.713   0.381 -2.1129  0.5442 -0.2131
  798TIP3   OH223884   0.943   2.718  11.342 -0.1017  0.1460  0.3475
  798TIP3    H123885   1.004   2.659  11.387  1.0913  1.5631  0.6485
  798TIP3    H223886   0.903   2.769  11.412 -1.3331 -0.4389  0.1072
  799TIP3   OH223887   5.661   5.185  16.930 -0.2390  0.0863 -0.1504
  799TIP3    H123888   5.729   5.144  16.983 -0.4577 -1.1992 -0.8138
  799TIP3    H223889   5.582   5.181  16.984 -0.2786 -0.4701 -0.2442
  800TIP3   OH223890   0.131   4.116   4.532  0.2755  0.3459  0.2889
  800TIP3    H123891   0.151   4.111   4.625 -0.1059  1.0463  0.4173
  800TIP3    H223892   0.182   4.046   4.493  2.5626  1.6713  0.6780
  801TIP3   OH223893   5.115   4.722  15.263 -0.1470 -0.0245 -0.4125
  801TIP3    H123894   5.048   4.790  15.273 -1.1284 -0.9997 -0.2646
  801TIP3    H223895   5.156   4.742  15.179  0.6555  1.6655  0.3208
  802TIP3   OH223896   4.409   5.391   4.851 -0.7230 -0.0960 -0.2075
  802TIP3    H123897   4.401   5.296   4.849 -0.7709 -0.0909 -0.2471
  802TIP3    H223898   4.504   5.407   4.853 -0.7108 -0.1386 -0.4385
  803TIP3   OH223899   0.723   6.443  15.302  0.2501 -0.3078  0.0547
  803TIP3    H123900   0.729   6.349  15.288  3.0558 -0.3845  1.0723
  803TIP3    H223901   0.782   6.460  15.376 -0.8755  2.1363  0.4948
  804TIP3   OH223902   5.232   5.466   4.421  0.1923 -0.2503  0.1411
  804TIP3    H123903   5.226   5.407   4.496  1.7371  1.0053  1.3197
  804TIP3    H223904   5.322   5.457   4.389  0.6373  1.7562  0.6665
  805TIP3   OH223905   5.191   0.112   4.739  0.4704  0.0296  0.6814
  805TIP3    H123906   5.219   0.029   4.700  1.4282  0.6530 -0.0027
  805TIP3    H223907   5.097   0.103   4.749  0.7265 -1.7745  2.1331
  806TIP3   OH223908   1.858   3.531   0.506  0.7567 -0.2933 -0.3505
  806TIP3    H123909   1.855   3.437   0.527 -0.4211 -0.2225 -0.1795
  806TIP3    H223910   1.884   3.572   0.588 -0.6966 -0.3072  0.1409
  807TIP3   OH223911   1.932   4.397  16.255 -0.6293  0.0044  0.5034
  807TIP3    H123912   1.970   4.416  16.341  2.8531  1.0304 -1.0761
  807TIP3    H223913   1.906   4.305  16.260  3.4435 -1.3031  1.4961
  808TIP3   OH223914   2.400   2.739   5.439 -0.4569 -0.2175 -0.1848
  808TIP3    H123915   2.459   2.768   5.508 -0.6937 -1.5299  0.6110
  808TIP3    H223916   2.316   2.781   5.460  0.0065  1.1526 -0.9660
  809TIP3   OH223917   4.848   1.727   3.481 -0.5364 -0.2333  0.1024
  809TIP3    H123918   4.816   1.645   3.445 -1.9846  1.3580 -2.5341
  809TIP3    H223919   4.835   1.791   3.411  0.6776  2.2368  1.9753
  810TIP3   OH223920   5.969   2.690  16.978  0.0785  0.0360  0.1686
  810TIP3    H123921   6.040   2.673  16.915 -1.9173  0.7687 -2.4243
  810TIP3    H223922   5.962   2.785  16.981 -0.5909 -0.0245  0.6491
  811TIP3   OH223923   2.534   2.530   2.968  0.5990 -0.5853  0.2683
  811TIP3    H123924   2.453   2.485   2.996  0.3564 -0.2346  0.1351
  811TIP3    H223925   2.524   2.619   3.000  0.4588 -0.2592 -0.6691
  812TIP3   OH223926   4.181   2.842  16.726  0.5926 -0.7909 -0.3606
  812TIP3    H123927   4.272   2.847  16.757  0.5066 -0.2943 -0.1830
  812TIP3    H223928   4.143   2.926  16.750 -0.1811 -1.3528  0.3896
  813TIP3   OH223929   2.881   3.665  12.814 -0.0813 -0.4008 -0.8296
  813TIP3    H123930   2.812   3.599  12.820  0.2187 -0.8170 -1.7331
  813TIP3    H223931   2.960   3.615  12.793  0.2827  0.1817 -0.8796
  814TIP3   OH223932   6.822   4.595  12.884  0.4922 -0.2304 -0.0563
  814TIP3    H123933   6.821   4.658  12.813  0.3338  0.7797  0.8124
  814TIP3    H223934   6.821   4.509  12.841  0.6537  0.3543 -1.2521
  815TIP3   OH223935   1.702   2.556  16.399  0.3244  0.2308  0.4128
  815TIP3    H123936   1.731   2.573  16.489  2.5594  1.2110 -0.4038
  815TIP3    H223937   1.728   2.635  16.350 -0.0453 -0.6322 -1.2522
  816TIP3   OH223938   0.131   5.550  14.955  0.0258  0.1143 -0.1835
  816TIP3    H123939   0.180   5.488  14.902  0.5645  0.7509 -0.4531
  816TIP3    H223940   0.045   5.556  14.914  0.1940  0.0426 -0.5439
  817TIP3   OH223941   5.118   5.480  12.120 -0.0110  0.1084  0.3482
  817TIP3    H123942   5.173   5.555  12.142 -0.5142  0.3266  0.8904
  817TIP3    H223943   5.045   5.485  12.182 -0.1706 -0.6920  0.2336
  818TIP3   OH223944   2.152   3.774  13.311  0.1063  0.3936  0.4158
  818TIP3    H123945   2.118   3.824  13.236 -0.8728  2.5290  2.1734
  818TIP3    H223946   2.093   3.699  13.319  0.9734 -0.5938 -1.6392
  819TIP3   OH223947   0.293   4.485  14.541 -0.4038  0.9746 -0.0546
  819TIP3    H123948   0.213   4.453  14.584 -1.9432  1.6073 -2.2512
  819TIP3    H223949   0.317   4.415  14.481  0.4149  0.9979  0.2408
  820TIP3   OH223950   4.804   2.379   4.496  0.0797 -0.5577 -0.7223
  820TIP3    H123951   4.868   2.349   4.560 -0.2131  1.7674  0.7887
  820TIP3    H223952   4.732   2.316   4.502  0.2749 -0.6557  0.9058
  821TIP3   OH223953   1.171   0.462  16.840 -0.0721  0.0605 -0.4309
  821TIP3    H123954   1.125   0.488  16.920  0.4126 -0.8542  0.1674
  821TIP3    H223955   1.101   0.432  16.781 -0.2911 -1.0016  0.3473
  822TIP3   OH223956   0.339   1.023  11.833 -0.6688 -0.1800  0.0111
  822TIP3    H123957   0.257   1.059  11.798  0.3665  0.8941 -1.4622
  822TIP3    H223958   0.323   0.929  11.841 -2.1151  0.0449 -0.0386
  823TIP3   OH223959   0.910   2.535   3.422 -0.3509  0.7355  0.4797
  823TIP3    H123960   0.981   2.599   3.430  0.8704 -0.6764  1.4923
  823TIP3    H223961   0.951   2.457   3.387 -1.4566 -0.0438  0.8382
  824TIP3   OH223962   0.190   4.393   0.473 -0.2602 -0.1407 -0.7134
  824TIP3    H123963   0.170   4.301   0.490 -1.3133  0.3440  0.9406
  824TIP3    H223964   0.207   4.430   0.560  0.3504  1.1855 -1.3715
  825TIP3   OH223965   2.906   0.793  12.836 -0.5483 -0.1165  0.0779
  825TIP3    H123966   2.857   0.871  12.811  0.5101  0.4230 -0.3924
  825TIP3    H223967   2.998   0.818  12.825 -0.1706 -2.4215 -3.2394
  826TIP3   OH223968   5.352   1.886   0.773 -0.1408 -0.3052 -0.4556
  826TIP3    H123969   5.332   1.976   0.749  0.3966 -0.1283 -0.2568
  826TIP3    H223970   5.274   1.856   0.821  0.4986  0.7526  1.3433
  827TIP3   OH223971   0.679   4.495  15.613 -0.4480 -0.4543  0.3758
  827TIP3    H123972   0.600   4.460  15.571  0.3354  0.0032 -1.6077
  827TIP3    H223973   0.647   4.567  15.668 -1.7205 -2.2593  2.1441
  828TIP3   OH223974   0.704   1.964  14.358 -0.0828 -0.1305 -0.7975
  828TIP3    H123975   0.767   2.024  14.399 -0.1624 -0.5725  0.0018
  828TIP3    H223976   0.728   1.878  14.391 -0.5086 -0.4274 -1.2525
  829TIP3   OH223977   0.190   5.219  11.605  0.5934  0.4409  0.0444
  829TIP3    H123978   0.183   5.287  11.673  0.5921  1.3580 -0.8394
  829TIP3    H223979   0.104   5.179  11.602  0.4109  0.8178  0.1556
  830TIP3   OH223980   1.115   4.357  13.380  0.4245  0.2043  0.4066
  830TIP3    H123981   1.078   4.292  13.320  2.9399 -0.2577 -0.7786
  830TIP3    H223982   1.071   4.340  13.464  1.1994 -3.3099  0.2591
  831TIP3   OH223983   4.626   3.791  16.738 -0.0620  0.4974  0.0891
  831TIP3    H123984   4.631   3.876  16.781 -2.9793 -0.1353  1.9509
  831TIP3    H223985   4.546   3.795  16.685 -1.1207 -1.4535  1.3761
  832TIP3   OH223986   6.446   2.375  12.833 -0.2226 -0.0023 -0.0846
  832TIP3    H123987   6.374   2.374  12.770 -1.1284 -0.2162  0.9402
  832TIP3    H223988   6.484   2.463  12.825 -0.5734  0.1039 -0.6339
  833TIP3   OH223989   5.262   4.852  15.785  0.2427 -0.8020  0.7298
  833TIP3    H123990   5.192   4.834  15.848 -1.8002  0.1010 -1.1622
  833TIP3    H223991   5.317   4.917  15.829 -0.5229 -0.9482  1.9588
  834TIP3   OH223992   5.570   6.523   1.849 -0.9217  0.2138  0.7288
  834TIP3    H123993   5.664   6.510   1.861 -0.9772 -1.0440 -0.0179
  834TIP3    H223994   5.561   6.616   1.826 -0.1176  0.9136  2.9316
  835TIP3   OH223995   1.340   3.428   5.274  0.3523  0.3851  0.0878
  835TIP3    H123996   1.426   3.386   5.277  0.3061  0.0309 -2.0416
  835TIP3    H223997   1.332   3.473   5.358  1.7326 -1.2861  1.1739
  836TIP3   OH223998   1.336   3.447  12.013 -0.1654  0.2237 -0.3321
  836TIP3    H123999   1.415   3.416  12.058 -1.1945  1.5210  2.6517
  836TIP3    H224000   1.368   3.496  11.938  1.7747 -0.4749 -0.0086
  837TIP3   OH224001   2.750   2.250   1.232  0.3601 -0.1151 -0.1369
  837TIP3    H124002   2.803   2.178   1.265 -1.0472 -2.4583 -2.5729
  837TIP3    H224003   2.665   2.239   1.273  0.4260  0.8046  0.2581
  838TIP3   OH224004   5.219   2.521  14.655 -0.6099 -0.1417  0.3169
  838TIP3    H124005   5.211   2.592  14.719  0.9986  0.3741 -0.0084
  838TIP3    H224006   5.129   2.494  14.637 -1.1149 -0.8174  3.3541
  839TIP3   OH224007   2.214   3.375   3.165  0.1183  0.1802 -0.4722
  839TIP3    H124008   2.260   3.292   3.149  0.8260  0.4564  0.1014
  839TIP3    H224009   2.279   3.431   3.208 -0.6303  0.7292 -0.0383
  840TIP3   OH224010   4.487   0.428   3.212 -0.0727 -0.0090 -0.2666
  840TIP3    H124011   4.404   0.432   3.164 -0.5525 -1.6930  0.3644
  840TIP3    H224012   4.538   0.361   3.168  0.6679  0.4906 -0.1884
  841TIP3   OH224013   1.248   5.391  13.613  0.4614 -0.2171  0.1590
  841TIP3    H124014   1.186   5.426  13.677  0.6981 -0.5660  0.5847
  841TIP3    H224015   1.280   5.468  13.565  1.4606  0.2559  1.5092
  842TIP3   OH224016   5.208   5.078  15.186 -0.4523 -0.1279  0.0075
  842TIP3    H124017   5.297   5.093  15.155 -0.5520 -0.0141 -0.2281
  842TIP3    H224018   5.153   5.094  15.109 -0.6626 -0.3642  0.1070
  843TIP3   OH224019   0.246   4.852  11.252  0.1333  0.0400 -0.3436
  843TIP3    H124020   0.281   4.928  11.205  0.2101  0.5931  0.5786
  843TIP3    H224021   0.317   4.825  11.310 -0.5479  0.4549  0.7093
  844TIP3   OH224022   5.831   2.292   3.977  0.2189  0.1397 -0.3353
  844TIP3    H124023   5.778   2.234   3.922 -1.3046  1.1733 -0.0277
  844TIP3    H224024   5.839   2.372   3.926 -1.1527  1.0850  0.8422
  845TIP3   OH224025   6.377   5.812  14.534 -0.6214  0.4155 -0.6130
  845TIP3    H124026   6.394   5.833  14.443 -3.6786  3.2695 -0.7541
  845TIP3    H224027   6.440   5.864  14.584  1.2483 -1.3776 -0.9975
  846TIP3   OH224028   1.181   4.529  11.837 -0.4134 -0.2528 -0.2655
  846TIP3    H124029   1.156   4.468  11.768 -0.1603  0.0322 -0.6107
  846TIP3    H224030   1.189   4.474  11.915 -2.2431 -0.3313 -0.0905
  847TIP3   OH224031   4.389   1.760  12.335  0.3738 -0.0469  0.2412
  847TIP3    H124032   4.467   1.714  12.304 -0.6851 -2.0309  0.3226
  847TIP3    H224033   4.365   1.818  12.263  0.7255 -0.9878 -0.6596
  848TIP3   OH224034   2.726   1.002   2.416 -0.3080  0.0713 -0.5843
  848TIP3    H124035   2.782   0.971   2.345 -1.4073  0.3357 -1.6069
  848TIP3    H224036   2.750   0.948   2.491  0.4773 -0.6166 -1.3078
  849TIP3   OH224037   0.107   2.396  12.926  0.0604  0.3964  0.1919
  849TIP3    H124038   0.200   2.382  12.910 -0.0871  0.3275 -0.6276
  849TIP3    H224039   0.066   2.311  12.907 -0.1118  0.2488  1.1279
  850TIP3   OH224040   5.506   3.332   1.964 -0.8133 -0.9981 -0.2643
  850TIP3    H124041   5.550   3.247   1.957  0.6580 -0.4377  1.3527
  850TIP3    H224042   5.415   3.310   1.984 -0.8710 -2.1821 -1.6420
  851TIP3   OH224043   0.481   6.657  12.571  0.1036 -0.1035 -0.1520
  851TIP3    H124044   0.426   6.594  12.524 -0.0314  0.1045 -0.2758
  851TIP3    H224045   0.428   6.684  12.646 -0.5265  1.0912 -0.9735
  852TIP3   OH224046   6.027   1.575  15.897 -0.5257 -0.5364 -0.0268
  852TIP3    H124047   6.085   1.522  15.951 -0.7143 -0.9428 -0.2180
  852TIP3    H224048   5.962   1.611  15.958 -0.4704 -0.6280  0.0840
  853TIP3   OH224049   4.787   5.092   4.949 -0.8295 -0.0263  0.0826
  853TIP3    H124050   4.735   5.166   4.979 -0.3355  0.3643 -0.0034
  853TIP3    H224051   4.739   5.057   4.874 -1.0440  0.2307  0.0994
  854TIP3   OH224052   0.735   3.203  17.053 -0.0448 -0.5743 -0.1634
  854TIP3    H124053   0.703   3.198  17.144 -2.3255  0.8355 -0.8040
  854TIP3    H224054   0.754   3.112  17.030  0.7978 -0.9415  1.7631
  855TIP3   OH224055   2.994   1.278  13.610  0.3250 -0.2452  0.2683
  855TIP3    H124056   3.001   1.217  13.684  0.0377 -0.5045  0.0831
  855TIP3    H224057   2.936   1.347  13.643  1.3895  0.4245  0.8010
  856TIP3   OH224058   2.766   0.353  15.811 -0.0149 -0.1173 -0.7699
  856TIP3    H124059   2.757   0.311  15.897 -0.9454 -0.8683 -1.2127
  856TIP3    H224060   2.680   0.342  15.770  0.1005  1.1494 -1.3963
  857TIP3   OH224061   6.669   0.318  15.684 -0.6582  0.2627  0.5758
  857TIP3    H124062   6.751   0.366  15.685  0.4833 -1.5720  0.8255
  857TIP3    H224063   6.643   0.316  15.592  0.7229 -0.9050  0.1789
  858TIP3   OH224064   4.447   3.398  11.918 -0.1294 -0.3267 -0.5143
  858TIP3    H124065   4.456   3.418  12.012  3.7511 -2.0045 -0.3284
  858TIP3    H224066   4.479   3.476  11.874  2.5057 -1.0845 -0.1594
  859TIP3   OH224067   5.550   3.397  16.751  0.4043 -0.1732 -0.4639
  859TIP3    H124068   5.574   3.454  16.677  0.8955 -0.9205 -0.8913
  859TIP3    H224069   5.611   3.421  16.821  0.4035  0.0416 -0.5344
  860TIP3   OH224070   4.913   3.013  16.155  0.0420  0.5491  0.5067
  860TIP3    H124071   4.990   2.989  16.207  0.4473  0.5752 -0.0760
  860TIP3    H224072   4.841   3.012  16.218  0.2855 -0.7793  0.7952
  861TIP3   OH224073   3.801   3.169   1.093 -0.4396 -0.1202 -0.4456
  861TIP3    H124074   3.735   3.218   1.141  0.5677  1.3071 -0.4556
  861TIP3    H224075   3.751   3.115   1.031 -1.5793  1.7095 -1.1956
  862TIP3   OH224076   6.155   0.899   3.866  0.6992  0.4647 -0.0568
  862TIP3    H124077   6.200   0.904   3.782  0.5916 -1.3999 -0.2760
  862TIP3    H224078   6.219   0.930   3.930  1.4805  0.0434 -0.6177
  863TIP3   OH224079   3.550   2.017   5.397 -0.2752 -0.3611 -0.0548
  863TIP3    H124080   3.550   2.058   5.484 -0.9577  0.8121 -0.5768
  863TIP3    H224081   3.582   2.086   5.339  1.4718 -1.5591 -0.5808
  864TIP3   OH224082   2.612   0.156   0.471  0.3136  0.1979  0.1368
  864TIP3    H124083   2.604   0.063   0.492  1.8803  0.1218  0.5455
  864TIP3    H224084   2.607   0.200   0.556  3.2718  0.1499  0.4546
  865TIP3   OH224085   3.928   0.592  16.926  0.0447  0.0213 -0.1321
  865TIP3    H124086   3.970   0.600  17.011 -2.3929  2.7161  0.9856
  865TIP3    H224087   3.986   0.637  16.865  0.7019  0.1274  0.5611
  866TIP3   OH224088   3.062   0.932   5.833 -0.2387 -0.1699  0.1089
  866TIP3    H124089   3.136   0.901   5.782 -0.5746  0.0944 -0.5418
  866TIP3    H224090   3.016   0.992   5.775 -1.0803 -0.4884  0.4388
  867TIP3   OH224091   6.418   2.497  13.946 -0.0647  0.5375  0.6835
  867TIP3    H124092   6.495   2.553  13.929  0.9752 -0.9713  0.2312
  867TIP3    H224093   6.447   2.435  14.013 -0.4510 -0.8487 -0.3835
  868TIP3   OH224094   2.664   3.849  10.444 -0.0457 -0.1358  0.7369
  868TIP3    H124095   2.693   3.870  10.533 -0.3237  3.4680  0.1520
  868TIP3    H224096   2.569   3.849  10.450 -0.0673  0.3291  0.4197
  869TIP3   OH224097   5.478   2.444  12.985  0.5061 -0.1127 -0.5288
  869TIP3    H124098   5.528   2.522  12.959 -0.7294  1.2778  1.0009
  869TIP3    H224099   5.544   2.375  12.994  1.5036  0.4068 -2.9975
  870TIP3   OH224100   0.351   0.232  16.620  0.1290 -0.0922 -0.1560
  870TIP3    H124101   0.270   0.213  16.573 -0.2882 -0.0402  0.5354
  870TIP3    H224102   0.337   0.196  16.708  1.4163 -1.4085 -0.4417
  871TIP3   OH224103   1.081   4.687  12.064  0.3275  0.2139 -0.5507
  871TIP3    H124104   1.048   4.634  12.136 -0.3376 -0.1995 -1.1489
  871TIP3    H224105   1.074   4.630  11.987 -0.1228  1.0471 -1.1466
  872TIP3   OH224106   0.471   2.403   2.790  0.1246  0.3755  0.2653
  872TIP3    H124107   0.400   2.426   2.850  0.8283  0.7158  0.9797
  872TIP3    H224108   0.512   2.487   2.769 -0.4561  0.3394 -1.1536
  873TIP3   OH224109   2.335   0.114  14.878  0.1420 -0.3225  0.2257
  873TIP3    H124110   2.305   0.057  14.807 -0.7985  0.7111 -0.2477
  873TIP3    H224111   2.412   0.159  14.841 -0.2621  0.1109 -0.1062
  874TIP3   OH224112   3.475   1.762   0.929 -0.1776 -0.4321 -0.3817
  874TIP3    H124113   3.562   1.723   0.938 -0.4625 -0.8476  0.8446
  874TIP3    H224114   3.414   1.692   0.956 -0.7445  0.5604  1.0297
  875TIP3   OH224115   1.045   1.743  12.531  0.0791 -0.0246  0.2916
  875TIP3    H124116   1.042   1.782  12.619  0.5406  1.4979 -0.3348
  875TIP3    H224117   1.135   1.755  12.503  0.1467 -1.2787 -0.0785
  876TIP3   OH224118   6.136   3.517  15.626 -0.1796 -0.3565  0.0137
  876TIP3    H124119   6.150   3.529  15.720 -0.2540 -0.7307  0.0702
  876TIP3    H224120   6.148   3.605  15.589  1.1123 -0.4255  0.2122
  877TIP3   OH224121   5.999   4.426  13.282 -0.6387 -0.1856  0.0621
  877TIP3    H124122   6.019   4.360  13.216  1.2962 -1.0229  1.3781
  877TIP3    H224123   5.992   4.508  13.233 -2.6189 -1.2045 -1.5488
  878TIP3   OH224124   3.264   1.298  17.184 -0.3405 -0.0620 -0.7066
  878TIP3    H124125   3.232   1.308  17.094 -0.4425  2.0220 -0.5004
  878TIP3    H224126   3.351   1.259  17.174 -0.2404  0.3815 -1.7446
  879TIP3   OH224127   3.077   1.804   6.108  0.1549  0.0433 -0.3168
  879TIP3    H124128   3.024   1.767   6.038  0.3098 -0.1396 -0.3385
  879TIP3    H224129   3.164   1.766   6.095 -0.1212 -0.9978  0.7399
  880TIP3   OH224130   1.243   2.451  10.584  0.0652 -0.3985 -0.0037
  880TIP3    H124131   1.277   2.506  10.514  0.0391 -1.6775 -1.0600
  880TIP3    H224132   1.300   2.468  10.659  0.0702  1.0164 -0.3034
  881TIP3   OH224133   3.775   2.738  16.660 -0.4737 -0.2959  0.9768
  881TIP3    H124134   3.814   2.814  16.618 -2.0491 -0.2842 -0.5757
  881TIP3    H224135   3.759   2.766  16.750  0.4103  0.6677  0.8487
  882TIP3   OH224136   5.738   2.947  13.275  0.1770  0.8489 -0.0275
  882TIP3    H124137   5.784   2.905  13.347  1.2743  1.1901 -0.5098
  882TIP3    H224138   5.805   2.958  13.207 -1.0854 -0.6046 -1.6069
  883TIP3   OH224139   4.887   6.265  15.286  0.7293  0.2476  0.0411
  883TIP3    H124140   4.906   6.190  15.230 -1.3258 -1.2390  1.1623
  883TIP3    H224141   4.873   6.337  15.225  0.1936 -0.9148 -1.2894
  884TIP3   OH224142   1.317   2.018   1.320  0.1751  0.2549 -0.1613
  884TIP3    H124143   1.245   2.077   1.343  0.2287 -0.2804  1.5568
  884TIP3    H224144   1.323   2.023   1.224 -1.3574  1.2129 -0.2431
  885TIP3   OH224145   6.199   1.375   3.568  0.4220  0.1916 -0.0100
  885TIP3    H124146   6.178   1.332   3.650 -0.2811  0.5427 -0.0028
  885TIP3    H224147   6.119   1.419   3.542  0.1799 -1.1010 -1.6369
  886TIP3   OH224148   4.819   2.256  12.674 -0.0898 -0.3150  0.2059
  886TIP3    H124149   4.806   2.217  12.761  0.9635  0.3011  0.6523
  886TIP3    H224150   4.870   2.335  12.691 -0.2540  0.0446 -0.9353
  887TIP3   OH224151   1.655   3.743  15.520  0.0882  0.1069  0.1059
  887TIP3    H124152   1.723   3.779  15.577 -0.0963 -1.3515  1.3306
  887TIP3    H224153   1.690   3.659  15.491 -0.2297  0.4094 -1.1837
  888TIP3   OH224154   0.712   2.362   0.386 -0.1480 -0.1563  0.0242
  888TIP3    H124155   0.689   2.305   0.312  0.1579 -0.2237 -0.0216
  888TIP3    H224156   0.690   2.450   0.357  1.5168  0.0315 -0.8066
  889TIP3   OH224157   4.314   1.578  15.589 -0.2042  0.5285  0.9783
  889TIP3    H124158   4.230   1.589  15.544 -0.9653 -0.3263  2.1325
  889TIP3    H224159   4.291   1.543  15.675  1.3249  0.5481  1.4270
  890TIP3   OH224160   1.409   0.225  12.640 -0.1262 -0.4677  0.0829
  890TIP3    H124161   1.459   0.145  12.623 -0.1971 -0.9690  1.9521
  890TIP3    H224162   1.473   0.296  12.632  0.0446 -0.7358 -1.1141
  891TIP3   OH224163   5.315   2.034   2.197 -0.3193 -0.3548  0.4918
  891TIP3    H124164   5.265   2.039   2.279 -0.7744 -1.9256  0.3566
  891TIP3    H224165   5.403   2.008   2.224  0.3097  1.8031  0.6769
  892TIP3   OH224166   1.745   4.182   3.794 -0.6103  0.4669  0.4326
  892TIP3    H124167   1.735   4.266   3.750 -0.6407  1.2050  1.8056
  892TIP3    H224168   1.677   4.182   3.862  0.1426 -0.1476  1.2091
  893TIP3   OH224169   5.398   5.930   0.269  0.5232  0.0472  0.1486
  893TIP3    H124170   5.473   5.945   0.212  0.3507 -1.8854 -0.6760
  893TIP3    H224171   5.398   5.835   0.284 -1.3899  0.0769  0.6336
  894TIP3   OH224172   0.742   6.486   3.085  0.1345 -0.0754 -0.2352
  894TIP3    H124173   0.796   6.487   3.164  0.0093  0.4498 -0.1547
  894TIP3    H224174   0.697   6.570   3.085 -1.0246 -0.6729 -0.0724
  895TIP3   OH224175   4.399   0.096  14.309  0.0079 -0.6368 -0.1198
  895TIP3    H124176   4.320   0.090  14.255 -0.3021  1.0730  0.1071
  895TIP3    H224177   4.451   0.165  14.269 -0.0008  0.3285  1.4672
  896TIP3   OH224178   6.509   3.653  12.383  0.6895 -0.2398  0.6293
  896TIP3    H124179   6.484   3.568  12.421 -1.2423 -0.5480 -1.1586
  896TIP3    H224180   6.559   3.631  12.305  1.3392  0.3298  0.8682
  897TIP3   OH224181   6.028   3.915   5.385 -0.3595  0.7496 -0.4250
  897TIP3    H124182   5.949   3.942   5.433 -0.3751  1.2393 -0.7170
  897TIP3    H224183   5.997   3.901   5.295 -0.5852 -1.3741 -0.0638
  898TIP3   OH224184   2.910   1.395  12.149  0.2531 -0.3717 -0.7029
  898TIP3    H124185   2.968   1.352  12.211 -0.1067  0.4338  0.2186
  898TIP3    H224186   2.968   1.449  12.095  0.4468 -0.1956 -0.3180
  899TIP3   OH224187   6.482   0.349  13.434  0.0808  0.0416 -0.4290
  899TIP3    H124188   6.495   0.361  13.339 -1.6186 -1.5584 -0.9141
  899TIP3    H224189   6.401   0.395  13.453  0.5470  0.5689  0.3276
  900TIP3   OH224190   0.184   1.729  12.607  0.4468 -0.4551 -0.1263
  900TIP3    H124191   0.244   1.804  12.614 -1.6521  1.3082  0.2516
  900TIP3    H224192   0.139   1.727  12.692 -0.7267 -1.0509 -0.7435
  901TIP3   OH224193   4.496   2.469   1.787 -0.2119  0.5578 -0.4642
  901TIP3    H124194   4.474   2.409   1.717  0.8352  0.1197 -0.4373
  901TIP3    H224195   4.416   2.476   1.839 -0.0327 -1.8272  0.2664
  902TIP3   OH224196   5.070   3.523  16.531 -0.3147 -0.4804  0.2524
  902TIP3    H124197   5.150   3.474  16.550  0.0522 -0.4599 -1.1615
  902TIP3    H224198   5.087   3.567  16.448 -1.2158  0.8089  0.7226
  903TIP3   OH224199   2.508   4.575  11.524 -0.0736  0.3935 -0.1658
  903TIP3    H124200   2.596   4.538  11.516  0.2993  0.5052  2.6202
  903TIP3    H224201   2.498   4.628  11.444  1.4433 -1.4056 -1.6583
  904TIP3   OH224202   3.220   2.039   3.254  0.3366  0.1943 -0.0841
  904TIP3    H124203   3.171   1.982   3.194 -1.1236 -0.0705  1.2673
  904TIP3    H224204   3.247   2.113   3.200  0.5307 -0.8214 -1.4323
  905TIP3   OH224205   5.673   3.072   0.686 -0.1337  0.4495  0.0216
  905TIP3    H124206   5.583   3.104   0.698  0.0142  0.3867  1.4473
  905TIP3    H224207   5.674   3.039   0.596 -1.5249  0.4762 -0.0357
  906TIP3   OH224208   4.747   5.722  10.604  0.3041  0.2682  0.8172
  906TIP3    H124209   4.772   5.790  10.541  0.0870 -0.5896 -0.2247
  906TIP3    H224210   4.812   5.653  10.592  0.5086  0.2544  1.8549
  907TIP3   OH224211   5.016   4.782   3.336 -0.3666 -0.0065 -0.0776
  907TIP3    H124212   5.071   4.756   3.410  0.1293  1.0181 -0.0638
  907TIP3    H224213   5.056   4.739   3.260  0.2138  0.3896 -0.0036
  908TIP3   OH224214   1.680   0.276   1.767 -0.1583 -0.0609 -0.0844
  908TIP3    H124215   1.610   0.296   1.829  0.4506 -0.4339  0.7412
  908TIP3    H224216   1.707   0.186   1.789  1.1179  0.3621  0.1519
  909TIP3   OH224217   4.764   0.929   2.756 -0.1839  0.6772 -0.0084
  909TIP3    H124218   4.737   0.943   2.665 -1.1911  0.0400  0.1729
  909TIP3    H224219   4.801   1.013   2.783 -0.4889  1.0792 -0.8022
  910TIP3   OH224220   6.625   0.021   4.487  0.3040 -0.0142  0.4612
  910TIP3    H124221   6.636   0.103   4.438  0.8342  0.0171  0.6299
  910TIP3    H224222   6.540  -0.012   4.458  0.4930  0.1351 -0.2934
  911TIP3   OH224223   4.953   5.851   6.283  0.7490  0.0261  0.0377
  911TIP3    H124224   4.891   5.923   6.293 -0.0258 -0.7722  1.1966
  911TIP3    H224225   5.012   5.860   6.358 -0.3315 -1.4424  1.1292
  912TIP3   OH224226   5.902   4.548   6.504  0.9633 -0.5487 -0.5726
  912TIP3    H124227   5.975   4.609   6.516  0.1610  0.2931  0.1918
  912TIP3    H224228   5.900   4.532   6.409  0.3520  1.7183 -0.9937
  913TIP3   OH224229   5.770   0.066   1.232 -0.4376 -0.1041  0.4638
  913TIP3    H124230   5.733   0.095   1.315  1.1429  0.7820  0.8882
  913TIP3    H224231   5.846   0.122   1.218  0.3434 -1.3799 -0.7204
  914TIP3   OH224232   4.255   1.772   0.712 -0.1921 -0.2681 -0.0281
  914TIP3    H124233   4.340   1.816   0.721 -0.3045 -0.3427  1.8216
  914TIP3    H224234   4.202   1.809   0.783 -1.4253 -0.8823 -0.6053
  915TIP3   OH224235   3.177   6.688   1.661 -0.0536 -0.0269 -0.6341
  915TIP3    H124236   3.101   6.633   1.642  0.5224 -0.5517 -1.4822
  915TIP3    H224237   3.207   6.718   1.576  1.1729 -0.4903 -0.3819
  916TIP3   OH224238   2.258   6.059   5.822 -0.2576  0.1740 -0.2404
  916TIP3    H124239   2.298   5.973   5.815  1.2235  0.8261 -0.3079
  916TIP3    H224240   2.220   6.062   5.910  0.8990 -0.0661  0.2749
  917TIP3   OH224241   3.943   2.023  14.479 -0.5072  0.2871 -0.0351
  917TIP3    H124242   3.946   1.953  14.545  1.0670  1.3804  1.1307
  917TIP3    H224243   3.873   2.081  14.508 -3.0793 -1.6238 -1.9904
  918TIP3   OH224244   3.330   0.868  13.982  1.0083 -0.7352 -0.1145
  918TIP3    H124245   3.304   0.920  14.058  0.4830 -0.4471 -0.4850
  918TIP3    H224246   3.330   0.778  14.013 -3.0739 -1.1052 -0.7182
  919TIP3   OH224247   1.061   0.599  12.138 -0.6287 -0.8836  0.5777
  919TIP3    H124248   1.137   0.639  12.095 -2.3609  0.8905 -1.0635
  919TIP3    H224249   1.014   0.673  12.178 -1.7338 -1.8656  1.1846
  920TIP3   OH224250   5.933   0.419  15.713  0.1912 -0.0728  0.1593
  920TIP3    H124251   5.990   0.344  15.728 -0.5996 -0.6568  0.3261
  920TIP3    H224252   5.933   0.431  15.618  2.4339  1.4334  0.2587
  921TIP3   OH224253   2.112   0.833   0.488 -0.3480  0.0986 -0.6407
  921TIP3    H124254   2.121   0.737   0.489  0.7427  0.1185  2.0469
  921TIP3    H224255   2.020   0.848   0.509 -0.4550 -0.3799 -0.7572
  922TIP3   OH224256   5.779   0.642   0.293  0.0316 -0.1807  0.4420
  922TIP3    H124257   5.737   0.677   0.371  1.0191 -2.3325  2.0428
  922TIP3    H224258   5.815   0.719   0.248  1.2772  0.9876  3.2286
  923TIP3   OH224259   6.013   2.910  15.863 -0.1615 -0.2646 -0.4289
  923TIP3    H124260   6.080   2.906  15.931  1.1822 -0.8760 -1.7228
  923TIP3    H224261   6.011   2.821  15.827  0.1816  0.3663 -2.0927
  924TIP3   OH224262   4.309   1.046   5.947 -0.1208 -0.1090 -0.0790
  924TIP3    H124263   4.309   0.966   5.894 -1.0840 -0.3777  0.3007
  924TIP3    H224264   4.249   1.026   6.019 -2.5310  1.8623 -1.4050
  925TIP3   OH224265   2.878   3.322   4.793  0.7900  0.2254  0.7899
  925TIP3    H124266   2.823   3.352   4.865  0.4417 -0.0922  0.6550
  925TIP3    H224267   2.887   3.399   4.737  1.4810  0.6220  1.4231
  926TIP3   OH224268   3.507   1.316   3.886 -0.2943  0.5123 -0.2321
  926TIP3    H124269   3.413   1.325   3.873 -0.3847 -0.3203 -0.2247
  926TIP3    H224270   3.518   1.227   3.921  0.5698  0.2851 -1.0514
  927TIP3   OH224271   6.089   5.526  12.233 -0.5614 -0.0787 -0.5812
  927TIP3    H124272   6.020   5.561  12.177  0.3699  0.9923 -1.1123
  927TIP3    H224273   6.127   5.454  12.183  0.5189  1.1120 -1.5593
  928TIP3   OH224274   4.976   1.758  13.583  0.5664 -0.0025 -1.1145
  928TIP3    H124275   5.009   1.729  13.668 -0.3455 -0.9709 -1.0688
  928TIP3    H224276   4.929   1.839  13.601  0.2387 -0.2901 -0.6596
  929TIP3   OH224277   4.770   1.728   4.008  0.3623 -0.2640  0.6948
  929TIP3    H124278   4.704   1.784   4.048 -0.0972 -0.4176  0.1624
  929TIP3    H224279   4.733   1.640   4.011 -0.4268 -0.0700 -1.5268
  930TIP3   OH224280   4.374   2.451   0.212 -0.1496 -0.6535  0.3894
  930TIP3    H124281   4.465   2.430   0.192 -0.4179 -1.0544 -0.4280
  930TIP3    H224282   4.380   2.526   0.272  0.7230 -0.9634  0.7087
  931TIP3   OH224283   2.174   4.329  14.315 -0.2120 -0.3903 -0.5707
  931TIP3    H124284   2.098   4.283  14.281 -0.2741 -0.7205  0.0129
  931TIP3    H224285   2.141   4.416  14.338 -0.8345 -1.0589  1.2860
  932TIP3   OH224286   5.320   2.705   5.632 -0.3124 -0.1855 -0.6565
  932TIP3    H124287   5.261   2.726   5.705 -0.0286  3.4054 -1.2729
  932TIP3    H224288   5.271   2.643   5.578 -2.2248  0.2474  0.4823
  933TIP3   OH224289   6.122   4.602  14.993 -0.4865  0.0279  0.4505
  933TIP3    H124290   6.114   4.696  15.014 -0.2732  0.5206 -1.4864
  933TIP3    H224291   6.050   4.561  15.042 -0.2298  1.0953  1.7939
  934TIP3   OH224292   1.535   5.501  12.128 -0.0513  0.3287 -0.2598
  934TIP3    H124293   1.623   5.530  12.105 -0.2793  0.9964 -0.3304
  934TIP3    H224294   1.532   5.510  12.224 -0.1212  0.5576 -0.2816
  935TIP3   OH224295   6.384   5.296   1.910 -0.2021  0.6031  0.1230
  935TIP3    H124296   6.313   5.320   1.851  0.5581  0.1964 -0.9746
  935TIP3    H224297   6.424   5.380   1.934  0.0105  0.7198 -0.6099
  936TIP3   OH224298   0.214   6.306  12.226  0.1914 -0.1367  0.3135
  936TIP3    H124299   0.258   6.370  12.281  0.2913  1.5137 -1.5624
  936TIP3    H224300   0.283   6.242  12.203  0.6090  0.2181  0.5710
  937TIP3   OH224301   5.333   2.298   2.324 -0.4332  0.1198  0.3320
  937TIP3    H124302   5.419   2.339   2.317  0.0451 -0.5074  2.0577
  937TIP3    H224303   5.334   2.228   2.259  1.0817 -1.0254  1.5107
  938TIP3   OH224304   5.039   3.269   0.888 -0.0276 -0.3524 -0.0451
  938TIP3    H124305   4.992   3.244   0.967 -0.0004  1.9488  0.7832
  938TIP3    H224306   4.981   3.245   0.816 -0.0746 -2.4421  0.6272
  939TIP3   OH224307   2.000   1.190  11.737 -0.1410  0.6125 -0.7109
  939TIP3    H124308   2.006   1.286  11.738 -1.6402  0.7363  0.4447
  939TIP3    H224309   2.053   1.164  11.662  0.7329  2.3086 -0.7436
  940TIP3   OH224310   1.522   1.976  11.724  0.0820 -0.3148  0.7489
  940TIP3    H124311   1.495   2.003  11.636 -0.1422  1.2338  1.2533
  940TIP3    H224312   1.447   1.996  11.779  0.9498  0.7017  1.6059
  941TIP3   OH224313   3.614   3.557  14.375 -0.3085  0.0805  0.3555
  941TIP3    H124314   3.594   3.485  14.315 -0.6456 -0.4109  1.0439
  941TIP3    H224315   3.579   3.635  14.332 -1.1072 -0.3555  0.1830
  942TIP3   OH224316   3.618   6.021  14.781 -0.1880 -1.2509  0.0126
  942TIP3    H124317   3.570   6.080  14.838 -0.4907 -1.4411 -0.0436
  942TIP3    H224318   3.681   6.077  14.736  0.0324 -1.0938  0.5102
  943TIP3   OH224319   5.922   0.711   2.187 -0.3384  0.1623 -0.4187
  943TIP3    H124320   5.856   0.653   2.224 -1.6718  1.0896 -1.2458
  943TIP3    H224321   5.873   0.770   2.130  0.7517  2.9428  1.3302
  944TIP3   OH224322   6.231   6.242  12.392  0.4449  0.3596  0.0233
  944TIP3    H124323   6.265   6.269  12.307  0.0092  0.8712  0.0054
  944TIP3    H224324   6.302   6.264  12.453  0.6632  0.2098 -0.1714
  945TIP3   OH224325   3.237   1.089  13.190 -0.3224 -0.1277 -0.4162
  945TIP3    H124326   3.328   1.117  13.189 -0.0549 -0.9762 -1.3496
  945TIP3    H224327   3.200   1.131  13.268  0.1886  2.2812 -1.3813
  946TIP3   OH224328   5.541   0.763  16.241 -0.3989 -0.2963  0.1814
  946TIP3    H124329   5.588   0.778  16.322  1.2804 -0.9176 -0.6382
  946TIP3    H224330   5.587   0.816  16.176 -2.3838  1.0697 -0.1881
  947TIP3   OH224331   0.480   3.212  10.417  0.7890 -0.2684 -0.4739
  947TIP3    H124332   0.534   3.179  10.488  0.0184 -0.5526 -0.0155
  947TIP3    H224333   0.412   3.146  10.404 -0.8327  1.1078  0.5227
  948TIP3   OH224334   0.797   3.867  15.741 -0.3579  0.0088  0.2225
  948TIP3    H124335   0.843   3.802  15.688 -0.4869  1.1598 -1.3840
  948TIP3    H224336   0.850   3.946  15.733 -1.4861  0.7764  0.0929
  949TIP3   OH224337   3.868   6.234  16.488 -0.0702  0.3957 -0.1864
  949TIP3    H124338   3.950   6.281  16.470  0.1657  1.3797  2.8241
  949TIP3    H224339   3.885   6.189  16.571 -2.2006 -0.4273 -0.1420
  950TIP3   OH224340   6.376   3.700   2.584  0.0108 -0.3333 -0.5118
  950TIP3    H124341   6.434   3.707   2.508  0.8815 -1.1335  0.0611
  950TIP3    H224342   6.304   3.645   2.553  0.7989 -1.3965 -0.5217
  951TIP3   OH224343   1.919   6.139  16.236  0.8175 -0.3305  0.3506
  951TIP3    H124344   1.825   6.134  16.252  0.8036  0.2858  0.4842
  951TIP3    H224345   1.953   6.054  16.266  0.4449 -0.1687  1.2682
  952TIP3   OH224346   3.390   2.143   3.785 -0.4991 -0.1641  0.3754
  952TIP3    H124347   3.415   2.234   3.798 -0.3003  0.0144 -1.1040
  952TIP3    H224348   3.338   2.143   3.704  0.8199 -1.5654 -0.5342
  953TIP3   OH224349   1.497   0.036   2.300  0.0959 -0.4256 -0.2846
  953TIP3    H124350   1.434   0.079   2.243  0.4305 -0.7965 -0.9527
  953TIP3    H224351   1.574   0.093   2.297  0.5775 -1.1057 -1.2560
  954TIP3   OH224352   5.259   3.566  15.833  0.1226 -0.3099  0.3674
  954TIP3    H124353   5.288   3.590  15.745  1.3773 -2.0677  0.2600
  954TIP3    H224354   5.209   3.642  15.863  1.7878  1.3754 -0.8764
  955TIP3   OH224355   2.266   4.469   6.043  0.2929  0.4920 -0.4683
  955TIP3    H124356   2.281   4.563   6.034  2.2632  0.1713 -1.1023
  955TIP3    H224357   2.332   4.429   5.987  2.6872 -1.3902  3.3020
  956TIP3   OH224358   0.413   0.181  15.307 -0.5523 -0.2631 -0.3686
  956TIP3    H124359   0.367   0.256  15.345 -2.3153 -1.3361 -0.3140
  956TIP3    H224360   0.452   0.136  15.382  0.2619  0.3982 -0.3732
  957TIP3   OH224361   4.242   4.453   4.376 -0.0073 -0.1743 -0.5656
  957TIP3    H124362   4.154   4.442   4.412 -0.0071 -0.6597 -0.7054
  957TIP3    H224363   4.229   4.505   4.297 -0.0829  0.3524 -0.2123
  958TIP3   OH224364   2.978   1.892   4.045 -0.8498  0.3730  0.8024
  958TIP3    H124365   3.040   1.918   3.977  1.3473 -1.2759  2.0318
  958TIP3    H224366   2.963   1.972   4.095  2.3140  0.3946  1.9334
  959TIP3   OH224367   6.405   1.608   3.656  0.7337  0.3854  0.3630
  959TIP3    H124368   6.473   1.583   3.593  0.0713  0.6072 -0.4609
  959TIP3    H224369   6.356   1.527   3.673  1.6732  0.0366  1.5868
  960TIP3   OH224370   0.258   6.237   1.329  0.3020  0.0981 -0.3856
  960TIP3    H124371   0.189   6.288   1.287  0.5647 -0.4360 -1.4956
  960TIP3    H224372   0.229   6.146   1.320  0.2288 -0.0175  0.8580
  961TIP3   OH224373   4.733   3.108  14.379  0.0423 -0.0827  0.3895
  961TIP3    H124374   4.643   3.082  14.357 -0.4533  0.9490  1.1409
  961TIP3    H224375   4.785   3.077  14.304 -1.1078  0.3890 -0.6496
  962TIP3   OH224376   3.089   3.515  16.258  0.0081 -0.1474  0.1629
  962TIP3    H124377   3.019   3.472  16.306 -0.1830  0.1452  0.1472
  962TIP3    H224378   3.071   3.494  16.166  0.7911 -1.3322  0.2550
  963TIP3   OH224379   2.095   3.503   4.811  0.2003 -0.3306  0.3126
  963TIP3    H124380   2.017   3.542   4.849 -0.4121 -0.3628 -0.8577
  963TIP3    H224381   2.096   3.413   4.842  0.2425 -0.0908  1.0101
  964TIP3   OH224382   1.794   0.016  11.773  0.3054 -0.0925 -0.3810
  964TIP3    H124383   1.702   0.034  11.791 -0.3105  0.2901 -3.4012
  964TIP3    H224384   1.811  -0.068  11.815 -1.5145 -0.3372 -0.0475
  965TIP3   OH224385   0.563   2.595  15.760  0.4132  0.5670 -0.1692
  965TIP3    H124386   0.546   2.623  15.670  0.3028  0.3362 -0.2204
  965TIP3    H224387   0.494   2.532  15.779  0.5565  0.4629  0.0085
  966TIP3   OH224388   2.896   4.425  13.070  0.1365  0.0227  0.3645
  966TIP3    H124389   2.888   4.401  13.162 -0.7234 -1.3615 -0.0302
  966TIP3    H224390   2.922   4.344  13.026  1.0403  0.7773 -0.5504
  967TIP3   OH224391   3.363   1.305   0.805  0.2726  0.3619  0.4264
  967TIP3    H124392   3.415   1.359   0.746  1.2636 -1.0056  0.0178
  967TIP3    H224393   3.349   1.361   0.882  0.7882  1.3928 -0.2110
  968TIP3   OH224394   4.852   1.336  12.844 -0.0352 -0.3006 -0.1365
  968TIP3    H124395   4.799   1.262  12.873 -0.1349  0.2811  1.2922
  968TIP3    H224396   4.789   1.398  12.806 -0.0442 -0.6472 -0.6888
  969TIP3   OH224397   6.672   6.115   1.506 -0.3683 -0.3906 -0.3801
  969TIP3    H124398   6.601   6.173   1.533 -0.6552 -1.2861  0.8903
  969TIP3    H224399   6.679   6.127   1.412 -2.3545 -0.4444 -0.5654
  970TIP3   OH224400   5.412   2.847  14.680  0.0471  0.4028  0.0736
  970TIP3    H124401   5.385   2.794  14.755 -1.7273 -0.6952 -1.2953
  970TIP3    H224402   5.335   2.900  14.659 -0.1953 -0.7050 -2.1311
  971TIP3   OH224403   4.248   2.307  16.288 -1.2931  0.5066 -0.6184
  971TIP3    H124404   4.217   2.231  16.337  2.1032 -0.9538 -0.4181
  971TIP3    H224405   4.265   2.273  16.200  1.1948  0.6721 -0.2672
  972TIP3   OH224406   0.634   2.987  15.036 -0.6176 -0.2572  0.2457
  972TIP3    H124407   0.665   3.010  15.124 -0.0917 -0.0954  0.0197
  972TIP3    H224408   0.568   2.919  15.052 -1.0735  0.3031  0.8107
  973TIP3   OH224409   2.251   4.478  10.618  0.3645  0.5710 -0.5501
  973TIP3    H124410   2.271   4.572  10.629  0.0943  0.7337 -1.3819
  973TIP3    H224411   2.226   4.470  10.526  1.8121 -0.5833 -0.8829
  974TIP3   OH224412   3.462   5.491   5.647  0.1228 -0.0362  0.1885
  974TIP3    H124413   3.484   5.584   5.652 -2.2607  0.5487  1.2258
  974TIP3    H224414   3.496   5.454   5.729 -0.8458  0.4225  0.8180
  975TIP3   OH224415   4.621   1.049   0.180  0.0419  0.0808  0.5361
  975TIP3    H124416   4.569   0.984   0.226 -0.9248 -0.2710 -0.9864
  975TIP3    H224417   4.557   1.103   0.133  1.0068 -0.7577 -1.9049
  976TIP3   OH224418   4.570   6.140  16.696  0.5061 -0.2567  0.1608
  976TIP3    H124419   4.492   6.084  16.685  0.5439 -0.1638 -0.6386
  976TIP3    H224420   4.644   6.079  16.692  0.5333 -0.1917 -0.4239
  977TIP3   OH224421   1.537   0.185   3.157 -0.2552  0.8943  0.0056
  977TIP3    H124422   1.622   0.226   3.143  0.0320  0.0593 -0.8674
  977TIP3    H224423   1.481   0.225   3.090  0.4742 -1.3105 -2.0497
  978TIP3   OH224424   2.064   6.274   2.611 -0.3799  0.0405 -0.5430
  978TIP3    H124425   2.144   6.267   2.663 -1.5938 -1.3633  1.2620
  978TIP3    H224426   2.009   6.335   2.660 -0.8971  0.0477 -1.1165
  979TIP3   OH224427   4.415   3.381  15.934  0.3248  0.3161 -0.2314
  979TIP3    H124428   4.383   3.294  15.959  1.1584 -0.1952 -0.8696
  979TIP3    H224429   4.490   3.396  15.990  0.2849  0.5567 -0.2410
  980TIP3   OH224430   3.941   4.725   0.551 -0.1892 -0.3063 -0.2114
  980TIP3    H124431   3.923   4.691   0.639 -0.2612 -0.3644 -0.2480
  980TIP3    H224432   3.975   4.813   0.565  1.0043 -0.7666 -0.0472
  981TIP3   OH224433   2.243   4.259  10.782  0.6999  0.7443  0.4394
  981TIP3    H124434   2.242   4.321  10.710  0.2199 -0.5865 -0.7501
  981TIP3    H224435   2.152   4.254  10.812  0.6878  0.4289  0.3577
  982TIP3   OH224436   5.401   1.169  12.086 -0.3055 -0.4915 -0.1751
  982TIP3    H124437   5.377   1.180  12.178  1.8634  0.8033  0.2941
  982TIP3    H224438   5.485   1.123  12.087 -0.0678 -0.1504 -1.4824
  983TIP3   OH224439   4.776   3.561   4.713  0.1816  0.0276  0.1738
  983TIP3    H124440   4.867   3.571   4.685  0.0751 -1.7507 -0.9953
  983TIP3    H224441   4.779   3.576   4.808  1.5340  0.8102  0.0431
  984TIP3   OH224442   1.636   2.273   1.058 -0.6708 -0.1596  0.3250
  984TIP3    H124443   1.727   2.242   1.057 -0.8553 -0.7356  1.0026
  984TIP3    H224444   1.583   2.195   1.043 -1.0860  0.0391  0.7203
  985TIP3   OH224445   6.535   0.564   0.137  0.1820  0.6967  0.2519
  985TIP3    H124446   6.581   0.639   0.099  1.4191  0.2492  0.8125
  985TIP3    H224447   6.484   0.601   0.208 -1.0466  1.3276 -0.9078
  986TIP3   OH224448   1.354   6.482  11.317  0.1515 -0.6749  0.8450
  986TIP3    H124449   1.260   6.473  11.301  0.5577 -0.1550 -2.5493
  986TIP3    H224450   1.393   6.406  11.274  1.4218  0.5198 -0.1763
  987TIP3   OH224451   5.234   2.467   5.231  0.0839  0.2674 -0.4346
  987TIP3    H124452   5.195   2.514   5.305  0.2875  0.7199 -0.6107
  987TIP3    H224453   5.264   2.384   5.268 -2.5074 -0.8353 -0.6115
  988TIP3   OH224454   0.633   2.574  13.797 -0.6682  0.1451 -0.0370
  988TIP3    H124455   0.694   2.606  13.730 -0.9685  1.5433  0.3135
  988TIP3    H224456   0.577   2.513  13.751  0.5687 -0.6737 -0.5195
  989TIP3   OH224457   4.097   4.772  15.928  0.0540  0.0227 -0.6227
  989TIP3    H124458   4.018   4.720  15.945  1.0314 -1.0570  0.8197
  989TIP3    H224459   4.123   4.805  16.014  2.0146 -0.8979 -0.8198
  990TIP3   OH224460   5.498   0.301   0.403 -0.1392  0.4743 -0.1020
  990TIP3    H124461   5.542   0.353   0.336 -0.5820  0.4778 -0.3978
  990TIP3    H224462   5.523   0.342   0.486  1.3430 -0.2163 -0.1698
  991TIP3   OH224463   3.941   4.347  13.112 -0.0365  0.4203  0.3783
  991TIP3    H124464   3.911   4.352  13.203  0.5648 -0.4540  0.6414
  991TIP3    H224465   4.033   4.372  13.116  1.3229 -3.7889  0.7949
  992TIP3   OH224466   2.177   1.821  10.750  0.4638  0.1486 -0.0291
  992TIP3    H124467   2.159   1.770  10.671  1.4275  1.5472 -1.2076
  992TIP3    H224468   2.272   1.820  10.758  0.5481  2.0039 -0.3015
  993TIP3   OH224469   1.108   3.312  15.722  0.0241  0.0432 -0.2279
  993TIP3    H124470   1.112   3.373  15.649  0.2320 -1.2240 -1.2961
  993TIP3    H224471   1.021   3.326  15.760  0.2608  1.3562 -0.1002
  994TIP3   OH224472   4.905   2.494  11.784  0.7790  1.0324 -0.6132
  994TIP3    H124473   4.911   2.585  11.756 -0.2055  1.9481  1.8770
  994TIP3    H224474   4.980   2.481  11.842  0.7628  0.3377 -0.7353
  995TIP3   OH224475   1.295   5.244  13.857  0.0649 -1.2346 -0.5065
  995TIP3    H124476   1.329   5.324  13.818 -1.6965 -0.4476 -0.4854
  995TIP3    H224477   1.205   5.237  13.825 -0.2601 -2.4694  0.5816
  996TIP3   OH224478   4.719   1.989   2.755  0.0398 -0.1568 -0.4626
  996TIP3    H124479   4.625   1.998   2.773  0.1282 -0.0662 -0.0269
  996TIP3    H224480   4.751   1.933   2.825  0.3318 -0.0969 -0.5489
  997TIP3   OH224481   5.549   6.687  12.594 -0.2257  0.6671  0.2541
  997TIP3    H124482   5.591   6.755  12.543 -0.7517  0.2832 -0.7309
  997TIP3    H224483   5.544   6.722  12.683 -0.1723  1.7626 -0.1620
  998TIP3   OH224484   5.577   6.102   2.168  0.3748 -0.3124  0.0573
  998TIP3    H124485   5.516   6.155   2.117  0.4989  0.9917  1.1811
  998TIP3    H224486   5.524   6.068   2.241  0.8469  0.4415  0.7773
  999TIP3   OH224487   1.319   4.848  16.102  0.4395  0.0421  0.4267
  999TIP3    H124488   1.306   4.798  16.021 -2.2468  0.3694  0.5615
  999TIP3    H224489   1.361   4.929  16.074 -0.3558  0.1031 -0.6552
 1000TIP3   OH224490   6.699   0.714  14.057 -0.2711  0.6835 -0.0333
 1000TIP3    H124491   6.682   0.621  14.067 -0.2372  0.8304  1.8881
 1000TIP3    H224492   6.621   0.749  14.015 -0.4184 -0.1585 -0.4732
 1001TIP3   OH224493   1.407   6.126   3.029  0.6289  0.2664 -0.5406
 1001TIP3    H124494   1.340   6.071   2.986  0.2161 -0.5511  1.0700
 1001TIP3    H224495   1.487   6.107   2.982  0.1597 -0.4862 -1.0595
 1002TIP3   OH224496   6.652   6.728  17.201  0.0246 -0.5960 -0.0701
 1002TIP3    H124497   6.625   6.664  17.136  0.6536 -1.0282  0.0838
 1002TIP3    H224498   6.607   6.809  17.175  0.8656 -0.5506 -1.5061
 1003TIP3   OH224499   1.562   1.832   2.310  0.1161 -0.0235  0.0877
 1003TIP3    H124500   1.554   1.769   2.382 -0.1172  0.1135  0.1807
 1003TIP3    H224501   1.650   1.816   2.275 -0.0821 -0.6642 -0.1350
 1004TIP3   OH224502   6.073   4.089   5.934 -0.2754  0.2810  0.7318
 1004TIP3    H124503   6.047   4.010   5.982  0.2520  0.1980  0.8969
 1004TIP3    H224504   6.158   4.112   5.972 -0.3255  0.8021  0.5311
 1005TIP3   OH224505   0.371   5.161  16.565  0.4115 -0.0534  0.9442
 1005TIP3    H124506   0.425   5.221  16.513  0.9443 -0.5906  0.8622
 1005TIP3    H224507   0.430   5.131  16.634  0.3041 -0.8825  0.6763
 1006TIP3   OH224508   6.700   1.484  10.635 -0.2493 -0.1816  0.0013
 1006TIP3    H124509   6.690   1.411  10.573  1.7303 -0.8820  0.4400
 1006TIP3    H224510   6.614   1.492  10.676 -0.8800 -1.3887 -1.0111
 1007TIP3   OH224511   0.135   4.605  14.784  0.6731  0.1230  1.0853
 1007TIP3    H124512   0.097   4.656  14.713 -0.9550 -0.5976  1.4032
 1007TIP3    H224513   0.194   4.666  14.828 -0.4846  1.4445  0.8688
 1008TIP3   OH224514   0.866   2.655   2.944  0.4814 -0.1467  0.2002
 1008TIP3    H124515   0.834   2.584   3.001 -0.6609 -0.2654 -0.5423
 1008TIP3    H224516   0.960   2.660   2.962 -0.1076  1.4821  3.9389
 1009TIP3   OH224517   1.852   1.732   5.350  0.0081 -0.4338 -0.1134
 1009TIP3    H124518   1.803   1.751   5.270 -1.3061  1.1018  1.0044
 1009TIP3    H224519   1.940   1.767   5.333 -0.8805  1.9729 -0.0935
 1010TIP3   OH224520   1.569   6.003  13.056 -0.2535 -0.1671 -0.0588
 1010TIP3    H124521   1.616   5.998  12.973  0.1788  1.2463  0.0757
 1010TIP3    H224522   1.510   6.078  13.046  0.5819  0.7032  1.2761
 1011TIP3   OH224523   1.498   2.172  17.005 -0.1727 -0.5370  0.0721
 1011TIP3    H124524   1.509   2.194  16.912  0.0700 -2.0345 -0.2803
 1011TIP3    H224525   1.571   2.114  17.025  1.1752  1.6381  1.8957
 1012TIP3   OH224526   5.010   4.428   0.681 -0.2711 -0.8174 -0.0376
 1012TIP3    H124527   5.066   4.359   0.645 -1.3504 -0.9874 -1.4789
 1012TIP3    H224528   4.963   4.463   0.605 -1.2671  0.0932  0.9633
 1013TIP3   OH224529   1.480   5.453   2.245 -0.2066  0.4729 -0.6380
 1013TIP3    H124530   1.416   5.485   2.308  0.0772  0.6286 -0.4292
 1013TIP3    H224531   1.427   5.421   2.172 -0.5506 -0.0853 -0.1501
 1014TIP3   OH224532   3.619   4.122   2.313  0.4561  0.6665 -0.4310
 1014TIP3    H124533   3.561   4.047   2.326  1.5135 -0.3817 -1.4556
 1014TIP3    H224534   3.639   4.153   2.402 -0.6057  0.2170 -0.0279
 1015TIP3   OH224535   1.094   1.563   0.669  0.3760  0.0545  0.5094
 1015TIP3    H124536   1.071   1.645   0.714 -0.4892 -0.9797  2.0612
 1015TIP3    H224537   1.187   1.572   0.649  0.4676  1.1172  1.3089
 1016TIP3   OH224538   4.406   1.996  12.526 -0.4953  0.1900  0.1492
 1016TIP3    H124539   4.475   1.984  12.591  1.2066 -0.6531 -1.6999
 1016TIP3    H224540   4.366   1.910  12.516 -0.0633  0.0664 -0.6128
 1017TIP3   OH224541   4.698   4.186   5.587 -0.4883  0.3618  0.3026
 1017TIP3    H124542   4.664   4.248   5.523  0.1276 -1.4361 -1.8938
 1017TIP3    H224543   4.622   4.133   5.612 -0.2936 -0.5167 -0.8825
 1018TIP3   OH224544   4.015   5.626   5.792  0.7413 -0.3896 -0.2753
 1018TIP3    H124545   3.954   5.699   5.801 -0.4242 -1.2126 -1.0729
 1018TIP3    H224546   3.992   5.587   5.708  2.1381 -0.9643 -0.4156
 1019TIP3   OH224547   6.294   2.576   2.848 -0.4705  0.0597 -0.2580
 1019TIP3    H124548   6.318   2.524   2.771 -1.2927  1.1828 -1.3083
 1019TIP3    H224549   6.241   2.516   2.901 -0.7077 -0.4503 -1.0409
 1020TIP3   OH224550   2.290   5.887  13.721  0.4470  0.2716 -0.4929
 1020TIP3    H124551   2.349   5.937  13.665  0.9853  1.2333  0.8918
 1020TIP3    H224552   2.319   5.796  13.712 -0.0234  0.2480 -2.4000
 1021TIP3   OH224553   5.120   3.848  14.918  0.2806 -0.1475 -0.1534
 1021TIP3    H124554   5.147   3.939  14.913  2.3448 -0.7156  0.0043
 1021TIP3    H224555   5.052   3.846  14.986 -0.5679  1.4003 -0.9026
 1022TIP3   OH224556   0.090   5.903   3.075 -0.8501  0.2345  0.1543
 1022TIP3    H124557   0.057   5.991   3.090 -0.2514  0.4933 -0.0069
 1022TIP3    H224558   0.089   5.892   2.980 -0.7297  0.1485  0.1620
 1023TIP3   OH224559   4.922   5.876   4.362 -0.6763 -0.1896  0.1834
 1023TIP3    H124560   4.920   5.869   4.458  3.8784  0.3843  0.5120
 1023TIP3    H224561   4.937   5.787   4.331  1.5490  0.0716  0.3649
 1024TIP3   OH224562   6.338   0.347  11.849  0.0918  0.3952 -0.2182
 1024TIP3    H124563   6.382   0.396  11.779 -0.0130  0.1692 -0.4425
 1024TIP3    H224564   6.370   0.388  11.930  0.5793  0.3533 -0.3823
 1025TIP3   OH224565   3.708   0.983  16.852  0.2411  0.6888 -0.4198
 1025TIP3    H124566   3.619   0.993  16.885 -0.1400 -3.2844  0.2333
 1025TIP3    H224567   3.697   0.955  16.761  0.7661 -0.0558 -0.2677
 1026TIP3   OH224568   4.555   2.552  12.289 -0.7581 -0.0818 -0.2846
 1026TIP3    H124569   4.603   2.560  12.372 -1.3657  0.3310  0.0367
 1026TIP3    H224570   4.579   2.465  12.256 -0.9965 -0.5149  0.6458
 1027TIP3   OH224571   0.078   6.140   0.240 -0.3650 -1.2094 -0.0420
 1027TIP3    H124572   0.094   6.160   0.148 -1.2192  0.0475  0.0667
 1027TIP3    H224573  -0.012   6.107   0.243 -1.0726  0.6567  0.5812
 1028TIP3   OH224574   4.521   4.240   2.880 -0.0091 -0.3452 -0.5440
 1028TIP3    H124575   4.523   4.299   2.804 -0.5052 -0.4035 -0.6081
 1028TIP3    H224576   4.552   4.156   2.845 -0.7469 -0.5098 -0.8134
 1029TIP3   OH224577   4.768   1.348  16.265  0.5276 -0.0715  0.6931
 1029TIP3    H124578   4.758   1.259  16.300  0.9698 -0.7052 -0.6949
 1029TIP3    H224579   4.707   1.351  16.190 -0.0805  1.0868  1.2062
 1030TIP3   OH224580   2.650   5.152  12.799 -0.7099 -0.0039  0.0669
 1030TIP3    H124581   2.715   5.201  12.748  0.1479  0.0076  1.1263
 1030TIP3    H224582   2.662   5.185  12.889 -2.5297  0.3594  0.2048
 1031TIP3   OH224583   5.445   0.962  13.040  1.0500 -0.4416 -0.7140
 1031TIP3    H124584   5.452   0.960  13.136  1.3205  0.6826 -0.6953
 1031TIP3    H224585   5.525   0.918  13.010  1.4584  0.0782 -0.4163
 1032TIP3   OH224586   1.198   6.344   4.731  0.3785  0.4921  0.4546
 1032TIP3    H124587   1.287   6.329   4.761  0.8853  0.1261 -1.1250
 1032TIP3    H224588   1.162   6.257   4.717 -0.2413  0.6387  1.1129
 1033TIP3   OH224589   4.352   5.693  12.899  0.3112 -0.0950 -0.0686
 1033TIP3    H124590   4.420   5.636  12.861 -0.4072 -0.1253 -1.3770
 1033TIP3    H224591   4.389   5.722  12.982 -0.2541 -4.4734  2.0218
 1034TIP3   OH224592   3.985   3.947  11.776 -0.1934 -0.2312  0.3871
 1034TIP3    H124593   3.988   3.969  11.683 -0.1858 -1.2013  0.1442
 1034TIP3    H224594   4.069   3.978  11.810  0.3404 -0.9705 -0.2007
 1035TIP3   OH224595   6.665   2.130  14.047  0.3803  0.4999  0.0681
 1035TIP3    H124596   6.678   2.070  13.974 -1.7404 -0.6687  0.5673
 1035TIP3    H224597   6.697   2.214  14.015 -1.5945  0.3265 -2.7232
 1036TIP3   OH224598   5.126   1.293  12.131  0.1079  0.1321  0.2963
 1036TIP3    H124599   5.206   1.241  12.130 -0.6857 -1.1193 -0.4860
 1036TIP3    H224600   5.115   1.321  12.040  0.8038  2.1903  0.7771
 1037TIP3   OH224601   5.255   3.974  16.002  0.1784  0.4585  0.6767
 1037TIP3    H124602   5.231   4.061  15.968 -0.3523 -0.3570 -1.1657
 1037TIP3    H224603   5.191   3.957  16.071 -0.5767  0.9912  0.1326
 1038TIP3   OH224604   2.660   2.810   2.371  0.0771  0.4105 -0.0004
 1038TIP3    H124605   2.728   2.785   2.433  0.5171 -0.3882 -0.7795
 1038TIP3    H224606   2.601   2.734   2.368  0.5409  0.0619 -1.1887
 1039TIP3   OH224607   0.969   4.976  11.359 -0.1834 -0.3549  0.0924
 1039TIP3    H124608   0.991   4.973  11.452  1.3720  1.4285 -0.1647
 1039TIP3    H224609   0.874   4.966  11.357 -0.4551  1.2168  2.0140
 1040TIP3   OH224610   1.868   3.456   4.554 -0.3461 -0.7729 -0.0692
 1040TIP3    H124611   1.909   3.535   4.589  0.5785 -1.8781  1.4430
 1040TIP3    H224612   1.932   3.420   4.493  0.6657 -1.9954  1.6015
 1041TIP3   OH224613   2.188   2.020   2.675 -1.0636 -0.1933 -0.1509
 1041TIP3    H124614   2.118   2.074   2.710  0.1715  1.1532  0.3427
 1041TIP3    H224615   2.206   1.956   2.744 -0.0351  1.1555  0.8961
 1042TIP3   OH224616   6.274   6.812  16.631 -0.0176  0.0784  0.5452
 1042TIP3    H124617   6.215   6.795  16.704 -0.4116  0.1377  0.2436
 1042TIP3    H224618   6.264   6.736  16.573  0.6924 -0.2257  0.8094
 1043TIP3   OH224619   2.750   3.869   0.711 -0.2989 -0.5235 -0.0287
 1043TIP3    H124620   2.726   3.777   0.697 -0.0144 -0.7572  0.9200
 1043TIP3    H224621   2.712   3.891   0.796 -0.9972  0.4739 -0.5813
 1044TIP3   OH224622   1.587   2.138   0.710 -0.1852  0.0466  0.3219
 1044TIP3    H124623   1.544   2.082   0.644  1.2951  0.2544 -0.8616
 1044TIP3    H224624   1.570   2.093   0.793 -3.4468  0.5740  0.0973
 1045TIP3   OH224625   4.167   6.772  12.476  0.0742 -0.0731 -0.2733
 1045TIP3    H124626   4.238   6.726  12.431 -0.8548  0.3208 -2.2785
 1045TIP3    H224627   4.090   6.717  12.463 -0.7897  1.3698 -1.6470
 1046TIP3   OH224628   3.050   0.577  13.856  0.0509 -0.2743 -0.0581
 1046TIP3    H124629   3.006   0.504  13.899 -0.0399  0.3068  0.8563
 1046TIP3    H224630   3.091   0.626  13.927 -1.9093  1.9435 -0.3335
 1047TIP3   OH224631   5.482   5.252   2.722  0.2598  0.2233 -0.1334
 1047TIP3    H124632   5.402   5.216   2.683  0.1774 -0.8905  0.9887
 1047TIP3    H224633   5.488   5.341   2.687 -0.4650 -0.2956 -1.6779
 1048TIP3   OH224634   0.768   0.957  11.737  0.1624  0.2499 -0.0274
 1048TIP3    H124635   0.736   1.045  11.754 -1.9935 -0.1866 -1.4243
 1048TIP3    H224636   0.690   0.907  11.714  1.2939 -2.0878  0.8720
 1049TIP3   OH224637   1.769   3.724  16.174 -0.0908  0.2653  0.3561
 1049TIP3    H124638   1.767   3.636  16.136 -1.0077 -0.1242  1.2525
 1049TIP3    H224639   1.824   3.775  16.115  1.4024 -1.1887  0.4200
 1050TIP3   OH224640   4.226   2.820   6.675 -0.0409  0.4214  0.0281
 1050TIP3    H124641   4.278   2.862   6.606  0.3543 -1.0289 -0.5918
 1050TIP3    H224642   4.189   2.742   6.633 -2.2861  1.1043  0.6150
 1051TIP3   OH224643   2.811   1.678  12.201 -0.0766 -0.0770 -0.3827
 1051TIP3    H124644   2.859   1.666  12.283  1.1318  0.0111 -1.0529
 1051TIP3    H224645   2.831   1.600  12.149 -1.1668 -0.3291 -0.4482
 1052TIP3   OH224646   3.339   4.867  15.666 -0.2503 -0.3009 -0.1572
 1052TIP3    H124647   3.361   4.958  15.647 -3.0680  0.9457  1.8118
 1052TIP3    H224648   3.412   4.835  15.719  0.3471  1.1307 -0.0774
 1053TIP3   OH224649   1.840   3.563   3.956 -0.8401 -0.4570  0.6854
 1053TIP3    H124650   1.863   3.655   3.947 -0.9417 -0.5376 -0.5949
 1053TIP3    H224651   1.900   3.529   4.022  1.7397 -0.3176 -1.4236
 1054TIP3   OH224652   5.603   0.619  14.682  0.4973 -1.0451 -0.1412
 1054TIP3    H124653   5.663   0.691  14.698 -0.8180  0.2569 -0.8494
 1054TIP3    H224654   5.588   0.580  14.768 -1.1855  1.5169  0.8283
 1055TIP3   OH224655   3.407   2.850  14.581  0.5569  0.0432 -0.2832
 1055TIP3    H124656   3.398   2.821  14.490  0.5628  0.4858 -0.4249
 1055TIP3    H224657   3.498   2.830  14.603 -0.0951 -2.5143  0.4847
 1056TIP3   OH224658   2.895   2.676  12.169 -0.3279 -0.2030 -0.0567
 1056TIP3    H124659   2.809   2.649  12.200  0.0393  0.5982  1.8184
 1056TIP3    H224660   2.919   2.750  12.225  1.1981  0.1950 -1.1391
 1057TIP3   OH224661   4.917   4.831  14.953 -0.1749  0.3325 -0.4265
 1057TIP3    H124662   4.857   4.900  14.981 -0.5597 -0.9107  2.0309
 1057TIP3    H224663   4.883   4.752  14.994  2.6793 -0.5526  0.4114
 1058TIP3   OH224664   6.386   6.755   3.461 -0.6473 -0.1934 -0.2616
 1058TIP3    H124665   6.463   6.698   3.457  0.5150  1.2767  0.2188
 1058TIP3    H224666   6.322   6.704   3.511  0.6140 -0.8098  0.7994
 1059TIP3   OH224667   5.223   0.736  14.254 -0.2512 -0.5522  0.0394
 1059TIP3    H124668   5.274   0.755  14.175 -0.9901  1.6019  0.0152
 1059TIP3    H224669   5.269   0.782  14.324 -1.1260 -0.0766  0.3290
 1060TIP3   OH224670   2.453   5.593   6.073 -0.1856  0.3441 -0.2202
 1060TIP3    H124671   2.491   5.598   6.161 -0.4716  1.3996 -0.1474
 1060TIP3    H224672   2.360   5.579   6.088 -0.2671  0.7419 -0.3513
 1061TIP3   OH224673   4.098   6.556  10.619 -0.1175 -0.1213  0.3461
 1061TIP3    H124674   4.014   6.559  10.573 -0.8277  0.9886  1.6334
 1061TIP3    H224675   4.096   6.474  10.668 -1.6044  1.0317  2.3510
 1062TIP3   OH224676   5.911   0.773   2.548  0.2578 -0.0882 -0.0980
 1062TIP3    H124677   5.914   0.860   2.588 -3.0946 -0.4958  1.4370
 1062TIP3    H224678   5.823   0.767   2.511  1.6777 -1.4921 -3.6988
 1063TIP3   OH224679   6.153   0.737   5.162  0.5284 -0.3167 -0.1702
 1063TIP3    H124680   6.240   0.697   5.161  0.8060  0.2490  0.5339
 1063TIP3    H224681   6.102   0.686   5.099  1.3021 -0.8047 -0.4094
 1064TIP3   OH224682   6.495   5.721   0.344 -0.4012 -0.2392  0.1124
 1064TIP3    H124683   6.580   5.763   0.355 -0.3698 -0.6670  1.9107
 1064TIP3    H224684   6.513   5.627   0.354 -0.7339 -0.5974 -2.0880
 1065TIP3   OH224685   4.359   6.714  13.915  0.8204 -0.4580  0.5485
 1065TIP3    H124686   4.427   6.733  13.852 -0.3887 -1.3578 -1.1170
 1065TIP3    H224687   4.277   6.724  13.866 -0.1804 -0.9245  2.0452
 1066TIP3   OH224688   5.186   5.641   1.438  0.9392 -0.1514  0.4109
 1066TIP3    H124689   5.209   5.562   1.486 -1.4663 -1.0264  0.2380
 1066TIP3    H224690   5.264   5.697   1.445  1.3510 -0.9527  3.7321
 1067TIP3   OH224691   2.531   5.139   1.849  0.2696 -0.3403 -0.6224
 1067TIP3    H124692   2.489   5.189   1.780 -0.1158  0.3052  0.0651
 1067TIP3    H224693   2.610   5.188   1.872  0.3712 -0.5250 -0.5653
 1068TIP3   OH224694   0.577   3.217  14.370 -0.3104 -0.4759  0.2176
 1068TIP3    H124695   0.483   3.201  14.356  0.0804 -1.2164 -1.7671
 1068TIP3    H224696   0.596   3.173  14.453 -1.6934 -0.3438  0.6425
 1069TIP3   OH224697   0.331   4.148   0.927  1.0916 -0.2936  0.3404
 1069TIP3    H124698   0.373   4.223   0.969  1.0531  0.2386 -0.5511
 1069TIP3    H224699   0.238   4.160   0.943  1.0700 -0.0437  0.0126
 1070TIP3   OH224700   1.632   0.379  12.628  0.4653 -0.5611  0.5858
 1070TIP3    H124701   1.717   0.367  12.670  0.7119  1.7391  0.8972
 1070TIP3    H224702   1.651   0.423  12.545 -0.3572 -0.6701  0.3245
 1071TIP3   OH224703   0.762   2.474  10.546  0.8519  0.1456  0.4723
 1071TIP3    H124704   0.803   2.388  10.557 -0.0535 -0.0885  2.4922
 1071TIP3    H224705   0.669   2.455  10.539  0.8306  0.8096 -2.1048
 1072TIP3   OH224706   5.350   4.205   0.811 -0.4828 -0.2486 -0.1180
 1072TIP3    H124707   5.368   4.231   0.720  0.5711  0.3188  0.2299
 1072TIP3    H224708   5.378   4.114   0.815  0.5212  0.0419 -0.1054
 1073TIP3   OH224709   0.852   1.612   5.213 -0.3426 -0.4224 -0.3966
 1073TIP3    H124710   0.797   1.607   5.291 -0.4375 -0.2362 -0.4498
 1073TIP3    H224711   0.848   1.524   5.175 -0.9957 -0.2816 -0.6649
 1074TIP3   OH224712   4.083   4.515  15.645  0.0092  0.5677 -0.0441
 1074TIP3    H124713   4.005   4.536  15.594 -0.8021  0.3775  1.0786
 1074TIP3    H224714   4.145   4.585  15.622 -1.4198  2.2870  0.9957
 1075TIP3   OH224715   6.150   1.768  11.755  0.3103  0.6838  0.5379
 1075TIP3    H124716   6.218   1.811  11.703  0.7879  0.8883  1.3117
 1075TIP3    H224717   6.196   1.735  11.832  0.2281 -2.3715 -0.5723
 1076TIP3   OH224718   4.527   6.280  11.208  0.1500  0.3576 -0.0594
 1076TIP3    H124719   4.434   6.298  11.202 -0.0889 -0.5945  0.6480
 1076TIP3    H224720   4.535   6.214  11.276  1.3886  0.7437  0.1994
 1077TIP3   OH224721   3.264   6.351  14.216  0.3785 -0.3259 -0.0390
 1077TIP3    H124722   3.223   6.436  14.235 -0.9916 -1.1804  1.0961
 1077TIP3    H224723   3.324   6.368  14.144 -0.3521  1.4706 -0.2662
 1078TIP3   OH224724   4.427   0.505  11.865  0.3804 -0.1935  0.2812
 1078TIP3    H124725   4.395   0.520  11.776  0.1259  0.6213  0.5017
 1078TIP3    H224726   4.352   0.467  11.912 -0.4679  2.0630  0.8999
 1079TIP3   OH224727   0.461   2.436  16.529 -0.2472  0.1693 -0.2893
 1079TIP3    H124728   0.378   2.435  16.575 -0.3575  3.0634 -0.2440
 1079TIP3    H224729   0.442   2.398  16.443 -1.2412 -0.5285  0.2285
 1080TIP3   OH224730   1.080   0.822  12.791  0.0450 -0.3560  0.0811
 1080TIP3    H124731   1.165   0.867  12.790  0.3397 -0.9006 -0.5067
 1080TIP3    H224732   1.092   0.747  12.732 -1.4293  0.6603 -1.6454
 1081TIP3   OH224733   0.672   4.687  12.073  0.1917  0.2483  0.3467
 1081TIP3    H124734   0.716   4.742  12.138  2.0011 -0.3095 -0.3443
 1081TIP3    H224735   0.679   4.598  12.110 -1.4074  0.2695  0.7618
 1082TIP3   OH224736   4.828   5.298   5.706  0.4870 -0.1251  0.3556
 1082TIP3    H124737   4.901   5.347   5.745 -0.1971  0.9487  0.3124
 1082TIP3    H224738   4.816   5.224   5.765  0.3543  0.7458  1.4617
 1083TIP3   OH224739   1.512   3.986  14.792 -0.2818  0.7058  0.3706
 1083TIP3    H124740   1.477   4.075  14.800 -0.2454  0.8001 -0.4832
 1083TIP3    H224741   1.520   3.971  14.698  1.7705  0.6152  0.5255
 1084TIP3   OH224742   2.894   2.034   2.781 -0.3978  0.3293 -0.3380
 1084TIP3    H124743   2.830   2.032   2.852 -2.0886  1.6097 -1.7290
 1084TIP3    H224744   2.978   2.048   2.825 -1.6476  3.6005  1.3504
 1085TIP3   OH224745   5.421   4.901  16.437 -0.1939  0.3215  0.1714
 1085TIP3    H124746   5.328   4.887  16.421 -0.0253  1.4719 -2.1603
 1085TIP3    H224747   5.426   4.986  16.481 -0.2184  0.4926 -0.1556
 1086TIP3   OH224748   0.517   1.724  12.744  0.2453 -0.3935  0.5521
 1086TIP3    H124749   0.456   1.737  12.671  0.8062 -2.4706 -0.3530
 1086TIP3    H224750   0.604   1.730  12.705  0.5727 -0.8173  1.1969
 1087TIP3   OH224751   3.017   1.134  14.838 -0.1736  0.4326  0.6636
 1087TIP3    H124752   3.063   1.215  14.816 -0.4764  0.2349 -0.7873
 1087TIP3    H224753   2.928   1.162  14.857 -0.4375  0.3864 -0.4597
 1088TIP3   OH224754   0.779   2.084  11.687  0.3171  0.2910 -0.5302
 1088TIP3    H124755   0.839   2.073  11.613  0.6375 -2.1558 -0.0138
 1088TIP3    H224756   0.834   2.118  11.757  0.3384  1.2335 -0.9932
 1089TIP3   OH224757   0.079   5.043   3.753 -0.2781  0.0650 -0.6343
 1089TIP3    H124758   0.029   5.101   3.810  0.1257  0.5489 -0.7645
 1089TIP3    H224759   0.041   5.056   3.666 -1.1188 -0.9258 -0.4331
 1090TIP3   OH224760   6.466   6.195   1.005 -0.0893  0.0889 -0.0972
 1090TIP3    H124761   6.511   6.271   1.043  1.8481 -0.5621 -0.9452
 1090TIP3    H224762   6.411   6.162   1.076 -1.4174  2.5534  0.1306
 1091TIP3   OH224763   0.310   5.240   3.636 -0.4665  0.1197 -0.0900
 1091TIP3    H124764   0.390   5.188   3.633 -0.7734 -0.4418  0.9724
 1091TIP3    H224765   0.266   5.212   3.717 -2.2131 -0.2744 -1.1307
 1092TIP3   OH224766   4.506   3.210  11.429 -0.0259 -0.4358  0.4725
 1092TIP3    H124767   4.496   3.203  11.524 -3.3854 -0.7298  0.2330
 1092TIP3    H224768   4.513   3.120  11.399  0.9791 -0.3445  0.3905
 1093TIP3   OH224769   5.546   1.593  11.405 -0.1575 -0.7056  0.3369
 1093TIP3    H124770   5.500   1.536  11.467  0.7451  0.1692  1.8277
 1093TIP3    H224771   5.475   1.640  11.360 -0.8101 -0.0894  1.9228
 1094TIP3   OH224772   1.897   5.693   3.091  0.2717  0.0157 -0.7449
 1094TIP3    H124773   1.965   5.755   3.066  1.0660 -1.1857 -1.6397
 1094TIP3    H224774   1.937   5.607   3.080 -1.1070 -0.6956 -0.4415
 1095TIP3   OH224775   6.779   5.833   0.362 -0.1489  0.0636 -0.2943
 1095TIP3    H124776   6.852   5.789   0.317 -1.9791 -1.9085 -1.5060
 1095TIP3    H224777   6.740   5.889   0.295 -0.1238  0.6812  0.1931
 1096TIP3   OH224778   0.257   4.877   1.906 -0.1282 -0.2622  0.5323
 1096TIP3    H124779   0.233   4.966   1.878 -1.1365 -0.0909  1.8234
 1096TIP3    H224780   0.332   4.890   1.963 -0.2959 -0.2192  0.7476
 1097TIP3   OH224781   0.007   5.128   1.064 -0.0855  0.0648  0.0786
 1097TIP3    H124782   0.095   5.121   1.100 -0.4013  1.0592  1.1069
 1097TIP3    H224783  -0.049   5.140   1.140 -0.9678  0.5685 -0.6323
 1098TIP3   OH224784   6.554   5.159  14.306  0.2825  0.6307  0.2398
 1098TIP3    H124785   6.575   5.173  14.399 -2.2581 -0.7419  1.0919
 1098TIP3    H224786   6.473   5.208  14.292  0.1543  0.0992 -1.0261
 1099TIP3   OH224787   6.286   2.469  16.643 -0.2495  0.0224 -0.0381
 1099TIP3    H124788   6.360   2.494  16.587 -0.3829  0.3425 -0.0743
 1099TIP3    H224789   6.327   2.446  16.727  0.1464 -2.3225 -0.8036
 1100TIP3   OH224790   1.448   4.936  14.906  0.5900  0.6216 -0.2085
 1100TIP3    H124791   1.487   5.022  14.922  1.7938  0.5771 -2.3570
 1100TIP3    H224792   1.521   4.875  14.916 -0.4369 -0.3083  2.1413
 1101TIP3   OH224793   5.558   3.881  13.461  0.4458 -1.0039 -0.5294
 1101TIP3    H124794   5.562   3.792  13.498  1.8719  0.5463  3.6072
 1101TIP3    H224795   5.649   3.902  13.440  0.5625  0.3935  1.1970
 1102TIP3   OH224796   4.429   0.266  15.048 -0.8217 -0.0749 -0.1768
 1102TIP3    H124797   4.473   0.221  14.976 -0.3006  1.0834 -0.5972
 1102TIP3    H224798   4.386   0.341  15.008 -0.9856  0.2759  0.6288
 1103TIP3   OH224799   0.035   6.548   4.127  0.1556  0.3872  0.5199
 1103TIP3    H124800   0.056   6.640   4.142 -1.8998  0.7046  1.9476
 1103TIP3    H224801   0.092   6.501   4.187  1.7392  0.6074 -0.7278
 1104TIP3   OH224802   6.715   6.588  13.706 -0.8686  0.2364  0.3774
 1104TIP3    H124803   6.787   6.552  13.655 -1.6244 -0.2566 -0.3723
 1104TIP3    H224804   6.744   6.676  13.732 -0.4230  0.4550 -0.8185
 1105TIP3   OH224805   3.373   6.347   1.568 -0.3313 -0.1478 -0.0046
 1105TIP3    H124806   3.298   6.331   1.511  0.8905 -2.0840 -1.1914
 1105TIP3    H224807   3.386   6.442   1.567 -2.2623  0.1423 -0.3668
 1106TIP3   OH224808   0.464   2.366  13.324 -0.3151 -0.2943  0.4795
 1106TIP3    H124809   0.540   2.345  13.269 -1.3084  2.4098 -2.2303
 1106TIP3    H224810   0.421   2.282  13.339  0.3838 -1.3109 -2.4494
 1107TIP3   OH224811   6.614   5.347  15.280  0.3844  0.3827 -0.2284
 1107TIP3    H124812   6.573   5.412  15.222 -1.5274 -0.1266  0.4479
 1107TIP3    H224813   6.623   5.269  15.226 -1.1852 -0.0227  0.0461
 1108TIP3   OH224814   2.675   0.436   3.328 -0.0008  0.2375  0.0802
 1108TIP3    H124815   2.743   0.484   3.281  1.6389 -0.9214  1.1187
 1108TIP3    H224816   2.661   0.485   3.408  1.3813 -0.7196  0.9541
 1109TIP3   OH224817   3.177   5.656   0.790  0.2686  0.0711 -0.1528
 1109TIP3    H124818   3.121   5.579   0.797  0.0508  0.1750 -0.7679
 1109TIP3    H224819   3.241   5.634   0.722  1.8721 -0.6028  1.4920
 1110TIP3   OH224820   3.730   4.311   5.975 -0.8321 -0.3556 -0.0464
 1110TIP3    H124821   3.779   4.331   5.895  0.5446 -0.4806  0.7359
 1110TIP3    H224822   3.772   4.233   6.010 -1.1422 -0.0585  1.0300
 1111TIP3   OH224823   0.238   5.668   1.028  0.1771  0.8956 -0.0871
 1111TIP3    H124824   0.154   5.640   0.992  1.5265  0.0843 -2.8616
 1111TIP3    H224825   0.239   5.632   1.117 -1.2902 -1.4769 -0.9241
 1112TIP3   OH224826   0.865   5.596  15.109 -0.3960 -0.2221 -0.6286
 1112TIP3    H124827   0.949   5.551  15.119 -0.0571 -0.1855 -2.7958
 1112TIP3    H224828   0.801   5.526  15.099 -0.6006 -0.2459  0.7190
 1113TIP3   OH224829   2.496   4.495   2.016 -0.1156  0.2110  0.4647
 1113TIP3    H124830   2.479   4.403   1.999  0.7295 -0.0866  1.1808
 1113TIP3    H224831   2.471   4.539   1.935  0.4984 -0.7648 -0.2696
 1114TIP3   OH224832   2.422   0.430  12.446 -0.0861 -0.6083  0.3891
 1114TIP3    H124833   2.361   0.483  12.498  0.3621 -0.2633  0.5702
 1114TIP3    H224834   2.374   0.349  12.429 -1.6637  0.6666 -1.7724
 1115TIP3   OH224835   6.329   4.104   6.027  0.1132 -0.1364 -0.2360
 1115TIP3    H124836   6.422   4.106   6.006 -0.3432  0.5580 -2.4419
 1115TIP3    H224837   6.323   4.047   6.103  2.3659  0.0701  0.1645
 1116TIP3   OH224838   0.864   2.278  15.255  0.0857  0.1623  0.0610
 1116TIP3    H124839   0.784   2.330  15.246  0.6142  1.3816  1.8252
 1116TIP3    H224840   0.845   2.216  15.326  1.0294  1.2197  1.2834
 1117TIP3   OH224841   3.090   0.846  13.406  0.2473  0.0472  0.1923
 1117TIP3    H124842   3.140   0.769  13.378 -0.1916 -1.1946  2.5305
 1117TIP3    H224843   3.155   0.904  13.445  0.3688  0.1837 -0.2065
 1118TIP3   OH224844   0.584   2.790   1.722  0.0315 -0.2032  0.6948
 1118TIP3    H124845   0.644   2.725   1.684 -0.2746  0.2332 -0.5986
 1118TIP3    H224846   0.520   2.739   1.771 -1.8538 -1.2058 -2.5401
 1119TIP3   OH224847   0.216   6.345   0.787  0.0299  0.0998 -0.1575
 1119TIP3    H124848   0.282   6.393   0.736 -0.1215  0.0667 -0.3862
 1119TIP3    H224849   0.133   6.378   0.754 -0.0786 -0.4715 -0.4615
 1120TIP3   OH224850   3.652   0.468  14.901 -0.2766  0.2337  0.3820
 1120TIP3    H124851   3.617   0.502  14.983 -1.9733 -0.7952  0.1390
 1120TIP3    H224852   3.584   0.485  14.837  0.9829  0.9130 -0.8155
 1121TIP3   OH224853   3.057   6.191   6.612  0.3676  0.3257  0.1867
 1121TIP3    H124854   2.993   6.122   6.594  0.6140  0.7086 -2.5826
 1121TIP3    H224855   3.004   6.264   6.645 -0.2674 -0.1883  0.3464
 1122TIP3   OH224856   1.355   3.228  10.761  0.5548  0.5094  0.2208
 1122TIP3    H124857   1.426   3.291  10.748  0.8213  0.4327  1.2150
 1122TIP3    H224858   1.352   3.177  10.680 -1.0151  3.1043 -1.4989
 1123TIP3   OH224859   6.320   3.504  14.777 -0.4410 -0.0439 -0.0196
 1123TIP3    H124860   6.280   3.449  14.709 -1.2788 -0.0324  0.4609
 1123TIP3    H224861   6.394   3.545  14.732 -0.2484 -0.9708 -0.6017
 1124TIP3   OH224862   3.126   6.343   4.246  0.0935 -0.1296 -0.3017
 1124TIP3    H124863   3.040   6.326   4.285  0.1066  2.0261  0.8186
 1124TIP3    H224864   3.172   6.260   4.254 -1.1043 -0.7164  1.2008
 1125TIP3   OH224865   0.742   5.255  11.912 -0.3343  0.2549 -0.1601
 1125TIP3    H124866   0.723   5.313  11.986  2.3290  0.1487  0.7217
 1125TIP3    H224867   0.828   5.283  11.881  1.1142 -3.1927  0.3448
 1126TIP3   OH224868   1.579   3.246  12.070 -0.1249  0.2848  0.1533
 1126TIP3    H124869   1.621   3.208  11.993  0.0757 -0.8860  0.8065
 1126TIP3    H224870   1.530   3.174  12.109 -0.3900  0.9027  1.0021
 1127TIP3   OH224871   5.784   0.694  15.179 -0.5047 -0.3297  0.2679
 1127TIP3    H124872   5.764   0.786  15.197  3.8970  0.5030  2.1368
 1127TIP3    H224873   5.770   0.650  15.263 -2.4050 -1.4682 -0.5707
 1128TIP3   OH224874   1.401   6.303  16.136 -0.0569  0.5728  0.7115
 1128TIP3    H124875   1.449   6.225  16.107 -0.0595 -0.6506  3.6373
 1128TIP3    H224876   1.469   6.368  16.151  0.1331  0.5489  0.0076
 1129TIP3   OH224877   5.774   3.154  11.953 -0.0203  0.1325 -0.4567
 1129TIP3    H124878   5.808   3.170  11.865  0.8268  1.3501  0.0739
 1129TIP3    H224879   5.846   3.113  12.000 -0.9956 -2.0638 -0.7514
 1130TIP3   OH224880   1.667   5.169   1.086  0.1349 -0.1307  0.3169
 1130TIP3    H124881   1.730   5.235   1.115  0.1979 -0.7582  1.6963
 1130TIP3    H224882   1.632   5.203   1.004  1.1314  0.9753  0.3308
 1131TIP3   OH224883   0.936   5.328   3.490  0.4000  0.0182  0.1446
 1131TIP3    H124884   1.024   5.289   3.494  0.7017  0.5157 -1.0811
 1131TIP3    H224885   0.877   5.253   3.485  0.9846 -0.3673 -2.3345
 1132TIP3   OH224886   4.025   6.141  16.174  0.6871 -0.1707  0.3521
 1132TIP3    H124887   4.120   6.145  16.184  0.6529 -0.0108  0.6084
 1132TIP3    H224888   4.012   6.111  16.084  1.0082 -2.4077  0.9931
 1133TIP3   OH224889   4.323   4.817  13.072 -0.5970 -0.0284 -0.1594
 1133TIP3    H124890   4.310   4.734  13.118  0.9627  0.0894  0.5526
 1133TIP3    H224891   4.416   4.820  13.052 -0.1157  2.5029  1.7998
 1134TIP3   OH224892   1.352   4.862  16.389  0.1784 -0.1457 -0.4168
 1134TIP3    H124893   1.388   4.951  16.398  1.0357 -0.3933 -1.3083
 1134TIP3    H224894   1.311   4.862  16.303  0.9191 -0.8708 -0.7767
 1135TIP3   OH224895   4.616   1.222  14.278 -0.1524 -0.1597  0.0404
 1135TIP3    H124896   4.543   1.182  14.325  1.3202 -2.9631  0.1377
 1135TIP3    H224897   4.590   1.314  14.268 -3.2273 -0.8152  0.8773
 1136TIP3   OH224898   1.692   1.233   1.943 -0.9596  0.0810 -0.0530
 1136TIP3    H124899   1.630   1.229   2.016  1.1496 -0.4572  1.8391
 1136TIP3    H224900   1.683   1.148   1.899 -0.7274 -0.5149  1.0014
 1137TIP3   OH224901   5.240   1.706   1.352 -0.0164  0.3718 -0.1935
 1137TIP3    H124902   5.244   1.672   1.442 -2.5016  2.7555  0.9967
 1137TIP3    H224903   5.157   1.673   1.317 -1.4279  3.1217  0.2366
 1138TIP3   OH224904   3.174   1.611   5.503  0.1798 -0.1140  0.5084
 1138TIP3    H124905   3.104   1.622   5.439 -1.2690  0.5589  2.1400
 1138TIP3    H224906   3.192   1.517   5.503 -0.1358 -0.1880 -0.5066
 1139TIP3   OH224907   6.162   3.634   2.872 -0.0027 -0.3308  0.7041
 1139TIP3    H124908   6.175   3.716   2.919 -1.9794  0.3283  0.1849
 1139TIP3    H224909   6.168   3.566   2.939  0.4115  0.3331  1.3455
 1140TIP3   OH224910   2.603   1.806   3.331 -0.4092 -0.0951  0.3318
 1140TIP3    H124911   2.574   1.832   3.419 -0.0495 -0.6499  0.6146
 1140TIP3    H224912   2.529   1.829   3.275 -0.0421  1.7237  0.5305
 1141TIP3   OH224913   5.084   0.705   2.482  0.1159  0.0899 -0.2663
 1141TIP3    H124914   5.086   0.628   2.539  0.3862  0.1715 -0.1589
 1141TIP3    H224915   4.992   0.718   2.461 -0.0586  0.3868  0.6150
 1142TIP3   OH224916   3.257   2.375   0.049  0.0559  0.2853  0.1852
 1142TIP3    H124917   3.310   2.406   0.123  0.2370 -1.1994  0.7106
 1142TIP3    H224918   3.224   2.289   0.077 -1.7180  0.6676 -0.5770
 1143TIP3   OH224919   1.820   1.364   2.162 -0.5448 -0.2068  0.2195
 1143TIP3    H124920   1.748   1.388   2.220  0.0938 -0.1631  1.0046
 1143TIP3    H224921   1.781   1.304   2.099 -1.0453 -1.0048  1.2604
 1144TIP3   OH224922   3.056   4.422   3.331  0.2757 -0.2604 -0.5422
 1144TIP3    H124923   3.015   4.439   3.415 -0.7041  1.1639 -1.2570
 1144TIP3    H224924   3.137   4.473   3.332  0.2548 -0.2299 -0.4770
 1145TIP3   OH224925   2.997   4.990  12.521 -0.4674  0.0815  0.4984
 1145TIP3    H124926   3.083   5.013  12.487 -0.9021 -0.3557 -0.9883
 1145TIP3    H224927   2.999   5.018  12.612  2.1410 -2.1359  1.2662
 1146TIP3   OH224928   1.271   5.999   4.514  0.0130  0.3367  0.4059
 1146TIP3    H124929   1.250   6.092   4.509  1.0865  0.5559 -0.5452
 1146TIP3    H224930   1.329   5.991   4.590 -2.3991 -0.0853  2.3257
 1147TIP3   OH224931   5.046   0.555  11.821 -0.1855  0.0300  0.6086
 1147TIP3    H124932   5.045   0.607  11.740  1.8350  0.0066  0.5101
 1147TIP3    H224933   4.984   0.599  11.879  0.5392  1.8459  0.0861
 1148TIP3   OH224934   1.224   0.278  16.578  0.4284 -0.0331  0.3206
 1148TIP3    H124935   1.226   0.374  16.570 -0.6023 -0.0188  0.0166
 1148TIP3    H224936   1.313   0.250  16.560 -0.0233  0.5707 -3.8067
 1149TIP3   OH224937   1.986   0.232   2.926  0.9539 -0.0149  1.1350
 1149TIP3    H124938   2.080   0.239   2.909  0.5576  0.2604 -1.3765
 1149TIP3    H224939   1.980   0.198   3.015  3.3986  1.1934  1.8475
 1150TIP3   OH224940   0.306   6.620   3.174  0.3382 -0.5041 -0.1863
 1150TIP3    H124941   0.221   6.616   3.130  0.9396 -1.7378 -1.3160
 1150TIP3    H224942   0.287   6.656   3.261 -1.3664 -0.9548 -0.3384
 1151TIP3   OH224943   1.105   5.724   0.951  0.2190  0.5527 -0.1052
 1151TIP3    H124944   1.051   5.661   0.998 -0.3284  1.2438  0.2027
 1151TIP3    H224945   1.079   5.715   0.859 -2.0605  2.4210  0.2823
 1152TIP3   OH224946   5.735   0.226   4.122 -0.2567  0.3597 -0.6775
 1152TIP3    H124947   5.742   0.244   4.216  0.7606 -0.2765 -0.6154
 1152TIP3    H224948   5.652   0.179   4.113 -0.0228 -0.2178  0.0208
 1153TIP3   OH224949   2.644   2.514   4.632 -0.3092  0.0631 -0.7481
 1153TIP3    H124950   2.725   2.482   4.592 -0.8359 -0.6755 -1.2747
 1153TIP3    H224951   2.672   2.570   4.704  0.7503 -2.6484  1.1475
 1154TIP3   OH224952   4.020   5.051  14.707 -0.2888 -0.4490  0.2229
 1154TIP3    H124953   3.944   5.008  14.745 -0.4673 -0.5822 -0.2799
 1154TIP3    H224954   4.023   5.020  14.617  0.7474 -0.9491  0.4246
 1155TIP3   OH224955   1.999   3.821  14.210  0.5169 -0.3415  0.2825
 1155TIP3    H124956   1.984   3.881  14.136 -0.5850 -2.3058 -1.2078
 1155TIP3    H224957   1.954   3.862  14.283 -2.9447 -0.6917 -1.4278
 1156TIP3   OH224958   2.054   6.643   1.812  0.3697  0.4431 -0.3853
 1156TIP3    H124959   1.973   6.687   1.837  0.6750  1.2465 -0.7711
 1156TIP3    H224960   2.098   6.623   1.894 -0.7113 -0.9861 -0.1143
 1157TIP3   OH224961   2.252   2.815  15.187  0.6889 -0.1790  0.9261
 1157TIP3    H124962   2.252   2.780  15.098 -1.2751 -0.4853  0.9931
 1157TIP3    H224963   2.319   2.765  15.233  0.0026 -1.7805  0.2501
 1158TIP3   OH224964   3.816   1.972   1.406 -1.2707 -0.5134 -0.2000
 1158TIP3    H124965   3.871   2.006   1.476  0.2663 -1.4173 -0.9059
 1158TIP3    H224966   3.802   1.880   1.429  2.1798 -1.8816 -2.6321
 1159TIP3   OH224967   2.046   0.592   5.779 -0.6616  0.2233 -0.4803
 1159TIP3    H124968   1.960   0.553   5.793 -1.1416  0.7229 -1.8352
 1159TIP3    H224969   2.090   0.532   5.718  0.7558 -1.0869  1.7158
 1160TIP3   OH224970   0.682   4.987   1.285  0.4647  0.2756  0.2590
 1160TIP3    H124971   0.640   4.929   1.222 -0.0158 -0.8094  1.5497
 1160TIP3    H224972   0.633   4.975   1.366  1.4651  1.1635  1.0280
 1161TIP3   OH224973   4.833   4.194   0.799 -0.1361 -0.0198  0.0653
 1161TIP3    H124974   4.914   4.229   0.837  0.2616  0.0240 -0.8059
 1161TIP3    H224975   4.862   4.144   0.723 -0.9679  0.4284 -0.5665
 1162TIP3   OH224976   0.726   6.227  14.049  0.6272  0.3795  0.4142
 1162TIP3    H124977   0.729   6.225  14.144  0.0426 -0.4114  0.4220
 1162TIP3    H224978   0.815   6.250  14.023  1.2568 -1.1432  1.1164
 1163TIP3   OH224979   5.364   4.133   2.863 -0.1346  0.3331  0.3487
 1163TIP3    H124980   5.423   4.118   2.789 -0.1641 -1.0828  0.5911
 1163TIP3    H224981   5.276   4.120   2.828 -0.4666  3.4441 -0.2652
 1164TIP3   OH224982   4.703   3.862   2.075 -0.0162  0.5378  0.2542
 1164TIP3    H124983   4.734   3.828   2.159 -1.4628 -0.9273  0.2688
 1164TIP3    H224984   4.618   3.819   2.062  0.6934 -0.2694 -2.5366
 1165TIP3   OH224985   1.331   0.297   1.088  0.4875  0.1351  0.2601
 1165TIP3    H124986   1.307   0.229   1.025 -0.8087  0.7298  0.0614
 1165TIP3    H224987   1.412   0.266   1.128  1.0794 -0.4863 -1.3497
 1166TIP3   OH224988   5.333   6.147   3.132  0.1398 -0.9198  0.4938
 1166TIP3    H124989   5.401   6.116   3.192  0.2538 -1.7844 -0.0509
 1166TIP3    H224990   5.326   6.077   3.067 -1.3892 -0.9186  0.6258
 1167TIP3   OH224991   5.244   2.511  11.449 -0.0988  0.0403 -0.3128
 1167TIP3    H124992   5.239   2.416  11.450  0.1740  0.0170  1.4714
 1167TIP3    H224993   5.273   2.533  11.360  2.5007 -1.7075 -0.0175
 1168TIP3   OH224994   0.217   5.323  12.650  0.0379  0.3764  0.9274
 1168TIP3    H124995   0.303   5.320  12.692 -0.3115  3.2409  2.0775
 1168TIP3    H224996   0.161   5.270  12.707  0.8134 -0.7046  0.7102
 1169TIP3   OH224997   4.681   0.156  13.305  0.5860 -0.3763 -0.0219
 1169TIP3    H124998   4.597   0.129  13.342  0.6446 -0.0172  0.3891
 1169TIP3    H224999   4.741   0.084  13.325  0.5470 -0.3122  0.3437
 1170TIP3   OH225000   2.211   4.951  16.821 -0.6943 -0.3133  0.1423
 1170TIP3    H125001   2.210   5.021  16.755 -4.4723 -0.6874 -0.4209
 1170TIP3    H225002   2.204   4.871  16.770 -1.9450 -0.7120  0.9043
 1171TIP3   OH225003   6.295   0.244  14.889  0.3097  0.5332  0.0122
 1171TIP3    H125004   6.250   0.226  14.971  0.5631  0.0059  0.0433
 1171TIP3    H225005   6.349   0.320  14.907 -0.1171  0.8061  0.1456
 1172TIP3   OH225006   3.262   1.337   5.584 -0.6068  0.1782  0.1305
 1172TIP3    H125007   3.243   1.392   5.660 -2.2737 -1.5690  1.0619
 1172TIP3    H225008   3.326   1.273   5.616 -0.7268 -0.0907 -0.1610
 1173TIP3   OH225009   5.507   3.533   1.168 -0.2955 -0.6133 -0.2059
 1173TIP3    H125010   5.447   3.578   1.109 -0.9368 -2.9986 -1.5010
 1173TIP3    H225011   5.501   3.581   1.250 -1.4932  1.1422 -1.2580
 1174TIP3   OH225012   5.234   6.788   6.329 -0.4920  0.2237 -0.2533
 1174TIP3    H125013   5.174   6.747   6.391 -0.0983 -1.6504 -1.0434
 1174TIP3    H225014   5.210   6.881   6.330 -2.7242 -0.3038  0.2054
 1175TIP3   OH225015   5.540   3.587   4.281  0.5248 -0.5624  0.1979
 1175TIP3    H125016   5.623   3.635   4.274  1.6057 -1.6820  3.3637
 1175TIP3    H225017   5.523   3.583   4.375 -2.7238 -1.1500 -0.3127
 1176TIP3   OH225018   3.732   1.734   4.488  0.1610  0.3159 -0.5667
 1176TIP3    H125019   3.811   1.747   4.540 -0.1340  2.3819 -0.5593
 1176TIP3    H225020   3.676   1.680   4.543 -0.5293  3.1682  1.8085
 1177TIP3   OH225021   5.931   3.061   6.642  0.1374  0.5458 -0.6539
 1177TIP3    H125022   5.846   3.023   6.619 -0.0987  1.6588 -1.7695
 1177TIP3    H225023   5.994   2.991   6.626 -0.5240 -0.1446 -0.2734
 1178TIP3   OH225024   6.208   6.643   4.156 -0.5167 -0.0136  0.0027
 1178TIP3    H125025   6.113   6.652   4.148 -0.3694  2.3452  0.1379
 1178TIP3    H225026   6.243   6.673   4.072  0.1417  0.2585  0.3583
 1179TIP3   OH225027   3.444   5.171   5.841  0.6565 -0.2726  0.3480
 1179TIP3    H125028   3.515   5.109   5.822  1.1616 -0.3691  2.3076
 1179TIP3    H225029   3.487   5.257   5.840  0.5637 -0.2258  0.4059
 1180TIP3   OH225030   4.199   6.481  15.022  0.2142  0.0882 -0.0832
 1180TIP3    H125031   4.280   6.482  14.972 -0.0388 -0.0796 -0.5072
 1180TIP3    H225032   4.222   6.519  15.106  0.5596  0.7709 -0.4741
 1181TIP3   OH225033   6.654   6.079   0.218  0.1312  0.0434 -0.0008
 1181TIP3    H125034   6.651   6.155   0.161  0.2089 -1.3309 -1.9390
 1181TIP3    H225035   6.571   6.033   0.202  0.2807 -0.5327  0.7733
 1182TIP3   OH225036   3.315   6.065   3.732 -0.2798 -0.1238 -0.1502
 1182TIP3    H125037   3.364   6.092   3.810 -0.3592  1.5575 -0.6464
 1182TIP3    H225038   3.319   5.969   3.734  0.6883 -0.0967  1.2949
 1183TIP3   OH225039   4.436   2.688   4.525 -0.0908 -0.3866  0.5728
 1183TIP3    H125040   4.412   2.611   4.473  2.5677 -1.4301  0.7084
 1183TIP3    H225041   4.477   2.748   4.463  0.6076 -0.4358  0.9781
 1184TIP3   OH225042   6.156   6.731   2.823  0.1667 -0.3014  0.2142
 1184TIP3    H125043   6.172   6.682   2.742  1.0496  1.5976 -0.8226
 1184TIP3    H225044   6.094   6.800   2.798 -0.8681 -0.6799  1.5843
 1185TIP3   OH225045   2.793   5.493  12.824  0.5635  0.5616  1.0481
 1185TIP3    H125046   2.702   5.515  12.845  0.2842  0.3391  0.1266
 1185TIP3    H225047   2.834   5.577  12.803  0.2586  0.5382  0.3398
 1186TIP3   OH225048   4.239   4.654   2.100 -0.7119 -0.4412 -0.0065
 1186TIP3    H125049   4.318   4.670   2.152 -1.3464  0.0154  0.8611
 1186TIP3    H225050   4.180   4.607   2.160 -1.6811  0.5917 -0.1031
 1187TIP3   OH225051   4.202   2.256  17.014  0.2332 -0.3455 -0.0547
 1187TIP3    H125052   4.147   2.200  16.960  0.0712  1.4046 -1.7936
 1187TIP3    H225053   4.292   2.229  16.993  0.1981 -2.7182  2.2632
 1188TIP3   OH225054   0.475   2.439  11.564 -0.1746  0.2297  0.5238
 1188TIP3    H125055   0.394   2.458  11.610  0.8859  1.1589  2.1120
 1188TIP3    H225056   0.543   2.442  11.631  1.4285  1.4014 -1.0159
 1189TIP3   OH225057   6.101   1.435  14.482 -0.4298 -0.3527  0.3253
 1189TIP3    H125058   6.090   1.509  14.542  0.1534  0.3198 -0.3775
 1189TIP3    H225059   6.115   1.476  14.397  0.0177 -1.2790 -0.0503
 1190TIP3   OH225060   1.094   5.571   0.034  0.0691 -0.2629 -0.3024
 1190TIP3    H125061   1.175   5.522   0.050 -0.6866 -2.2224 -2.0681
 1190TIP3    H225062   1.094   5.585  -0.061 -0.7317  1.4927 -0.0856
 1191TIP3   OH225063   5.290   5.376  13.677  0.7784  0.0655 -0.0434
 1191TIP3    H125064   5.290   5.471  13.665  0.8245  0.3736  2.0766
 1191TIP3    H225065   5.198   5.350  13.665 -0.0775  1.0335  3.4418
 1192TIP3   OH225066   1.496   0.086  14.147 -0.6124 -0.2758 -0.6886
 1192TIP3    H125067   1.500   0.093  14.242 -1.0073 -0.2169 -0.6739
 1192TIP3    H225068   1.532  -0.001  14.128 -0.1349 -0.1132 -0.5178
 1193TIP3   OH225069   4.411   3.863   4.976 -0.1068 -0.0057 -0.2806
 1193TIP3    H125070   4.375   3.852   4.888 -1.6466  2.3853 -0.0622
 1193TIP3    H225071   4.357   3.806   5.030 -1.9917  1.5452 -0.3723
 1194TIP3   OH225072   5.035   0.203  13.073 -0.3858 -0.0133  0.0815
 1194TIP3    H125073   5.106   0.253  13.033 -0.0034 -0.7396 -0.1796
 1194TIP3    H225074   5.029   0.124  13.020 -1.1347 -0.1329  0.3426
 1195TIP3   OH225075   3.219   5.278  14.597  0.3616  0.6754 -0.8117
 1195TIP3    H125076   3.135   5.234  14.603 -0.1999  1.7195 -0.8076
 1195TIP3    H225077   3.272   5.221  14.540  0.0326 -0.5332  0.0556
 1196TIP3   OH225078   2.775   3.784   3.947  0.0456  0.3573 -0.1306
 1196TIP3    H125079   2.844   3.850   3.956 -0.2886  0.5230  1.3171
 1196TIP3    H225080   2.694   3.832   3.964 -0.1693 -0.4859  1.3141
 1197TIP3   OH225081   6.758   6.585  15.660  1.1785  0.8051 -0.3803
 1197TIP3    H125082   6.702   6.638  15.602  1.4920  1.8955  0.2792
 1197TIP3    H225083   6.808   6.650  15.709  0.2544 -0.0553  1.8034
 1198TIP3   OH225084   3.771   3.649   5.319  0.0859  0.0159 -0.3006
 1198TIP3    H125085   3.701   3.600   5.276  0.4555  0.1748 -1.1057
 1198TIP3    H225086   3.742   3.740   5.315 -0.1031 -0.0215  0.2251
 1199TIP3   OH225087   0.889   4.056   5.781 -0.2506  0.1467 -0.1043
 1199TIP3    H125088   0.979   4.042   5.751  0.4825  4.5767 -0.5480
 1199TIP3    H225089   0.890   4.029   5.873  1.5651  0.2741 -0.0508
 1200TIP3   OH225090   3.635   2.293   5.967  0.0571  0.1221 -0.4053
 1200TIP3    H125091   3.641   2.290   6.062 -1.5829  0.8185 -0.2461
 1200TIP3    H225092   3.669   2.208   5.937 -0.6125 -0.6185  0.8772
 1201TIP3   OH225093   1.818   1.714  14.284  0.2754 -0.2818  0.0679
 1201TIP3    H125094   1.727   1.683  14.283  0.4177 -0.7005 -0.0795
 1201TIP3    H225095   1.851   1.693  14.197 -0.4551  2.8604 -1.0981
 1202TIP3   OH225096   1.399   4.943  13.580  0.0594  0.1059  0.1704
 1202TIP3    H125097   1.410   4.908  13.668  1.0728  0.3570  0.1502
 1202TIP3    H225098   1.434   4.875  13.522 -0.3970  0.0368 -0.0312
 1203TIP3   OH225099   4.490   6.436   3.750  0.0726  0.0954 -0.5240
 1203TIP3    H125100   4.501   6.511   3.692  0.5630  0.4337 -0.0042
 1203TIP3    H225101   4.444   6.472   3.827 -0.0919 -0.2348 -0.4657
 1204TIP3   OH225102   5.811   1.685  12.225  0.4403 -0.1421 -0.3918
 1204TIP3    H125103   5.842   1.763  12.181  0.5061 -0.5328 -1.0443
 1204TIP3    H225104   5.749   1.645  12.163  0.0264 -0.3403  0.1380
 1205TIP3   OH225105   3.641   3.178   2.210  0.1694 -0.1119 -0.1596
 1205TIP3    H125106   3.662   3.129   2.130 -0.9537  1.6575 -1.6124
 1205TIP3    H225107   3.581   3.121   2.258  0.5994 -1.0616 -0.7220
 1206TIP3   OH225108   1.784   1.881  12.011  0.0627  0.6187  0.2393
 1206TIP3    H125109   1.704   1.921  12.044 -1.4937 -1.2903 -0.9807
 1206TIP3    H225110   1.798   1.922  11.925 -0.2634  0.1550 -0.0385
 1207TIP3   OH225111   3.283   4.285   3.146  0.1844 -0.3582  0.1026
 1207TIP3    H125112   3.336   4.294   3.067 -0.7371  1.6559 -0.3623
 1207TIP3    H225113   3.330   4.221   3.200  1.2767 -1.1266 -1.6929
 1208TIP3   OH225114   5.185   3.520  14.681 -0.0580 -0.1550  0.2500
 1208TIP3    H125115   5.168   3.426  14.667 -0.1365  0.0880 -1.4746
 1208TIP3    H225116   5.165   3.561  14.597 -1.2716  1.6097  1.3335
 1209TIP3   OH225117   1.549   2.587   1.618 -0.3696 -0.7158  0.0270
 1209TIP3    H125118   1.535   2.562   1.527  0.4280 -2.1277  0.2489
 1209TIP3    H225119   1.587   2.674   1.615 -1.3693 -0.3047 -0.9298
 1210TIP3   OH225120   3.146   2.765  13.709  0.1024  1.2398  0.9919
 1210TIP3    H125121   3.221   2.731  13.659  0.0230 -0.7109  2.1221
 1210TIP3    H225122   3.077   2.700  13.696 -1.2569  2.7313  0.4255
 1211TIP3   OH225123   4.887   5.213  13.354 -0.0171 -0.3775 -0.1809
 1211TIP3    H125124   4.847   5.142  13.405  0.4775 -0.8256 -0.4012
 1211TIP3    H225125   4.981   5.200  13.365  0.0853  1.1109  0.9381
 1212TIP3   OH225126   0.004   4.250   1.732 -0.0795  0.0860 -0.5512
 1212TIP3    H125127   0.028   4.294   1.814  0.0282  1.7130 -1.4123
 1212TIP3    H225128  -0.071   4.196   1.756  0.6784 -0.4039  0.8668
 1213TIP3   OH225129   6.758   5.336   1.498  0.5891  0.1227  0.1733
 1213TIP3    H125130   6.727   5.355   1.586 -2.6008  1.2445 -1.0519
 1213TIP3    H225131   6.799   5.418   1.469  1.3082 -0.1325  0.4305
 1214TIP3   OH225132   5.525   1.109   5.196  0.2067  0.1757 -0.3672
 1214TIP3    H125133   5.593   1.129   5.131 -0.7033  0.1738 -1.3633
 1214TIP3    H225134   5.452   1.166   5.172 -0.6054 -0.7331 -0.1335
 1215TIP3   OH225135   0.746   3.451  15.506  0.2082  0.7464 -0.4415
 1215TIP3    H125136   0.801   3.375  15.525  0.3051  1.0746  0.6921
 1215TIP3    H225137   0.707   3.473  15.591  0.4429  2.1671 -0.6901
 1216TIP3   OH225138   3.990   6.755   3.168 -0.4298 -0.5937 -0.1610
 1216TIP3    H125139   3.897   6.738   3.183 -0.1177 -1.9538  0.3621
 1216TIP3    H225140   3.997   6.850   3.168 -1.9068 -0.4532 -0.7898
 1217TIP3   OH225141   3.174   0.443   0.166  0.2131  0.0676  0.1567
 1217TIP3    H125142   3.268   0.446   0.150  0.1786 -0.1774 -0.1072
 1217TIP3    H225143   3.135   0.487   0.090  0.1004 -0.1205  0.1045
 1218TIP3   OH225144   2.598   3.511   4.743  0.3490 -0.0700  0.7056
 1218TIP3    H125145   2.602   3.416   4.729 -1.3065  0.1541 -1.9569
 1218TIP3    H225146   2.512   3.526   4.781  0.4668  0.4060  0.7902
 1219TIP3   OH225147   1.208   5.462   3.290 -0.0254  0.3898 -0.6201
 1219TIP3    H125148   1.262   5.518   3.233  1.3580 -1.5147 -1.2881
 1219TIP3    H225149   1.253   5.463   3.374  0.3669 -0.1989 -0.8166
 1220TIP3   OH225150   0.977   6.769   5.266  0.3233  0.3184  0.3247
 1220TIP3    H125151   0.881   6.778   5.262  0.1985 -0.4828  1.1309
 1220TIP3    H225152   0.999   6.710   5.194  0.3952  1.6720 -0.7960
 1221TIP3   OH225153   2.396   1.674   2.566  0.9117  0.0182  0.4911
 1221TIP3    H125154   2.461   1.717   2.621  0.1812  0.3668  1.0885
 1221TIP3    H225155   2.314   1.682   2.614  0.5935 -1.2870  0.2180
 1222TIP3   OH225156   0.102   6.630  17.085 -0.4197  0.2284 -0.0417
 1222TIP3    H125157   0.149   6.568  17.140  0.7919  0.5892 -0.6439
 1222TIP3    H225158   0.016   6.638  17.126 -0.2117 -0.9883  0.6774
 1223TIP3   OH225159   4.319   4.040   0.800  0.0886  0.5041  0.5203
 1223TIP3    H125160   4.332   4.118   0.854  0.9825  0.4493  0.4044
 1223TIP3    H225161   4.361   4.061   0.717 -1.5495  0.7040 -0.2988
 1224TIP3   OH225162   4.439   0.343   0.252  0.2052  0.4820 -0.4546
 1224TIP3    H125163   4.460   0.368   0.162 -0.2265 -0.0478 -0.7075
 1224TIP3    H225164   4.515   0.294   0.281  0.1971  0.3451 -0.6574
 1225TIP3   OH225165   0.980   1.193   0.898  0.0463  0.6300 -0.0669
 1225TIP3    H125166   0.961   1.101   0.913  2.2112  0.2137  0.5401
 1225TIP3    H225167   1.008   1.197   0.806  1.3429  0.3608  0.2849
 1226TIP3   OH225168   4.792   0.446   3.361  0.2542 -0.1311 -0.7612
 1226TIP3    H125169   4.722   0.381   3.373  1.7015 -1.9486 -1.6798
 1226TIP3    H225170   4.817   0.436   3.269  1.3563  0.8863 -0.5865
 1227TIP3   OH225171   0.432   6.184  12.862  0.5221  0.3935 -0.7169
 1227TIP3    H125172   0.375   6.134  12.804  0.3314  0.8383 -0.9137
 1227TIP3    H225173   0.394   6.272  12.864  0.2667  0.2693  0.4261
 1228TIP3   OH225174   5.517   5.982  15.375  0.1595 -0.1458  0.1537
 1228TIP3    H125175   5.434   6.008  15.336 -0.2726  0.1479  1.2272
 1228TIP3    H225176   5.496   5.966  15.467  1.6752  2.0260  0.9628
 1229TIP3   OH225177   0.105   5.481   0.619 -0.0828 -0.4079  0.2098
 1229TIP3    H125178   0.168   5.536   0.666  1.3777 -0.7052 -1.2926
 1229TIP3    H225179   0.079   5.535   0.544 -1.8944 -0.1759  0.9753
 1230TIP3   OH225180   4.782   5.337   3.699  0.6768  0.1847 -0.3314
 1230TIP3    H125181   4.759   5.267   3.639  1.1032 -0.3227  0.0890
 1230TIP3    H225182   4.707   5.397   3.697  0.7048  0.1877 -1.3798
 1231TIP3   OH225183   6.464   2.920  11.045 -0.0768  0.3627  0.2714
 1231TIP3    H125184   6.511   3.004  11.042 -0.6551  0.6714 -0.2546
 1231TIP3    H225185   6.531   2.855  11.024  0.6402  0.5701  1.7552
 1232TIP3   OH225186   1.485   3.459  15.676  0.4207 -0.1346  0.1984
 1232TIP3    H125187   1.540   3.434  15.602  0.1263 -0.1406 -0.0230
 1232TIP3    H225188   1.469   3.552  15.663  1.6997  0.2512  1.1422
 1233TIP3   OH225189   1.110   5.847   4.331  0.0024  0.6432 -0.0373
 1233TIP3    H125190   1.037   5.902   4.302 -1.0958  0.7364  2.5858
 1233TIP3    H225191   1.172   5.908   4.370 -0.0645  0.2712  0.6686
 1234TIP3   OH225192   4.662   3.777   4.451 -0.4059  0.3447  0.1737
 1234TIP3    H125193   4.663   3.837   4.376 -1.9459  1.5686  1.0838
 1234TIP3    H225194   4.624   3.828   4.522  0.3755 -1.0162  1.6213
 1235TIP3   OH225195   0.670   2.770  16.903  0.0896  0.2665 -0.2691
 1235TIP3    H125196   0.588   2.762  16.855 -0.4772  2.5737  0.2090
 1235TIP3    H225197   0.721   2.694  16.876 -0.7912  0.6406 -3.3308
 1236TIP3   OH225198   5.090   4.805  17.036 -0.7883 -0.4231 -0.0457
 1236TIP3    H125199   5.110   4.767  16.951 -0.6393 -0.2025 -0.1094
 1236TIP3    H225200   5.074   4.898  17.018 -0.3341 -0.2894  0.2266
 1237TIP3   OH225201   5.553   6.077   2.870 -0.7558  0.1049 -0.3474
 1237TIP3    H125202   5.463   6.046   2.884 -0.8645 -0.0814 -1.3990
 1237TIP3    H225203   5.548   6.128   2.790  0.0471  0.2507 -0.3065
 1238TIP3   OH225204   5.339   0.673   2.653  0.1587 -0.4075  0.0234
 1238TIP3    H125205   5.383   0.731   2.715 -1.3291  1.1394 -0.2901
 1238TIP3    H225206   5.288   0.613   2.708  0.7989 -0.6808  0.3258
 1239TIP3   OH225207   3.591   6.622  14.533  0.7761 -0.5691  0.1233
 1239TIP3    H125208   3.501   6.633  14.503  0.9964  0.4869 -0.1779
 1239TIP3    H225209   3.588   6.542  14.586 -0.5635  0.0391  1.0267
 1240TIP3   OH225210   6.822   2.884  14.387  0.3799 -0.4466 -0.0979
 1240TIP3    H125211   6.885   2.852  14.322  1.1781 -0.5655  0.6991
 1240TIP3    H225212   6.857   2.968  14.415  0.6303 -0.8774  0.9297
 1241TIP3   OH225213   5.927   2.353   0.342  0.9785  0.0395  0.3909
 1241TIP3    H125214   5.996   2.350   0.276  0.2147  1.7002 -0.5689
 1241TIP3    H225215   5.919   2.447   0.363 -1.5149  0.0016 -0.1503
 1242TIP3   OH225216   2.086   6.313  15.755 -0.3937  0.3173 -0.2873
 1242TIP3    H125217   2.016   6.272  15.705 -0.2624 -0.8425  0.4225
 1242TIP3    H225218   2.047   6.333  15.840  0.4019 -1.5451  0.5961
 1243TIP3   OH225219   1.670   0.724  11.856 -0.0868  0.1368 -0.2198
 1243TIP3    H125220   1.758   0.736  11.821  0.5947 -1.3432  0.9124
 1243TIP3    H225221   1.651   0.632  11.842 -0.7692  0.0543  1.0846
 1244TIP3   OH225222   1.030   1.574  16.041  0.0210 -0.1576 -0.2220
 1244TIP3    H125223   1.056   1.659  16.005 -0.6013  0.4538  0.7190
 1244TIP3    H225224   0.982   1.596  16.121 -1.4188 -1.3350 -0.7239
 1245TIP3   OH225225   1.628   5.898  13.588  0.6676 -0.0025 -0.3554
 1245TIP3    H125226   1.538   5.930  13.597  0.2227 -0.6352 -2.0912
 1245TIP3    H225227   1.619   5.803  13.583  1.6305 -0.2069  1.1981
 1246TIP3   OH225228   0.461   1.858  12.038 -0.2832  0.4725  0.4825
 1246TIP3    H125229   0.492   1.935  12.086  0.6426  1.3750 -1.4590
 1246TIP3    H225230   0.371   1.880  12.012 -0.4189  0.4099  0.8883
 1247TIP3   OH225231   5.469   1.827  15.127  0.2020 -0.0568 -0.0350
 1247TIP3    H125232   5.467   1.923  15.128  0.2278 -0.0459 -0.7418
 1247TIP3    H225233   5.542   1.805  15.070  0.0493 -0.4963 -0.0626
 1248TIP3   OH225234   4.523   5.366  17.008 -0.5882  0.4443  0.2368
 1248TIP3    H125235   4.555   5.278  17.026  0.5962  1.0936  1.4270
 1248TIP3    H225236   4.500   5.402  17.094 -1.5892  1.1130 -0.2891
 1249TIP3   OH225237   4.927   0.331   1.114  0.2517  0.8459 -0.6996
 1249TIP3    H125238   5.002   0.280   1.145  1.1450  1.4630 -1.7764
 1249TIP3    H225239   4.862   0.265   1.091  0.8641  0.2474 -0.7560
 1250TIP3   OH225240   0.893   5.460  16.113  0.4288  0.0402 -0.3487
 1250TIP3    H125241   0.959   5.503  16.059  1.0648 -0.6956 -0.1768
 1250TIP3    H225242   0.826   5.430  16.051  0.1437  0.9662 -0.5016
 1251TIP3   OH225243   2.728   1.402   1.564  0.2009 -0.5809 -0.0739
 1251TIP3    H125244   2.653   1.451   1.529  0.2392  0.2250  0.9237
 1251TIP3    H225245   2.775   1.372   1.486  1.0505  2.3375 -0.8265
 1252TIP3   OH225246   5.963   0.466   4.191 -0.1785  0.6973  0.0876
 1252TIP3    H125247   5.976   0.517   4.111 -1.2441 -1.8864 -1.8874
 1252TIP3    H225248   5.876   0.489   4.220  0.3878  1.9902  0.7972
 1253TIP3   OH225249   6.648   3.160   2.918  0.1045 -0.1624  0.5555
 1253TIP3    H125250   6.655   3.169   2.823 -1.9523 -0.7626  0.2953
 1253TIP3    H225251   6.726   3.203   2.952  1.5966 -1.0996 -1.4509
 1254TIP3   OH225252   2.037   3.097  16.541  0.1880  0.3308 -0.3045
 1254TIP3    H125253   1.947   3.085  16.511  0.1222  0.5932 -0.2180
 1254TIP3    H225254   2.061   3.186  16.512 -0.5261  1.3564  1.9992
 1255TIP3   OH225255   6.366   0.898  16.417  0.0310  0.8825 -0.3987
 1255TIP3    H125256   6.281   0.942  16.420 -0.0904  0.7183 -1.2399
 1255TIP3    H225257   6.402   0.910  16.505 -2.3156 -1.9490  1.1462
 1256TIP3   OH225258   2.425   2.569   0.118  0.3229  0.1606  0.1479
 1256TIP3    H125259   2.479   2.550   0.042 -0.3794  1.2866 -0.6484
 1256TIP3    H225260   2.356   2.626   0.086 -0.7271 -0.3625  1.3740
 1257TIP3   OH225261   6.557   1.931  13.341 -0.5618  0.5285  0.1943
 1257TIP3    H125262   6.531   1.840  13.355  0.1918  0.5029  1.5375
 1257TIP3    H225263   6.624   1.948  13.407 -1.4169  2.3790  0.6495
 1258TIP3   OH225264   1.561   4.734  13.480  0.2907 -0.4777  0.3427
 1258TIP3    H125265   1.628   4.718  13.414 -0.4962 -2.0891 -0.1152
 1258TIP3    H225266   1.610   4.751  13.561  1.2596 -1.2358 -0.0679
 1259TIP3   OH225267   6.680   6.513  12.713 -0.0424 -0.0894 -0.1450
 1259TIP3    H125268   6.675   6.595  12.762  1.9358  0.3975 -0.6692
 1259TIP3    H225269   6.602   6.514  12.657 -1.7776 -0.1662  2.1423
 1260TIP3   OH225270   4.590   4.123  11.771  0.5396  0.0017  0.0707
 1260TIP3    H125271   4.508   4.122  11.721  0.6689  2.2849 -0.3129
 1260TIP3    H225272   4.658   4.138  11.704  1.2691 -1.5457  0.4219
 1261TIP3   OH225273   0.092   0.555   4.917  0.2918  0.0985  0.2482
 1261TIP3    H125274   0.038   0.518   4.847  1.0212 -1.6283  0.5705
 1261TIP3    H225275   0.155   0.487   4.939  1.5936  1.4743  1.0019
 1262TIP3   OH225276   3.907   1.377  12.737  0.0173  0.2348  0.6773
 1262TIP3    H125277   3.885   1.285  12.755  1.8372 -0.2652  0.5834
 1262TIP3    H225278   3.950   1.375  12.652  0.4874  1.1108  0.8897
 1263TIP3   OH225279   2.216   3.637  14.841  0.1683  0.0385  0.0975
 1263TIP3    H125280   2.268   3.713  14.816 -2.0267  0.7376 -2.8964
 1263TIP3    H225281   2.263   3.563  14.804 -0.0919  0.4866 -1.1823
 1264TIP3   OH225282   0.338   5.127   3.297  0.3261 -0.0303 -0.4171
 1264TIP3    H125283   0.274   5.189   3.333 -0.2325 -0.5535 -0.4882
 1264TIP3    H225284   0.297   5.094   3.217 -0.3638 -2.0467  0.6778
 1265TIP3   OH225285   6.083   6.785   1.322  0.2997 -0.1385 -0.0660
 1265TIP3    H125286   6.094   6.720   1.253 -1.4617 -0.2107 -0.3022
 1265TIP3    H225287   6.172   6.800   1.354  1.1189 -0.3736 -2.0767
 1266TIP3   OH225288   3.394   2.486  14.670  0.2210  0.7694  0.1607
 1266TIP3    H125289   3.363   2.500  14.581 -1.1342  2.7004  0.8839
 1266TIP3    H225290   3.446   2.564  14.690 -0.0742  0.6935  1.2897
 1267TIP3   OH225291   3.180   6.202   3.415  0.0727  0.1595  0.2182
 1267TIP3    H125292   3.117   6.218   3.486 -0.6274  1.1498 -0.6065
 1267TIP3    H225293   3.246   6.146   3.455 -0.9594 -0.3338  1.3054
 1268TIP3   OH225294   1.913   3.154   4.297  0.4830 -0.2688  0.0689
 1268TIP3    H125295   1.857   3.218   4.253  0.9443 -0.6697 -1.1337
 1268TIP3    H225296   1.996   3.199   4.309  0.3674 -0.1710  0.5071
 1269TIP3   OH225297   0.898   5.573   3.351 -0.6745 -0.2331  0.1020
 1269TIP3    H125298   0.819   5.558   3.301 -0.8329 -1.0105  0.5760
 1269TIP3    H225299   0.934   5.486   3.368 -0.0416  0.0768  0.4069
 1270TIP3   OH225300   2.550   0.258   2.621 -0.6318  0.7015 -0.0066
 1270TIP3    H125301   2.508   0.318   2.682 -0.8819  1.2029 -0.6572
 1270TIP3    H225302   2.578   0.184   2.675  0.1507  1.6280  0.9001
 1271TIP3   OH225303   5.250   6.639  13.484  0.1376  0.4307 -0.6427
 1271TIP3    H125304   5.313   6.621  13.414 -0.1689  0.8334 -1.0273
 1271TIP3    H225305   5.167   6.604  13.451  0.0633  0.3165 -0.3350
 1272TIP3   OH225306   3.233   3.955   3.309 -0.5500  0.1864 -0.2794
 1272TIP3    H125307   3.178   4.033   3.314  1.5145  1.7289 -0.4074
 1272TIP3    H225308   3.320   3.988   3.286  0.5181 -2.1092  0.1683
 1273TIP3   OH225309   3.310   3.923  13.173 -0.7323  0.0080  0.2636
 1273TIP3    H125310   3.309   3.828  13.181 -0.3042  0.1092  1.9660
 1273TIP3    H225311   3.403   3.946  13.172 -0.8305  0.4374  0.5058
 1274TIP3   OH225312   3.897   6.334  14.015 -0.3036  0.2786  0.1348
 1274TIP3    H125313   3.877   6.301  14.103  0.8800 -0.3801  0.1805
 1274TIP3    H225314   3.980   6.381  14.025  0.5539 -0.9581 -0.8604
 1275TIP3   OH225315   5.768   3.422  11.317  0.2331  0.3938 -0.1532
 1275TIP3    H125316   5.776   3.446  11.410 -0.7935  1.3373 -0.2902
 1275TIP3    H225317   5.843   3.465  11.275  0.5294  0.2181  0.1882
 1276TIP3   OH225318   5.899   1.676   4.438  0.7445 -0.0968 -0.3276
 1276TIP3    H125319   5.852   1.686   4.356 -0.8404  0.0920  0.5720
 1276TIP3    H225320   5.956   1.753   4.442 -2.4969  2.4976  0.8248
 1277TIP3   OH225321   3.985   2.573   2.018  0.3844 -0.0063  0.1756
 1277TIP3    H125322   3.938   2.503   2.063 -0.1780  0.3028  0.0923
 1277TIP3    H225323   3.952   2.570   1.928  0.2709  0.4283  0.1983
 1278TIP3   OH225324   2.854   0.450   1.802 -0.0887  0.0820 -0.2543
 1278TIP3    H125325   2.760   0.435   1.786  0.4542 -2.4777 -1.5340
 1278TIP3    H225326   2.889   0.363   1.820  1.6587  1.2956  2.8215
 1279TIP3   OH225327   6.238   2.961   6.535 -0.6116  0.2691 -0.2216
 1279TIP3    H125328   6.308   2.923   6.482 -0.7037 -0.0401 -0.1238
 1279TIP3    H225329   6.236   2.907   6.615 -0.4395  0.7621  0.1168
 1280TIP3   OH225330   3.235   0.893   5.456 -0.0569 -0.1876  0.0552
 1280TIP3    H125331   3.325   0.904   5.485 -0.0378 -1.3217  0.4757
 1280TIP3    H225332   3.241   0.834   5.381 -0.3431  0.7568 -0.7352
 1281TIP3   OH225333   5.226   1.871  12.878  0.4193 -0.0718 -0.1490
 1281TIP3    H125334   5.283   1.860  12.802  2.2565  1.8214  0.8587
 1281TIP3    H225335   5.256   1.805  12.940  1.4336  0.7825  0.2979
 1282TIP3   OH225336   5.737   2.408   3.129  0.1709  0.0406  0.4408
 1282TIP3    H125337   5.791   2.484   3.107  1.2490 -1.5018 -2.8336
 1282TIP3    H225338   5.786   2.363   3.198  0.3549  1.3668  1.2159
 1283TIP3   OH225339   1.802   5.745  16.647  0.6112 -0.1711 -0.0608
 1283TIP3    H125340   1.739   5.778  16.582  1.7526  0.7421 -0.7533
 1283TIP3    H225341   1.789   5.801  16.723 -0.7085 -1.2230  0.5260
 1284TIP3   OH225342   3.779   2.366   1.671 -0.3653  0.0915  0.5607
 1284TIP3    H125343   3.691   2.391   1.643 -0.8483 -1.7224  0.3287
 1284TIP3    H225344   3.765   2.292   1.731  1.0199 -0.7454 -0.0775
 1285TIP3   OH225345   4.864   6.752  11.381  0.0086 -0.4733  0.1429
 1285TIP3    H125346   4.934   6.689  11.359  0.1014 -1.2436  2.4275
 1285TIP3    H225347   4.900   6.837  11.357  0.6057 -1.0969 -1.3086
 1286TIP3   OH225348   4.751   0.120   1.473  0.3020 -0.0632 -0.1561
 1286TIP3    H125349   4.846   0.131   1.464  0.1642  0.7335 -0.7799
 1286TIP3    H225350   4.721   0.202   1.512 -0.1742 -0.1433 -0.3451
 1287TIP3   OH225351   4.866   6.094   4.792  0.4375 -0.3008 -0.0827
 1287TIP3    H125352   4.812   6.039   4.736 -0.7786 -0.0316  0.7971
 1287TIP3    H225353   4.804   6.137   4.851  1.7092 -1.3055  2.1292
 1288TIP3   OH225354   2.917   5.334  12.639  0.3393  0.6598 -0.4197
 1288TIP3    H125355   2.860   5.373  12.706 -0.5882 -0.5440 -0.4444
 1288TIP3    H225356   2.949   5.253  12.680  0.2637  0.2266 -1.1945
 1289TIP3   OH225357   2.202   1.728  13.561  0.4909 -0.0927  0.2357
 1289TIP3    H125358   2.192   1.822  13.545  0.9500  0.4188  2.6016
 1289TIP3    H225359   2.216   1.690  13.474  0.4568  2.0287 -0.7526
 1290TIP3   OH225360   2.571   6.062   5.990 -0.2386  0.2631  0.2017
 1290TIP3    H125361   2.555   6.155   5.974 -2.3468 -0.3039 -1.5686
 1290TIP3    H225362   2.548   6.049   6.082 -2.6125  1.0703 -0.2031
 1291TIP3   OH225363   4.814   3.921  16.488 -0.4196  0.0426 -0.2525
 1291TIP3    H125364   4.787   4.012  16.474  0.7778  0.4773  0.1361
 1291TIP3    H225365   4.767   3.871  16.421 -1.9083  0.7897  0.2074
 1292TIP3   OH225366   0.085   0.734   6.543  0.1836 -0.3390 -0.0976
 1292TIP3    H125367   0.072   0.791   6.467  1.1782  0.1363  0.0674
 1292TIP3    H225368  -0.003   0.710   6.571 -0.2074 -1.3364 -2.0107
 1293TIP3   OH225369   4.183   1.347   2.867 -0.5221  0.8256 -0.3058
 1293TIP3    H125370   4.108   1.315   2.817  0.5642  2.7812 -3.5146
 1293TIP3    H225371   4.199   1.280   2.933 -4.7409  0.1147  0.2763
 1294TIP3   OH225372   5.896   5.900  11.540  0.0311  0.0163  0.4325
 1294TIP3    H125373   5.862   5.971  11.595  1.9744  2.0005 -0.7875
 1294TIP3    H225374   5.942   5.944  11.469  1.1799 -2.4986 -0.5007
 1295TIP3   OH225375   6.649   4.522   4.923  0.6338  0.3931  0.0552
 1295TIP3    H125376   6.621   4.588   4.860 -0.8866  0.4694  0.7637
 1295TIP3    H225377   6.571   4.470   4.940  1.3809 -0.5332  0.7964
 1296TIP3   OH225378   3.430   6.147   3.977 -0.2333 -0.1829 -0.2171
 1296TIP3    H125379   3.498   6.175   4.038  0.1392 -3.6155  1.1746
 1296TIP3    H225380   3.350   6.189   4.009  0.7912  2.3109 -0.6877
 1297TIP3   OH225381   3.113   5.202   2.880 -0.3299 -0.0792  0.0540
 1297TIP3    H125382   3.182   5.148   2.840  1.4555 -0.4430  3.2855
 1297TIP3    H225383   3.055   5.139   2.923 -0.8327  0.4078  0.1001
 1298TIP3   OH225384   2.787   0.599  10.968  0.3806 -0.3475  0.0487
 1298TIP3    H125385   2.832   0.630  10.889 -2.9608  0.8584 -1.5903
 1298TIP3    H225386   2.830   0.646  11.040  2.1437  0.1841 -1.2740
 1299TIP3   OH225387   3.554   5.981   0.614  0.1444  0.2665  0.5756
 1299TIP3    H125388   3.515   5.968   0.700  0.8087  1.1257  1.0247
 1299TIP3    H225389   3.552   6.076   0.602 -0.5056  0.1168 -0.6319
 1300TIP3   OH225390   3.171   0.887  16.920 -0.2838 -0.2170  0.3802
 1300TIP3    H125391   3.136   0.803  16.890  0.4792 -0.4012 -0.0131
 1300TIP3    H225392   3.096   0.947  16.915 -0.8980 -0.9228  0.9088
 1301TIP3   OH225393   2.468   5.419  10.670  0.3214  0.4098 -0.8307
 1301TIP3    H125394   2.466   5.324  10.667  1.5574  0.3755 -2.6920
 1301TIP3    H225395   2.377   5.446  10.680  0.1279 -0.9357  1.9653
 1302TIP3   OH225396   5.886   0.001  15.156  0.1561  0.3976 -0.2862
 1302TIP3    H125397   5.940   0.070  15.196 -1.0543  1.7605 -0.9361
 1302TIP3    H225398   5.939  -0.078  15.165  1.3513  1.2867  0.9959
 1303TIP3   OH225399   1.822   6.068   3.843 -0.1922  0.0418 -0.1526
 1303TIP3    H125400   1.746   6.009   3.847 -0.0416 -0.1419  0.0581
 1303TIP3    H225401   1.785   6.154   3.827 -0.4630 -0.0120  0.1797
 1304TIP3   OH225402   4.844   5.933  10.397  0.0674  0.0061  0.0081
 1304TIP3    H125403   4.922   5.880  10.411  0.3535  0.8759  2.0960
 1304TIP3    H225404   4.875   6.012  10.354  0.0853 -0.2790 -0.5110
 1305TIP3   OH225405   2.462   4.414  13.763 -0.0284 -0.1349 -0.0252
 1305TIP3    H125406   2.512   4.462  13.697 -0.6602  1.1813  0.4248
 1305TIP3    H225407   2.372   4.415  13.732  0.0095 -1.4808 -0.2456
 1306TIP3   OH225408   6.481   4.202   4.796  0.1211 -0.0715 -0.2070
 1306TIP3    H125409   6.538   4.222   4.722  1.1321 -1.1295  0.2490
 1306TIP3    H225410   6.437   4.284   4.816 -1.7602 -0.1983 -3.2631
 1307TIP3   OH225411   1.544   3.195  16.625  0.4434 -0.0949  0.0762
 1307TIP3    H125412   1.568   3.281  16.661  0.5395  0.1045 -0.4403
 1307TIP3    H225413   1.493   3.153  16.694  1.0540  0.0654  0.6313
 1308TIP3   OH225414   4.531   2.934  11.318 -0.6424 -0.0114 -0.0092
 1308TIP3    H125415   4.618   2.896  11.332 -0.2249  0.7968 -0.2902
 1308TIP3    H225416   4.470   2.872  11.358  0.1927  0.3012  1.8693
 1309TIP3   OH225417   2.566   2.761  11.163 -1.0676  0.1386 -0.0419
 1309TIP3    H125418   2.496   2.784  11.224  0.8387 -0.3057  2.5014
 1309TIP3    H225419   2.548   2.671  11.137 -1.7788  0.2527  0.0501
 1310TIP3   OH225420   1.508   0.613  14.387 -0.2516  0.1738 -0.5041
 1310TIP3    H125421   1.445   0.567  14.331 -0.6803 -0.7176  0.6707
 1310TIP3    H225422   1.458   0.687  14.422 -1.2983 -1.5045  1.8256
 1311TIP3   OH225423   1.691   2.063   3.801 -0.2764 -0.0886  0.4864
 1311TIP3    H125424   1.673   2.047   3.894 -0.8552 -0.2234  0.3589
 1311TIP3    H225425   1.688   2.159   3.793  4.1537  0.3422  1.4349
 1312TIP3   OH225426   0.787   3.930   2.249 -0.0787  0.6400  0.7580
 1312TIP3    H125427   0.714   3.991   2.236  0.6748  1.1422 -1.5359
 1312TIP3    H225428   0.770   3.858   2.188  2.0029  1.4547 -0.9213
 1313TIP3   OH225429   3.142   3.180   3.811  0.5926 -0.2666 -0.2704
 1313TIP3    H125430   3.165   3.154   3.722  0.6048 -0.1350 -0.3063
 1313TIP3    H225431   3.195   3.258   3.828 -0.6581  0.7390 -0.7776
 1314TIP3   OH225432   3.983   3.565  17.030 -0.1585 -0.4020  0.1700
 1314TIP3    H125433   3.949   3.567  16.940  1.8812 -0.2656 -0.6486
 1314TIP3    H225434   4.068   3.608  17.025 -0.3850  0.4494  2.3830
 1315TIP3   OH225435   0.899   6.009   3.727 -0.1219  0.5122 -0.5484
 1315TIP3    H125436   0.836   5.946   3.762 -0.0555  0.7906  0.0904
 1315TIP3    H225437   0.867   6.030   3.639 -1.4896  1.4124  0.1358
 1316TIP3   OH225438   6.662   2.616  12.865  0.1361  0.4354 -0.6268
 1316TIP3    H125439   6.734   2.678  12.873  2.0904 -1.6555 -1.0471
 1316TIP3    H225440   6.677   2.552  12.936 -0.7314 -0.5575 -1.3082
 1317TIP3   OH225441   3.361   3.118  15.035 -0.5286 -0.6661  0.1644
 1317TIP3    H125442   3.296   3.084  14.973  2.0592 -0.0928 -3.1748
 1317TIP3    H225443   3.440   3.068  15.016  0.9032  0.8834  1.7135
 1318TIP3   OH225444   4.493   2.519  13.547 -0.2303 -0.4430 -0.1619
 1318TIP3    H125445   4.544   2.534  13.468 -1.0723  0.5160 -0.5524
 1318TIP3    H225446   4.554   2.480  13.609  0.2635 -1.8313 -1.4960
 1319TIP3   OH225447   4.791   0.428  15.637 -0.0495  0.1850 -0.6284
 1319TIP3    H125448   4.880   0.414  15.669  0.2767  2.1800 -0.5338
 1319TIP3    H225449   4.799   0.498  15.573 -1.7898  1.9124  0.9045
 1320TIP3   OH225450   6.820   5.694   3.780 -0.2489  0.1781  0.0639
 1320TIP3    H125451   6.897   5.642   3.755  0.6818  1.3736  0.4088
 1320TIP3    H225452   6.784   5.724   3.697  0.8267  1.2592 -0.0308
 1321TIP3   OH225453   4.003   5.583  13.966  0.0231  0.4923  0.2178
 1321TIP3    H125454   3.951   5.574  14.046  0.1689  0.8023  0.3509
 1321TIP3    H225455   3.944   5.555  13.896  0.0323 -0.1963  0.4721
 1322TIP3   OH225456   5.025   2.433  12.784 -0.1864 -0.1337 -0.2103
 1322TIP3    H125457   5.106   2.382  12.793 -0.5334 -0.6595  0.0510
 1322TIP3    H225458   4.986   2.429  12.872 -1.3800 -1.4210 -0.7565
 1323TIP3   OH225459   0.596   4.595  10.696  0.3798  0.4961  0.0822
 1323TIP3    H125460   0.669   4.656  10.689 -0.6049  1.7314  0.1570
 1323TIP3    H225461   0.629   4.513  10.660  0.9551  1.8006 -2.6122
 1324TIP3   OH225462   2.819   4.106   0.572 -0.2750 -0.0954  0.0140
 1324TIP3    H125463   2.747   4.101   0.634 -0.0031 -1.0722  0.2717
 1324TIP3    H225464   2.850   4.016   0.564  2.3306  0.5687  1.5766
 1325TIP3   OH225465   2.964   5.505   0.894 -0.9189  0.2892  0.3730
 1325TIP3    H125466   2.923   5.553   0.966 -2.4052 -1.1063  0.5164
 1325TIP3    H225467   2.947   5.413   0.914  1.2177 -0.2861 -0.2665
 1326TIP3   OH225468   0.488   3.788  15.182 -0.1590 -0.0957 -0.2359
 1326TIP3    H125469   0.429   3.756  15.113  0.8911 -1.9738 -0.3228
 1326TIP3    H225470   0.565   3.731  15.176  0.6749  0.8011  1.3872
 1327TIP3   OH225471   6.203   6.741   6.637 -0.1751 -0.2440  0.1780
 1327TIP3    H125472   6.289   6.774   6.611  0.0835 -1.2789 -0.3466
 1327TIP3    H225473   6.143   6.772   6.569 -0.7277  2.5512  1.7779
 1328TIP3   OH225474   4.926   3.961   3.785  0.2756 -0.1427  0.2802
 1328TIP3    H125475   4.938   3.969   3.690 -1.5723 -0.8474 -0.0434
 1328TIP3    H225476   5.002   3.912   3.815  0.5424 -0.4891 -0.9354
 1329TIP3   OH225477   4.379   6.361  12.106 -0.8187 -0.2967  0.4683
 1329TIP3    H125478   4.391   6.436  12.164  1.3505 -0.3180  0.1278
 1329TIP3    H225479   4.341   6.398  12.026 -1.8541  0.0559  1.1068
 1330TIP3   OH225480   2.532   3.972  11.560 -0.2670 -0.0379 -0.1248
 1330TIP3    H125481   2.611   4.023  11.544 -0.4515 -0.0273 -1.0744
 1330TIP3    H225482   2.491   4.014  11.636  0.7444 -0.1927  0.5279
 1331TIP3   OH225483   3.246   2.191  15.974 -0.7067 -0.5577  0.3188
 1331TIP3    H125484   3.168   2.142  15.997 -1.5783 -0.4379 -2.0442
 1331TIP3    H225485   3.214   2.278  15.951  0.3054 -0.0798  0.6761
 1332TIP3   OH225486   1.795   6.041   5.963 -0.7331 -0.7968  0.5905
 1332TIP3    H125487   1.814   6.135   5.971 -3.8329  0.2151 -1.6672
 1332TIP3    H225488   1.825   6.003   6.045  0.9389  2.1033  1.4635
 1333TIP3   OH225489   4.200   0.080   6.028 -0.1669 -0.2971 -0.0818
 1333TIP3    H125490   4.153   0.032   5.959  0.3701  0.8166 -1.2821
 1333TIP3    H225491   4.291   0.053   6.019  0.1943  1.0873 -0.9706
 1334TIP3   OH225492   0.260   0.343   4.998  0.1959 -0.2998  0.7678
 1334TIP3    H125493   0.350   0.315   5.015  0.2015 -0.9088 -0.1823
 1334TIP3    H225494   0.210   0.261   4.993 -0.1650 -0.0426 -0.0147
 1335TIP3   OH225495   0.374   1.681   1.850 -0.1374 -0.0454 -0.3152
 1335TIP3    H125496   0.317   1.718   1.783  0.3375  1.3933  0.0407
 1335TIP3    H225497   0.455   1.659   1.804 -0.7634 -1.6299 -0.7226
 1336TIP3   OH225498   5.199   2.515  16.107 -0.1744 -0.0832 -0.5001
 1336TIP3    H125499   5.155   2.596  16.083  0.2243  0.1707 -0.3952
 1336TIP3    H225500   5.268   2.543  16.167 -0.6443 -0.6156  0.2951
 1337TIP3   OH225501   3.553   0.553  16.141  0.2377 -0.6528  0.1033
 1337TIP3    H125502   3.568   0.578  16.050 -0.7924  1.3254  0.4322
 1337TIP3    H225503   3.457   0.544  16.148  0.3269 -1.0917  0.9310
 1338TIP3   OH225504   3.644   5.404  13.020  0.2677  0.5752 -0.2741
 1338TIP3    H125505   3.549   5.405  13.027  0.2706 -0.9142  0.4607
 1338TIP3    H225506   3.662   5.419  12.927 -0.8210 -1.7671 -0.9414
 1339TIP3   OH225507   2.329   5.149   2.861  0.1395 -0.2467 -0.8830
 1339TIP3    H125508   2.423   5.167   2.863  0.2819 -0.9788  0.5900
 1339TIP3    H225509   2.295   5.206   2.792  1.3892  1.4032 -0.2062
 1340TIP3   OH225510   1.828   2.614  11.151 -0.1881  0.3857 -0.2322
 1340TIP3    H125511   1.760   2.585  11.091 -0.1167  1.0452 -0.6475
 1340TIP3    H225512   1.845   2.538  11.207 -0.0967 -0.3189 -1.1871
 1341TIP3   OH225513   4.929   2.259   4.755 -0.1647  0.1807 -0.2648
 1341TIP3    H125514   5.024   2.252   4.769 -0.4352 -2.2730  0.9393
 1341TIP3    H225515   4.895   2.173   4.781 -2.8198  1.2382  0.0505
 1342TIP3   OH225516   1.076   1.552   4.508  0.0800 -0.0469 -0.3182
 1342TIP3    H125517   1.105   1.545   4.417 -0.0613 -1.3916 -0.2750
 1342TIP3    H225518   0.981   1.540   4.504 -0.0118  0.5292 -0.0442
 1343TIP3   OH225519   5.086   3.918  14.004  1.0603  0.0264  0.4591
 1343TIP3    H125520   5.071   3.937  13.911  0.4304 -2.4720 -0.0230
 1343TIP3    H225521   5.163   3.862  14.005  0.1513 -1.2688  1.2405
 1344TIP3   OH225522   2.987   6.074  15.368 -0.1446  0.3540 -0.1107
 1344TIP3    H125523   2.927   6.139  15.406  0.9354  1.9911 -1.1131
 1344TIP3    H225524   3.010   6.108  15.282 -0.2380 -1.8406 -1.0900
 1345TIP3   OH225525   3.919   4.286  14.009 -0.1938 -0.5071 -0.1460
 1345TIP3    H125526   4.004   4.270  14.051 -0.8065 -3.0228  0.2890
 1345TIP3    H225527   3.940   4.340  13.934  1.4847  0.7526  1.1447
 1346TIP3   OH225528   5.575   3.064   3.033  0.2793  0.4594  0.0154
 1346TIP3    H125529   5.524   3.087   3.111  1.0907  1.8249  0.1830
 1346TIP3    H225530   5.666   3.073   3.062  0.6031 -0.6822 -0.6277
 1347TIP3   OH225531   1.658   4.309  14.983 -0.6290 -0.4540  0.0978
 1347TIP3    H125532   1.672   4.223  14.943 -0.2006 -0.3021 -0.0885
 1347TIP3    H225533   1.588   4.349  14.930  0.4570  0.0526 -1.0185
 1348TIP3   OH225534   0.584   3.386   3.867  0.3808  0.2199  0.2276
 1348TIP3    H125535   0.574   3.311   3.807 -0.9199  2.0537 -1.9996
 1348TIP3    H225536   0.552   3.353   3.951 -2.0451 -1.2273 -1.1285
 1349TIP3   OH225537   1.781   5.073  11.821 -0.1168 -0.5058  0.2040
 1349TIP3    H125538   1.725   5.066  11.899  0.4046 -2.1057  0.4772
 1349TIP3    H225539   1.738   5.015  11.757 -0.1847  0.2952 -0.4835
 1350TIP3   OH225540   2.554   3.642   3.441  0.8936 -0.4580 -0.9370
 1350TIP3    H125541   2.520   3.588   3.512 -1.4665  1.8042 -0.1720
 1350TIP3    H225542   2.620   3.698   3.482 -0.4556  0.8350 -0.4082
 1351TIP3   OH225543   2.024   5.194   1.051 -0.1879 -0.3297  0.5538
 1351TIP3    H125544   2.073   5.276   1.058 -1.0475  0.1961  0.5606
 1351TIP3    H225545   1.945   5.208   1.103 -1.0892 -0.5996 -0.6900
 1352TIP3   OH225546   5.892   2.185   5.469  0.1325 -0.1608 -0.4298
 1352TIP3    H125547   5.871   2.098   5.433 -2.0636  0.8421 -1.8511
 1352TIP3    H225548   5.953   2.223   5.406 -2.6390  1.0562 -2.6350
 1353TIP3   OH225549   6.274   3.340  11.306  0.2575 -0.0299  0.2067
 1353TIP3    H125550   6.297   3.417  11.254  0.6768 -0.3178 -0.0409
 1353TIP3    H225551   6.196   3.305  11.263  1.6231 -1.3057 -1.3742
 1354TIP3   OH225552   4.607   3.000   1.898  0.4249  0.0824  0.7695
 1354TIP3    H125553   4.617   2.905   1.900  0.9985  0.1331  0.5894
 1354TIP3    H225554   4.534   3.018   1.956 -1.2767 -0.6607 -1.0397
 1355TIP3   OH225555   5.069   0.938   3.450 -0.3063 -0.2432 -0.0918
 1355TIP3    H125556   5.022   0.990   3.515 -1.7759 -0.0868 -1.2280
 1355TIP3    H225557   5.085   0.999   3.378  1.2621 -0.4279  0.0622
 1356TIP3   OH225558   1.040   1.133  16.224 -0.0920  0.6775  0.3260
 1356TIP3    H125559   1.010   1.043  16.218 -1.5716  1.0550  1.3052
 1356TIP3    H225560   1.125   1.128  16.268 -1.0101 -0.1408  2.1047
 1357TIP3   OH225561   3.078   2.498   0.782  0.1577  0.0819  0.2825
 1357TIP3    H125562   3.148   2.477   0.844 -0.3402  0.5681  1.0076
 1357TIP3    H225563   3.050   2.586   0.806 -0.6932 -0.1021 -0.0226
 1358TIP3   OH225564   2.682   5.623   2.462  0.4039 -0.1668 -0.0837
 1358TIP3    H125565   2.759   5.681   2.464 -0.3997  0.9165 -0.0617
 1358TIP3    H225566   2.684   5.578   2.547  0.2043  0.9367  0.5226
 1359TIP3   OH225567   5.449   6.705   0.933  1.0871  0.0053 -0.2351
 1359TIP3    H125568   5.417   6.645   0.999  2.9304  0.2257  0.9475
 1359TIP3    H225569   5.403   6.680   0.853  1.0038 -2.2485  0.4465
 1360TIP3   OH225570   4.699   3.395  12.197  0.2632 -0.1423 -0.2195
 1360TIP3    H125571   4.728   3.436  12.116  0.9073  0.3400  0.2447
 1360TIP3    H225572   4.763   3.423  12.262  0.5313 -1.6063  0.1911
 1361TIP3   OH225573   3.862   3.741   4.602 -0.0119 -0.2650 -0.0797
 1361TIP3    H125574   3.906   3.788   4.673 -1.0410 -0.2518  0.5680
 1361TIP3    H225575   3.769   3.759   4.615 -0.2835 -0.9791 -0.9137
 1362TIP3   OH225576   0.028   0.825  14.517  0.5353  0.2539 -0.1399
 1362TIP3    H125577   0.009   0.736  14.487  1.1424 -0.3389  1.1575
 1362TIP3    H225578   0.029   0.877  14.437 -2.0322 -0.4583 -0.7193
 1363TIP3   OH225579   5.678   6.407  16.466  0.2459 -0.8618 -0.3844
 1363TIP3    H125580   5.670   6.355  16.386  0.4186 -1.0490 -0.2801
 1363TIP3    H225581   5.698   6.496  16.435  0.3637 -0.9452 -0.5488
 1364TIP3   OH225582   2.205   2.631   2.719  0.1953 -0.1965 -0.3672
 1364TIP3    H125583   2.196   2.696   2.788 -0.7095 -0.2122 -0.4592
 1364TIP3    H225584   2.237   2.680   2.643 -0.0843  0.0628 -0.3188
 1365TIP3   OH225585   3.204   5.357  12.618 -0.0772  0.0814 -0.0575
 1365TIP3    H125586   3.219   5.296  12.691  0.0817 -0.8457 -0.8410
 1365TIP3    H225587   3.109   5.366  12.613 -0.0606  1.7485  1.5189
 1366TIP3   OH225588   5.383   1.442   1.799  0.5088  0.6184  0.4863
 1366TIP3    H125589   5.341   1.392   1.869 -0.3766 -0.8617 -1.0415
 1366TIP3    H225590   5.437   1.378   1.753 -1.7722  0.5762 -2.4249
 1367TIP3   OH225591   2.117   3.405  15.165  0.2065 -0.2736 -0.1585
 1367TIP3    H125592   2.193   3.460  15.144  0.0403 -0.2688 -0.7890
 1367TIP3    H225593   2.154   3.317  15.175  0.7037  0.1749  2.4293
 1368TIP3   OH225594   2.679   0.234  12.757 -0.2638  0.0802 -0.5957
 1368TIP3    H125595   2.753   0.173  12.766  0.9315  1.1267 -2.5947
 1368TIP3    H225596   2.628   0.199  12.684 -0.9248  0.2126 -0.2130
 1369TIP3   OH225597   2.029   3.384   1.018  0.1031  0.3820 -0.1172
 1369TIP3    H125598   2.010   3.291   1.009  0.3149  0.2384  0.8083
 1369TIP3    H225599   1.946   3.428   0.997 -0.1655 -0.0433  0.0445
 1370TIP3   OH225600   6.036   2.385  17.110  0.3623 -0.1601 -0.2698
 1370TIP3    H125601   5.954   2.402  17.156  0.6546  0.5202  0.0235
 1370TIP3    H225602   6.014   2.395  17.018 -0.2797 -1.7480 -0.3165
 1371TIP3   OH225603   4.648   4.791   4.894 -0.1207  0.0810  0.3175
 1371TIP3    H125604   4.622   4.700   4.880 -0.5584  0.3110 -0.4400
 1371TIP3    H225605   4.592   4.842   4.835 -0.4828  0.9278  1.3499
 1372TIP3   OH225606   4.045   4.243  17.111 -0.0660  0.3821 -0.1117
 1372TIP3    H125607   3.960   4.199  17.112  0.7183 -1.2074  0.1520
 1372TIP3    H225608   4.108   4.174  17.131  1.1537  1.8542  1.4263
 1373TIP3   OH225609   0.403   4.345   3.126  0.1774  0.0095  0.5710
 1373TIP3    H125610   0.469   4.319   3.190 -0.6548 -2.8628  0.3588
 1373TIP3    H225611   0.321   4.347   3.176 -0.2856 -1.0605 -0.1286
 1374TIP3   OH225612   4.429   3.288   2.710 -0.2894 -0.5846 -0.3099
 1374TIP3    H125613   4.479   3.344   2.649 -0.0059 -0.7590 -0.2387
 1374TIP3    H225614   4.494   3.260   2.774 -0.6963  0.0173  0.3761
 1375TIP3   OH225615   0.891   2.300  15.912 -0.8287  0.3276 -0.5635
 1375TIP3    H125616   0.907   2.218  15.960  0.5878  0.8450 -0.1263
 1375TIP3    H225617   0.977   2.338  15.899 -1.5638  2.6060  0.7273
 1376TIP3   OH225618   4.923   0.120   4.752 -0.5137 -0.0535 -0.0354
 1376TIP3    H125619   4.853   0.054   4.759 -0.1628 -0.5619 -1.1153
 1376TIP3    H225620   4.917   0.152   4.662 -0.1063  0.7651  0.2194
 1377TIP3   OH225621   4.240   0.719   2.456  0.6392  0.1513 -0.4515
 1377TIP3    H125622   4.218   0.680   2.540 -1.0834  2.8038  0.4615
 1377TIP3    H225623   4.336   0.719   2.453  0.7080 -1.2523  0.8309
 1378TIP3   OH225624   1.181   6.006   0.444 -0.1087 -0.1644  0.0765
 1378TIP3    H125625   1.229   5.949   0.504 -0.5529  0.1681  0.7720
 1378TIP3    H225626   1.089   5.993   0.467 -0.5764 -2.3225 -2.5848
 1379TIP3   OH225627   0.422   5.180  14.539  0.7367 -0.0363  0.0682
 1379TIP3    H125628   0.466   5.164  14.455 -0.8628  0.1654 -0.8534
 1379TIP3    H225629   0.366   5.103  14.551  0.4117  0.2764  0.5863
 1380TIP3   OH225630   2.983   5.461  16.144  0.3687  0.0955 -0.1105
 1380TIP3    H125631   2.901   5.415  16.125  0.9454 -1.0935  0.1846
 1380TIP3    H225632   3.034   5.398  16.195  1.9973  0.3036 -1.4048
 1381TIP3   OH225633   2.101   0.139   4.527  0.2152  0.2891  0.0570
 1381TIP3    H125634   2.088   0.119   4.434  0.8011 -1.5358  0.3055
 1381TIP3    H225635   2.188   0.178   4.531  0.2362  0.2644 -0.1539
 1382TIP3   OH225636   5.959   5.628   5.985  0.1988 -0.1338  0.4039
 1382TIP3    H125637   5.878   5.667   6.019  0.7833  0.2430  1.4319
 1382TIP3    H225638   5.960   5.540   6.021  0.5858  0.1025  0.9781
 1383TIP3   OH225639   1.609   5.979   6.429  0.2764 -0.3741 -0.4002
 1383TIP3    H125640   1.614   6.032   6.350 -0.3252 -1.5447 -1.2541
 1383TIP3    H225641   1.516   5.982   6.454  0.1823 -1.2516 -0.6273
 1384TIP3   OH225642   2.537   1.943   4.354 -0.3240  0.2515  0.8634
 1384TIP3    H125643   2.460   1.967   4.405  0.3887 -0.3057  2.2670
 1384TIP3    H225644   2.611   1.968   4.410  0.5141  0.6574 -0.3975
 1385TIP3   OH225645   3.141   2.876  12.208  0.1841  0.2773 -0.4562
 1385TIP3    H125646   3.172   2.834  12.288 -0.6965 -1.4997 -0.9690
 1385TIP3    H225647   3.075   2.939  12.238 -1.2797 -1.4635  0.1944
 1386TIP3   OH225648   5.353   2.637  12.720  0.5797 -0.3807  0.6477
 1386TIP3    H125649   5.311   2.694  12.656  0.2031 -1.9017 -0.4921
 1386TIP3    H225650   5.403   2.697  12.775 -1.2275  1.2581  0.6318
 1387TIP3   OH225651   3.270   2.343   0.901  0.3824 -0.1824 -0.4750
 1387TIP3    H125652   3.345   2.329   0.960  0.4589 -0.0203 -0.5329
 1387TIP3    H225653   3.195   2.308   0.949  0.1666  1.3762  0.4257
 1388TIP3   OH225654   1.961   6.550  13.762 -0.2381 -0.2580  0.2160
 1388TIP3    H125655   1.918   6.471  13.794  0.7638 -0.7304  0.4471
 1388TIP3    H225656   1.892   6.600  13.718 -1.3122 -0.3668  1.6922
 1389TIP3   OH225657   4.863   4.047  10.825 -0.0659 -0.2530 -0.1345
 1389TIP3    H125658   4.853   3.959  10.859 -0.0766  0.1802  1.0434
 1389TIP3    H225659   4.954   4.071  10.846 -0.2262  0.2103  0.0560
 1390TIP3   OH225660   3.919   3.301   3.309  0.3439  0.0830  0.8183
 1390TIP3    H125661   3.832   3.261   3.303  1.1975 -1.6337 -0.7422
 1390TIP3    H225662   3.935   3.338   3.222  1.1819  0.4119  1.1018
 1391TIP3   OH225663   2.295   0.909  14.343  0.2626  0.0155 -0.0862
 1391TIP3    H125664   2.275   0.837  14.284 -0.5984 -1.2663  1.6627
 1391TIP3    H225665   2.214   0.958  14.350  0.6747  0.8176 -0.7949
 1392TIP3   OH225666   5.029   3.949  15.800  0.1014 -0.0789  0.2218
 1392TIP3    H125667   5.087   4.011  15.756 -2.2753  1.1627 -1.3761
 1392TIP3    H225668   5.007   3.992  15.883 -1.8693  1.5696 -1.0546
 1393TIP3   OH225669   6.217   2.096   5.049  0.5153 -0.4328  0.0473
 1393TIP3    H125670   6.258   2.174   5.013  1.1439 -1.4571 -1.6000
 1393TIP3    H225671   6.123   2.112   5.041  0.6403  0.1704 -0.2520
 1394TIP3   OH225672   2.530   4.919   2.819 -0.0063 -0.4754  0.1183
 1394TIP3    H125673   2.483   4.850   2.865 -0.7351 -0.2110 -0.2178
 1394TIP3    H225674   2.479   4.935   2.740  2.9978 -3.3445 -2.6642
 1395TIP3   OH225675   5.097   4.671   0.108  0.0342  0.1795  0.0091
 1395TIP3    H125676   5.007   4.703   0.119  0.3497  0.9204  0.4760
 1395TIP3    H225677   5.128   4.715   0.028  0.6902  1.6007  1.0058
 1396TIP3   OH225678   3.791   3.260  13.995  0.4530  0.2645 -0.5836
 1396TIP3    H125679   3.703   3.261  13.959 -0.8504  0.4909  2.3155
 1396TIP3    H225680   3.787   3.198  14.068  2.5268  0.7265  0.0193
 1397TIP3   OH225681   1.962   5.035  14.951  0.0490  0.8351  0.4420
 1397TIP3    H125682   1.930   5.012  15.038 -1.2833 -1.4360 -0.5376
 1397TIP3    H225683   2.033   4.972  14.935  0.9025  1.8361  0.2271
 1398TIP3   OH225684   2.680   6.449  14.298 -0.3177  0.3169 -0.2785
 1398TIP3    H125685   2.597   6.403  14.304  0.2553 -0.8003 -0.6017
 1398TIP3    H225686   2.723   6.412  14.221  2.0823 -1.9077  1.9428
 1399TIP3   OH225687   3.259   5.273  16.141  0.2256  0.0390 -0.0998
 1399TIP3    H125688   3.224   5.190  16.110  0.2324  0.3502 -0.9939
 1399TIP3    H225689   3.301   5.311  16.063  0.0141  0.9772  0.2319
 1400TIP3   OH225690   3.459   3.146   3.124  0.2402 -0.0480  0.3781
 1400TIP3    H125691   3.514   3.186   3.191  1.3042  0.1945 -0.6134
 1400TIP3    H225692   3.493   3.057   3.113  1.1670  0.4437 -0.9894
 1401TIP3   OH225693   4.955   3.739   0.624  0.3386  0.3848  0.6218
 1401TIP3    H125694   5.018   3.739   0.551 -1.4971 -0.8040 -1.0606
 1401TIP3    H225695   4.912   3.824   0.618  0.1593  0.2724  0.2700
 1402TIP3   OH225696   5.476   4.780  14.121 -0.3569  0.1766  0.1937
 1402TIP3    H125697   5.440   4.766  14.209  0.3932 -0.1263  0.4653
 1402TIP3    H225698   5.480   4.693  14.082 -1.8989  0.4432 -0.6555
 1403TIP3   OH225699   1.297   3.963  15.675  0.2537 -0.6038 -0.4546
 1403TIP3    H125700   1.264   3.936  15.589 -2.3503 -1.0137  0.5640
 1403TIP3    H225701   1.302   4.058  15.670  0.4404 -0.6457 -1.1633
 1404TIP3   OH225702   4.628   3.907   0.423  0.3281 -0.2589  0.1228
 1404TIP3    H125703   4.688   3.838   0.395  0.1385 -0.4870  0.2640
 1404TIP3    H225704   4.572   3.922   0.347  0.2203 -0.4290  0.1670
 1405TIP3   OH225705   2.845   1.273   1.359 -0.0984 -0.3616 -0.0721
 1405TIP3    H125706   2.941   1.266   1.363  0.1094  2.0557  1.1946
 1405TIP3    H225707   2.826   1.300   1.270  0.3633 -1.2211 -0.4371
 1406TIP3   OH225708   2.964   6.784  12.953 -0.5070 -0.9427 -0.2481
 1406TIP3    H125709   2.880   6.753  12.918  0.6943 -2.6113 -1.8988
 1406TIP3    H225710   2.954   6.879  12.958 -2.5775 -1.1158 -0.1230
 1407TIP3   OH225711   5.509   1.433   4.145  0.2057  0.1393 -0.0932
 1407TIP3    H125712   5.601   1.427   4.117  0.5072  0.0931  0.8605
 1407TIP3    H225713   5.507   1.389   4.230 -0.5058  0.9634  0.3330
 1408TIP3   OH225714   1.339   5.831  16.697 -0.0731 -0.0195  0.0052
 1408TIP3    H125715   1.269   5.797  16.641  0.8696 -2.7092  0.3319
 1408TIP3    H225716   1.376   5.903  16.647 -2.9193  1.4217 -0.2285
 1409TIP3   OH225717   2.577   4.630   3.104  0.1597 -0.0018  0.6212
 1409TIP3    H125718   2.658   4.580   3.104 -0.0603 -0.5785 -2.2288
 1409TIP3    H225719   2.508   4.565   3.116  0.0483  0.5213  3.3339
 1410TIP3   OH225720   6.439   1.023   4.267 -0.0724 -0.5963  0.2509
 1410TIP3    H125721   6.430   1.118   4.276  2.5794 -0.1277 -0.9860
 1410TIP3    H225722   6.475   0.994   4.350  1.6661 -0.0417 -0.2658
 1411TIP3   OH225723   5.728   3.639   1.768 -0.3171  0.1166  0.1015
 1411TIP3    H125724   5.808   3.592   1.789  1.9377  3.5862  0.1099
 1411TIP3    H225725   5.716   3.626   1.674  0.4238 -0.1870  0.0453
 1412TIP3   OH225726   5.822   0.855   4.390  0.9105 -0.3654 -0.0870
 1412TIP3    H125727   5.783   0.817   4.469  0.2394 -1.0939 -0.7441
 1412TIP3    H225728   5.765   0.930   4.370 -0.6489 -1.8133 -1.4184
 1413TIP3   OH225729   6.253   3.453  12.036  0.4629  0.0133 -0.3112
 1413TIP3    H125730   6.230   3.492  11.952 -0.3225 -0.1760 -0.1891
 1413TIP3    H225731   6.179   3.396  12.058 -0.7576  2.2382  1.8923
 1414TIP3   OH225732   6.787   4.817   5.487  0.0433 -0.1896  0.1057
 1414TIP3    H125733   6.819   4.889   5.541 -0.7009  2.0425 -2.2147
 1414TIP3    H225734   6.795   4.739   5.542  0.5656  1.6988  2.8577
 1415TIP3   OH225735   3.512   6.511   2.459 -0.2321  0.1215 -0.2756
 1415TIP3    H125736   3.542   6.598   2.485  2.5212 -0.2598 -1.7841
 1415TIP3    H225737   3.587   6.454   2.474 -1.3657 -1.6514 -1.0120
 1416TIP3   OH225738   1.103   2.610  13.804 -0.2895 -0.4801  0.3075
 1416TIP3    H125739   1.139   2.649  13.884  0.4332 -0.7251  0.1105
 1416TIP3    H225740   1.064   2.684  13.756  1.2550  0.0558 -0.1662
 1417TIP3   OH225741   5.764   3.305   2.137  0.1670  0.2246 -0.1613
 1417TIP3    H125742   5.845   3.315   2.186  1.0577 -0.3346 -1.4677
 1417TIP3    H225743   5.748   3.392   2.101  1.2817 -0.0852 -1.4990
 1418TIP3   OH225744   1.324   4.465   0.311 -0.2697  0.3760 -0.5935
 1418TIP3    H125745   1.348   4.485   0.220  0.6516  1.6692 -0.1005
 1418TIP3    H225746   1.362   4.537   0.362 -1.0049 -0.1799  0.7929
 1419TIP3   OH225747   5.957   6.764  13.787 -0.3527 -0.5784  0.6034
 1419TIP3    H125748   5.893   6.825  13.823  1.1309  0.4117  1.6777
 1419TIP3    H225749   6.000   6.725  13.863  0.6442 -0.8809 -0.0879
 1420TIP3   OH225750   5.929   4.828   4.267 -0.0963 -0.1069  0.0477
 1420TIP3    H125751   5.926   4.753   4.207 -1.2382  1.5304 -2.0628
 1420TIP3    H225752   5.837   4.848   4.283  0.1926 -0.1922  2.0314
 1421TIP3   OH225753   3.371   4.681   4.603  0.2672  0.2312 -0.1032
 1421TIP3    H125754   3.402   4.763   4.642  0.7204 -0.4976  1.1435
 1421TIP3    H225755   3.298   4.707   4.547  1.0697  1.6065 -0.5611
 1422TIP3   OH225756   1.617   4.058  16.395 -0.3766 -0.0682  0.0501
 1422TIP3    H125757   1.588   4.017  16.313 -0.3481 -0.3958  0.2029
 1422TIP3    H225758   1.712   4.068  16.384 -0.5694  1.2615 -0.5669
 1423TIP3   OH225759   6.367   6.254   3.128 -0.2862  0.3780 -1.0019
 1423TIP3    H125760   6.284   6.281   3.089 -1.2160 -1.0679 -0.1275
 1423TIP3    H225761   6.394   6.178   3.077 -0.2145  0.0074 -0.4206
 1424TIP3   OH225762   0.857   1.257  16.576 -0.0179  0.9445 -0.6160
 1424TIP3    H125763   0.856   1.210  16.492 -2.1308  0.9974 -0.6822
 1424TIP3    H225764   0.844   1.189  16.642  1.2839  0.9474 -0.3323
 1425TIP3   OH225765   6.083   0.269  14.264 -0.3798 -0.5578 -0.2198
 1425TIP3    H125766   5.998   0.255  14.306  0.2743 -1.6970  0.7787
 1425TIP3    H225767   6.078   0.358  14.228 -1.8481 -0.4768  0.1556
 1426TIP3   OH225768   5.622   0.627   4.842  0.5343  0.0555  0.4868
 1426TIP3    H125769   5.614   0.717   4.872 -0.4929  0.4419 -0.8603
 1426TIP3    H225770   5.575   0.575   4.907 -0.9983  0.7828 -0.0170
 1427TIP3   OH225771   4.873   3.996   4.893  0.7719 -0.7062 -0.0428
 1427TIP3    H125772   4.926   4.070   4.866  1.9798 -1.0418  1.2695
 1427TIP3    H225773   4.904   3.923   4.839 -1.9066  0.0763 -2.9218
 1428TIP3   OH225774   2.632   3.544   3.961 -0.1052  0.0016 -0.3314
 1428TIP3    H125775   2.686   3.620   3.985 -0.2608 -0.0582  0.2263
 1428TIP3    H225776   2.544   3.581   3.949 -0.3493 -0.2086  0.7358
 1429TIP3   OH225777   0.784   1.437   2.747  0.0320 -0.2029 -0.2921
 1429TIP3    H125778   0.782   1.436   2.652  2.3049 -1.6207 -0.4048
 1429TIP3    H225779   0.874   1.411   2.769 -0.0186  1.3799  2.2259
 1430TIP3   OH225780   1.512   5.534   2.614  0.2716  0.3269 -0.0998
 1430TIP3    H125781   1.524   5.626   2.592  1.1751 -0.1156 -1.7002
 1430TIP3    H225782   1.601   5.500   2.624  0.0348 -0.6803 -1.0934
 1431TIP3   OH225783   1.224   1.691   3.612 -0.4971  0.1500  0.2958
 1431TIP3    H125784   1.156   1.699   3.544 -1.8590 -3.2309  1.0839
 1431TIP3    H225785   1.306   1.692   3.563 -1.3545 -0.3101 -1.2318
 1432TIP3   OH225786   3.837   1.888  13.650 -0.2492  0.4337  0.0417
 1432TIP3    H125787   3.930   1.868  13.664 -0.5680  0.3441  2.5555
 1432TIP3    H225788   3.827   1.978  13.681 -1.0077  0.4538 -0.2366
 1433TIP3   OH225789   1.487   3.014   6.472 -0.3342  0.3330  0.1073
 1433TIP3    H125790   1.421   3.083   6.481 -2.2428 -1.1316 -1.6653
 1433TIP3    H225791   1.447   2.938   6.514  0.1100 -0.6461 -1.2013
 1434TIP3   OH225792   3.993   3.697  11.956 -0.3450 -0.1664  0.5614
 1434TIP3    H125793   4.039   3.706  11.872  0.9332  0.1310  1.2686
 1434TIP3    H225794   4.003   3.782  11.998 -0.6899 -0.4210  1.1705
 1435TIP3   OH225795   5.347   3.570  16.799  0.4829  0.3203 -0.8240
 1435TIP3    H125796   5.397   3.596  16.877 -1.7519  0.2186  0.7389
 1435TIP3    H225797   5.395   3.495  16.763  1.0404 -0.2725  1.0533
 1436TIP3   OH225798   5.121   4.156   2.695 -0.1834  0.7823 -0.4371
 1436TIP3    H125799   5.051   4.204   2.738  0.9338  2.5902 -0.5378
 1436TIP3    H225800   5.126   4.193   2.607  0.1851 -0.0795 -0.7912
 1437TIP3   OH225801   6.569   4.504   6.140 -0.3659 -0.7037 -0.2603
 1437TIP3    H125802   6.509   4.450   6.089 -1.2334  0.4644 -0.5252
 1437TIP3    H225803   6.511   4.558   6.194  0.3904  1.1610 -1.2360
 1438TIP3   OH225804   1.017   0.470  13.617 -0.0006 -0.2360  0.3285
 1438TIP3    H125805   1.042   0.562  13.623  0.7118 -0.4810  1.4401
 1438TIP3    H225806   1.054   0.440  13.534  1.1025  0.1106  0.6713
 1439TIP3   OH225807   1.937   5.905   1.834 -0.0528 -0.2372 -0.0439
 1439TIP3    H125808   1.895   5.916   1.920  2.3965  1.1285  1.0699
 1439TIP3    H225809   2.017   5.957   1.840  0.5405 -0.6822 -2.9477
 1440TIP3   OH225810   6.103   5.531   1.863  0.0710 -0.4724 -0.2803
 1440TIP3    H125811   6.190   5.566   1.843 -0.6707  2.0137  0.4966
 1440TIP3    H225812   6.101   5.526   1.959 -1.1950  1.1518 -0.1840
 1441TIP3   OH225813   6.170   3.603  13.757 -0.6009 -0.4002 -0.1846
 1441TIP3    H125814   6.265   3.605  13.768 -0.5770  0.5467 -0.4608
 1441TIP3    H225815   6.156   3.572  13.667 -0.6198 -2.2554  0.4271
 1442TIP3   OH225816   5.039   6.005   1.106  0.1839 -0.4392  0.1324
 1442TIP3    H125817   5.066   6.038   1.191 -2.1967 -0.6766  1.0545
 1442TIP3    H225818   4.980   6.072   1.072  0.9291 -0.4495 -1.2737
 1443TIP3   OH225819   4.904   0.929  15.275 -0.3997  0.2235 -0.1540
 1443TIP3    H125820   4.885   1.019  15.249 -0.4129  0.5542  0.9492
 1443TIP3    H225821   4.850   0.876  15.216 -0.0139  0.9071 -1.1426
 1444TIP3   OH225822   3.905   6.734  13.070 -0.0237 -0.6846  0.6851
 1444TIP3    H125823   3.914   6.760  13.162  1.7421 -1.7744  0.8853
 1444TIP3    H225824   3.817   6.696  13.064 -0.1650 -0.5872  1.9215
 1445TIP3   OH225825   0.502   0.563   3.476 -0.6426 -0.3729 -0.2498
 1445TIP3    H125826   0.556   0.516   3.414  1.0316 -0.6145  1.3086
 1445TIP3    H225827   0.450   0.495   3.520 -1.1479 -0.2994 -0.7182
 1446TIP3   OH225828   2.504   5.178  16.351 -0.4397 -0.1538 -0.0214
 1446TIP3    H125829   2.470   5.090  16.368 -0.5041 -0.3059 -0.9186
 1446TIP3    H225830   2.551   5.171  16.268  0.6809  0.3581  0.5368
 1447TIP3   OH225831   1.194   5.326  13.022 -0.4027 -1.1375 -0.4349
 1447TIP3    H125832   1.107   5.365  13.029  0.4097  0.5935  0.6498
 1447TIP3    H225833   1.253   5.400  13.018  1.1026 -2.2847 -0.1613
 1448TIP3   OH225834   1.049   1.837   0.742  0.3378  0.4715 -0.7470
 1448TIP3    H125835   1.045   1.834   0.838 -0.9945  0.3783 -0.7845
 1448TIP3    H225836   0.960   1.858   0.715  1.1670  2.7283 -1.9169
 1449TIP3   OH225837   2.191   1.584  14.381 -0.1385 -0.1645  0.3119
 1449TIP3    H125838   2.198   1.648  14.310 -0.3676  0.3664  0.7619
 1449TIP3    H225839   2.281   1.564  14.405  0.0021 -1.4363 -1.0719
 1450TIP3   OH225840   5.559   1.522  15.999 -0.0409 -0.3085  0.2678
 1450TIP3    H125841   5.647   1.504  16.031  0.0396  0.9310  0.8384
 1450TIP3    H225842   5.560   1.616  15.980 -1.8298  0.1997  2.3288
 1451TIP3   OH225843   6.197   6.372  15.734  0.6834  0.6178  0.0917
 1451TIP3    H125844   6.108   6.383  15.702  0.5754  0.6282  0.3896
 1451TIP3    H225845   6.252   6.415  15.669  0.3510  2.0665  0.7236
 1452TIP3   OH225846   1.126   2.910  15.000  0.6276  0.8114  0.1305
 1452TIP3    H125847   1.041   2.873  14.977  1.7657 -2.9215  1.2054
 1452TIP3    H225848   1.108   2.966  15.076 -0.7362 -1.3659  1.5297
 1453TIP3   OH225849   2.786   4.493   2.073  0.1588  0.2798 -0.0250
 1453TIP3    H125850   2.803   4.571   2.126 -1.6019  2.8920 -2.8867
 1453TIP3    H225851   2.691   4.493   2.060  0.0245 -2.7136  0.2541
 1454TIP3   OH225852   6.724   2.371   4.774 -0.6228  0.1419  0.2225
 1454TIP3    H125853   6.768   2.455   4.784  0.2869 -0.4965  2.3146
 1454TIP3    H225854   6.730   2.351   4.681  1.5237  1.1705  0.0697
 1455TIP3   OH225855   2.378   1.971  15.056 -0.1944 -0.0452 -0.4767
 1455TIP3    H125856   2.286   1.987  15.040 -0.8504 -2.3287  0.5470
 1455TIP3    H225857   2.401   2.032  15.126 -1.1142  0.0436 -0.2415
 1456TIP3   OH225858   4.087   6.702  16.982 -0.6087 -0.0642  0.6411
 1456TIP3    H125859   4.143   6.779  16.974  1.8420 -1.9421 -2.9567
 1456TIP3    H225860   4.006   6.726  16.938  0.7082  0.1161 -1.8394
 1457TIP3   OH225861   6.809   5.639   3.146 -0.2521  0.0595  0.5393
 1457TIP3    H125862   6.768   5.588   3.076  1.0896 -1.8164  1.0376
 1457TIP3    H225863   6.826   5.725   3.108 -0.3989 -0.6194 -1.1230
 1458TIP3   OH225864   4.521   4.407   3.487 -0.0575 -0.6705  0.2596
 1458TIP3    H125865   4.474   4.324   3.495  0.4487 -1.0135 -0.2576
 1458TIP3    H225866   4.597   4.397   3.543 -2.1230  1.0719  3.7586
 1459TIP3   OH225867   1.742   3.162   1.321  1.0056  0.9327 -0.2573
 1459TIP3    H125868   1.663   3.111   1.303  0.3918  1.4864  0.7817
 1459TIP3    H225869   1.812   3.096   1.324  0.4348  0.3155 -0.2396
 1460TIP3   OH225870   4.472   2.413   0.779 -1.1392  0.0315  0.8145
 1460TIP3    H125871   4.421   2.420   0.698 -2.3056  1.7838  1.6496
 1460TIP3    H225872   4.409   2.432   0.848  0.1540 -0.0449  2.0427
 1461TIP3   OH225873   5.037   4.824  16.311  0.6232 -0.3344  0.0221
 1461TIP3    H125874   5.012   4.746  16.360 -1.6088 -0.0344 -0.5482
 1461TIP3    H225875   5.032   4.895  16.375  0.0571 -0.2938 -0.0598
 1462TIP3   OH225876   0.074   6.615  16.208  0.3370  0.2054 -0.3424
 1462TIP3    H125877   0.078   6.703  16.247  1.6061  0.5092 -1.0846
 1462TIP3    H225878   0.118   6.625  16.124  0.4726 -1.1520 -0.4469
 1463TIP3   OH225879   1.657   5.966   1.905  0.4657  0.1648 -0.0783
 1463TIP3    H125880   1.595   5.978   1.833  0.7464 -0.1726 -0.3800
 1463TIP3    H225881   1.612   6.001   1.981  0.0387  0.2362 -0.3588
 1464TIP3   OH225882   2.575   0.617  11.354 -0.4343  0.4758 -0.4517
 1464TIP3    H125883   2.501   0.668  11.321  0.0058  1.7448  0.4556
 1464TIP3    H225884   2.591   0.652  11.441  0.9041 -0.1538 -0.4246
 1465TIP3   OH225885   6.058   3.438  13.974  0.2553 -0.1308  0.1200
 1465TIP3    H125886   6.073   3.500  13.903 -1.6901 -1.0382 -1.1730
 1465TIP3    H225887   6.125   3.370  13.960  1.2414  0.7390  0.4744
 1466TIP3   OH225888   5.866   0.249  14.436  0.0900 -0.0363 -0.0504
 1466TIP3    H125889   5.864   0.228  14.529 -0.0680 -0.1534 -0.0788
 1466TIP3    H225890   5.832   0.338  14.431  0.9285  0.2946  0.0870
 1467TIP3   OH225891   2.785   4.928   1.267 -0.0124 -0.0596  0.5115
 1467TIP3    H125892   2.736   4.982   1.204  0.2900  1.7552  1.7680
 1467TIP3    H225893   2.757   4.960   1.353  0.6238 -1.5461  1.3091
 1468TIP3   OH225894   6.168   0.018   0.022  0.5656 -0.2075 -0.3443
 1468TIP3    H125895   6.183   0.034  -0.071  1.0272  1.7598  0.0061
 1468TIP3    H225896   6.244  -0.033   0.050  0.9551  0.0641 -0.8655
 1469TIP3   OH225897   5.515   1.210   3.925  0.1701  0.1139  0.2496
 1469TIP3    H125898   5.509   1.130   3.977 -0.6482 -0.6447 -0.9546
 1469TIP3    H225899   5.500   1.280   3.987 -0.1400 -0.7318  1.1592
 1470TIP3   OH225900   5.338   0.067   3.075 -0.2113 -0.4946 -0.1468
 1470TIP3    H125901   5.432   0.085   3.071  0.0928 -1.5967  1.2538
 1470TIP3    H225902   5.308   0.114   3.153 -0.4818 -1.5320  0.3813
 1471TIP3   OH225903   2.274   0.089   3.881 -0.1328  0.1147  0.6290
 1471TIP3    H125904   2.219   0.016   3.908 -0.5036  0.0600 -0.2283
 1471TIP3    H225905   2.221   0.167   3.898  0.4140  0.2336  1.9138
 1472TIP3   OH225906   3.768   1.419   2.538 -0.9772  0.6603  0.4974
 1472TIP3    H125907   3.741   1.337   2.496 -1.3278 -0.5144  2.8564
 1472TIP3    H225908   3.687   1.460   2.565 -0.7140  0.5419  1.5054
 1473TIP3   OH225909   6.769   1.661   4.191  0.5885  0.7267  0.3595
 1473TIP3    H125910   6.710   1.707   4.250 -0.0113  0.0864  0.2718
 1473TIP3    H225911   6.825   1.609   4.249  1.1420  1.4020  0.4478
 1474TIP3   OH225912   5.853   2.682   3.408  0.0305  0.3783  0.7512
 1474TIP3    H125913   5.795   2.611   3.436 -0.2217  0.0630 -0.4986
 1474TIP3    H225914   5.806   2.762   3.431 -1.4490  0.1498 -1.1464
 1475TIP3   OH225915   4.874   2.810   5.528 -0.5436  0.4099 -0.0987
 1475TIP3    H125916   4.828   2.815   5.444 -3.4624  0.2296  1.3826
 1475TIP3    H225917   4.806   2.794   5.593  1.6511  0.0313  2.3094
 1476TIP3   OH225918   6.468   6.667   6.326  0.1525 -0.0045 -0.0761
 1476TIP3    H125919   6.375   6.690   6.317 -0.2317 -1.5064 -0.1026
 1476TIP3    H225920   6.471   6.573   6.313  1.3438 -0.3922  2.4169
 1477TIP3   OH225921   4.054   2.602  11.421  0.8825 -0.0378  0.1693
 1477TIP3    H125922   4.035   2.545  11.495 -1.4312 -0.8306 -0.9417
 1477TIP3    H225923   4.046   2.545  11.344  0.3180  1.3641 -0.8530
 1478TIP3   OH225924   2.770   5.542  14.390 -0.4621 -0.3100  0.1754
 1478TIP3    H125925   2.759   5.567  14.481  1.2176  0.5945  0.1645
 1478TIP3    H225926   2.722   5.609  14.341 -0.9522 -0.5141  0.3743
 1479TIP3   OH225927   1.063   0.840   6.293  0.6630  0.4187  0.1697
 1479TIP3    H125928   1.120   0.781   6.245 -2.1243 -1.3817 -1.1821
 1479TIP3    H225929   1.089   0.830   6.385  1.1630 -1.9237 -0.1848
 1480TIP3   OH225930   1.999   0.474  16.695  0.1412 -0.6219 -0.2480
 1480TIP3    H125931   2.061   0.411  16.731  0.8804  0.5063  0.5174
 1480TIP3    H225932   2.051   0.552  16.675 -0.7797 -0.1591 -0.9543
 1481TIP3   OH225933   1.360   1.681   1.030 -0.8057 -0.0479 -0.2827
 1481TIP3    H125934   1.438   1.644   1.072 -0.7974  0.8047  0.5053
 1481TIP3    H225935   1.301   1.702   1.103 -1.2675  0.4193 -0.7780
 1482TIP3   OH225936   4.338   1.509   2.461  0.3401  0.0342  0.4041
 1482TIP3    H125937   4.295   1.500   2.546 -1.6774 -1.1873 -0.6696
 1482TIP3    H225938   4.305   1.436   2.410  0.1821  1.6726 -1.9667
 1483TIP3   OH225939   0.256   0.462   2.496 -0.2106 -0.1185  0.0068
 1483TIP3    H125940   0.298   0.464   2.582  0.5618 -0.3661 -0.3539
 1483TIP3    H225941   0.294   0.537   2.450  0.3311 -0.7166 -0.5421
 1484TIP3   OH225942   5.890   4.235  11.309  0.4549  0.3175  0.5206
 1484TIP3    H125943   5.799   4.212  11.291  0.8843 -0.1881 -1.0853
 1484TIP3    H225944   5.888   4.330  11.324 -0.1670  0.5141 -0.7200
 1485TIP3   OH225945   1.283   1.936  12.142  0.4067 -0.1564 -0.5109
 1485TIP3    H125946   1.369   1.895  12.132 -0.5192 -1.9452 -1.5987
 1485TIP3    H225947   1.222   1.863  12.151 -0.8405  1.0722  2.3725
 1486TIP3   OH225948   0.037   4.618  11.774  0.6668 -0.6935  0.1935
 1486TIP3    H125949  -0.056   4.638  11.782  0.8263  0.4372 -0.5467
 1486TIP3    H225950   0.061   4.652  11.688  1.9317 -0.2734  0.6864
 1487TIP3   OH225951   6.470   5.172   0.616 -0.0736  0.7295 -0.0128
 1487TIP3    H125952   6.535   5.169   0.685 -0.7400  0.2025  0.6115
 1487TIP3    H225953   6.386   5.166   0.662 -0.4993 -1.3469 -0.9413
 1488TIP3   OH225954   0.502   0.322   5.127 -0.5213  0.0400  0.2683
 1488TIP3    H125955   0.545   0.289   5.206 -0.8187 -0.4629  0.2274
 1488TIP3    H225956   0.462   0.405   5.154 -0.9028 -0.2881  0.7373
 1489TIP3   OH225957   6.193   1.465   5.281  0.0065  0.4434 -0.4310
 1489TIP3    H125958   6.269   1.415   5.312 -0.2192  0.9410  1.0108
 1489TIP3    H225959   6.230   1.527   5.218  0.8904  0.9393  0.5355
 1490TIP3   OH225960   0.858   3.947  14.057 -0.1457 -0.2863 -0.0281
 1490TIP3    H125961   0.874   3.975  14.147 -0.6426  0.1013 -0.0581
 1490TIP3    H225962   0.841   3.853  14.064  1.8181 -0.6879  0.0402
 1491TIP3   OH225963   0.270   0.626  11.923  0.3653  0.1047 -0.0248
 1491TIP3    H125964   0.230   0.683  11.988 -1.2987 -1.5318  0.5008
 1491TIP3    H225965   0.268   0.676  11.841  1.0242  1.5878  0.8339
 1492TIP3   OH225966   0.977   0.874   0.437  0.2069  0.0701 -0.1538
 1492TIP3    H125967   0.941   0.945   0.491  1.3367  0.4371  0.1645
 1492TIP3    H225968   1.067   0.903   0.418 -0.1644 -0.0062 -2.3100
 1493TIP3   OH225969   1.363   1.904  14.568  0.2759 -0.3964  0.0019
 1493TIP3    H125970   1.442   1.956  14.581 -0.0878  0.3624 -0.7525
 1493TIP3    H225971   1.396   1.817  14.544  0.9239  0.3333 -1.9803
 1494TIP3   OH225972   4.091   3.283  14.460 -0.5676  0.0800 -0.3845
 1494TIP3    H125973   4.146   3.352  14.497 -0.1712  0.6807 -2.0380
 1494TIP3    H225974   4.108   3.285  14.366 -1.4872 -1.4509 -0.6313
 1495TIP3   OH225975   5.654   1.122   1.936  0.1549  0.0126 -0.1434
 1495TIP3    H125976   5.691   1.109   1.849 -1.1457  1.9552 -1.0667
 1495TIP3    H225977   5.714   1.183   1.979 -0.5222  1.0944 -0.6781
 1496TIP3   OH225978   5.868   6.041   5.330  0.4204 -0.2930  0.0645
 1496TIP3    H125979   5.810   5.987   5.382  0.1362 -0.5670 -0.5226
 1496TIP3    H225980   5.930   5.979   5.291  0.7588 -0.0685  0.2460
 1497TIP3   OH225981   4.566   5.484   3.648  0.5542 -0.2792  0.2428
 1497TIP3    H125982   4.557   5.576   3.620  0.9640 -0.1849  0.4108
 1497TIP3    H225983   4.499   5.438   3.598 -0.9736  0.3998  1.5848
 1498TIP3   OH225984   0.376   0.530  13.701 -0.3955  0.0436 -0.3645
 1498TIP3    H125985   0.313   0.602  13.699 -0.3797  0.0920  0.4547
 1498TIP3    H225986   0.459   0.572  13.723 -0.0661 -0.0153 -1.4679
 1499TIP3   OH225987   4.693   1.470   4.077  0.2174  0.0499 -0.1551
 1499TIP3    H125988   4.619   1.473   4.137 -0.8008  0.6960 -1.3725
 1499TIP3    H225989   4.752   1.403   4.112 -1.8747 -1.9140 -0.1811
 1500TIP3   OH225990   2.761   0.813   0.403  0.3664 -0.1102  0.0012
 1500TIP3    H125991   2.700   0.837   0.473  0.4045  1.4523 -0.4547
 1500TIP3    H225992   2.725   0.732   0.367 -0.3775 -0.2338  0.9846
 1501TIP3   OH225993   0.405   3.274  10.973  0.1623  0.9225  0.2228
 1501TIP3    H125994   0.457   3.213  10.921  0.9605  0.0177  1.9959
 1501TIP3    H225995   0.427   3.360  10.938  0.2899  0.3230 -1.2338
 1502TIP3   OH225996   6.520   2.845   2.365 -0.2653 -0.1978 -0.3804
 1502TIP3    H125997   6.583   2.845   2.293  0.8259 -0.6436  0.5479
 1502TIP3    H225998   6.537   2.927   2.412 -0.9593  0.0840 -0.6087
 1503TIP3   OH225999   5.417   3.676   0.398  0.0057 -0.5765  0.5890
 1503TIP3    H126000   5.512   3.663   0.408  0.1432 -0.0483  0.0403
 1503TIP3    H226001   5.396   3.748   0.457 -0.2376 -1.3315  1.4452
 1504TIP3   OH226002   4.007   0.639  11.222  0.3477 -0.5414  0.2693
 1504TIP3    H126003   4.047   0.720  11.192  0.8337 -0.9805 -0.2916
 1504TIP3    H226004   4.066   0.608  11.291 -0.2240 -0.0559  0.9920
 1505TIP3   OH226005   0.787   1.117  15.168 -0.0676  0.0444 -0.0902
 1505TIP3    H126006   0.775   1.076  15.083  1.1705 -0.6528  0.0501
 1505TIP3    H226007   0.869   1.080  15.201  0.3859  1.6000  0.6377
 1506TIP3   OH226008   4.336   0.235  13.190  0.3657  0.0838  0.2016
 1506TIP3    H126009   4.364   0.165  13.249  1.5373  1.9394  1.9732
 1506TIP3    H226010   4.279   0.290  13.243 -1.2876  0.0550 -1.4239
 1507TIP3   OH226011   4.367   3.853  16.559  0.4789  0.5555 -0.2999
 1507TIP3    H126012   4.290   3.848  16.615  0.3269  0.7310 -0.4904
 1507TIP3    H226013   4.382   3.763  16.531 -0.3150  0.6644 -1.1370
 1508TIP3   OH226014   3.836   2.179   4.106 -0.0498  0.0797  0.1456
 1508TIP3    H126015   3.778   2.104   4.123  0.2438 -0.8993 -2.5776
 1508TIP3    H226016   3.792   2.227   4.036  0.9702  1.0740  0.1616
 1509TIP3   OH226017   4.945   0.926  14.880 -0.2817 -0.7557  0.1241
 1509TIP3    H126018   4.947   0.858  14.812 -2.2075 -1.2927  0.5340
 1509TIP3    H226019   4.864   0.909  14.928  0.0006  0.8794  1.2574
 1510TIP3   OH226020   3.494   2.610   3.332  0.1591  0.7162 -0.2875
 1510TIP3    H126021   3.552   2.579   3.262  0.6859  2.0637 -0.4666
 1510TIP3    H226022   3.407   2.582   3.305  0.1393  2.4377 -2.2437
 1511TIP3   OH226023   0.699   5.656   0.978  0.1707 -0.2766 -0.6029
 1511TIP3    H126024   0.676   5.564   0.964  1.5442 -1.1176  2.0267
 1511TIP3    H226025   0.792   5.655   1.002  0.1498  1.7544 -0.2339
 1512TIP3   OH226026   5.965   3.177  16.001  0.1040 -0.2571  0.3048
 1512TIP3    H126027   5.960   3.093  15.956 -0.1129  0.5220 -1.1968
 1512TIP3    H226028   6.057   3.202  15.994  0.3485 -0.7457  1.5172
 1513TIP3   OH226029   0.763   2.493   3.158 -0.2543  0.1624  0.4119
 1513TIP3    H126030   0.700   2.422   3.170  0.2531 -0.1576  1.3463
 1513TIP3    H226031   0.773   2.530   3.246 -0.7852  1.6419 -0.1231
 1514TIP3   OH226032   2.477   6.391   2.486  0.2393 -0.3238 -0.0236
 1514TIP3    H126033   2.512   6.303   2.501 -0.2463 -0.7684 -1.3618
 1514TIP3    H226034   2.550   6.449   2.509  1.5661 -1.1956 -1.7817
 1515TIP3   OH226035   5.591   3.106  12.782 -0.0238 -0.2457 -0.5561
 1515TIP3    H126036   5.608   3.184  12.834 -1.4794 -0.1438 -0.1772
 1515TIP3    H226037   5.642   3.118  12.702  0.0628  0.9027 -0.3339
 1516TIP3   OH226038   6.559   3.107  14.005 -0.3384  0.0715 -0.0195
 1516TIP3    H126039   6.593   3.017  14.003  0.6226  0.4289 -1.4102
 1516TIP3    H226040   6.469   3.098  14.036 -0.4223 -1.4307 -0.6151
 1517TIP3   OH226041   0.925   2.691   4.273 -0.0597 -0.1373  0.7478
 1517TIP3    H126042   0.958   2.704   4.362  0.7763  1.2909  0.2719
 1517TIP3    H226043   0.972   2.615   4.240  0.3013 -0.1253  1.2291
 1518TIP3   OH226044   5.989   6.720   6.805  0.6556  0.5731  0.4298
 1518TIP3    H126045   5.964   6.810   6.826  1.1802  0.7775  0.1836
 1518TIP3    H226046   6.077   6.727   6.769  0.7236 -0.0478  0.4651
 1519TIP3   OH226047   0.580   4.246   2.828  0.2244 -0.1112 -0.5692
 1519TIP3    H126048   0.490   4.272   2.808  0.1357 -1.4440 -2.1498
 1519TIP3    H226049   0.633   4.323   2.803 -0.4220  0.5022 -0.0828
 1520TIP3   OH226050   0.934   0.806  15.789 -0.1345  0.3743 -0.6282
 1520TIP3    H126051   0.942   0.779  15.697 -1.1741  1.7183 -1.1574
 1520TIP3    H226052   0.840   0.799  15.807  0.2155 -1.2421  0.8110
 1521TIP3   OH226053   3.461   6.383   4.796 -0.0876  0.1501 -0.2244
 1521TIP3    H126054   3.459   6.302   4.848  1.4771  0.7339  0.8335
 1521TIP3    H226055   3.372   6.416   4.800 -0.0022  0.3044  2.3706
 1522TIP3   OH226056   6.706   1.601   0.851 -0.1078  0.7384  0.3951
 1522TIP3    H126057   6.676   1.686   0.819 -0.8356  0.5722  0.6157
 1522TIP3    H226058   6.700   1.543   0.775 -0.0522  0.7828  0.3574
 1523TIP3   OH226059   2.266   4.262   3.102 -0.5087  0.3283  0.1151
 1523TIP3    H126060   2.330   4.195   3.076 -0.7419  0.7232 -1.6018
 1523TIP3    H226061   2.314   4.318   3.163  0.2785 -0.3049  0.0974
 1524TIP3   OH226062   0.255   4.822   5.606 -0.2296 -0.0034 -0.2339
 1524TIP3    H126063   0.293   4.822   5.518 -0.5340 -1.3943 -0.3860
 1524TIP3    H226064   0.225   4.732   5.619 -0.5086  0.2728  1.1603
 1525TIP3   OH226065   3.232   2.599   5.711 -0.0598 -0.1272  0.5036
 1525TIP3    H126066   3.180   2.673   5.681  0.3339 -0.5046 -1.2304
 1525TIP3    H226067   3.243   2.613   5.805 -1.6580  0.9505  0.5659
 1526TIP3   OH226068   4.097   1.131  12.042  0.2670 -0.0528 -0.2364
 1526TIP3    H126069   4.070   1.043  12.015 -0.3774  0.2310 -0.5408
 1526TIP3    H226070   4.082   1.186  11.965 -0.4948  0.5483  0.3118
 1527TIP3   OH226071   1.507   2.581  11.108 -0.1454 -0.7825  0.2771
 1527TIP3    H126072   1.528   2.504  11.055  0.2219 -0.7776  0.4051
 1527TIP3    H226073   1.549   2.562  11.193  0.9209  0.0557 -0.0442
 1528TIP3   OH226074   1.696   1.618  10.837  0.1551 -0.0449 -0.1449
 1528TIP3    H126075   1.718   1.683  10.770  1.7923 -0.3595  0.0299
 1528TIP3    H226076   1.601   1.615  10.839  0.0682  0.1124 -2.3279
 1529TIP3   OH226077   1.849   1.071   1.653  0.3091  0.0813 -0.6809
 1529TIP3    H126078   1.909   1.144   1.670  0.7368 -0.1944 -0.9896
 1529TIP3    H226079   1.831   1.074   1.559  3.3086 -2.4015 -1.5138
 1530TIP3   OH226080   5.322   0.589   0.059 -0.1676 -0.2511  1.0654
 1530TIP3    H126081   5.413   0.617   0.074  0.9483 -3.3689  0.8176
 1530TIP3    H226082   5.282   0.592   0.145 -0.3910  2.6669  0.9478
 1531TIP3   OH226083   4.548   2.770  14.852  0.6335  0.0581  0.1083
 1531TIP3    H126084   4.472   2.770  14.793  1.8884 -2.1803 -1.6721
 1531TIP3    H226085   4.557   2.678  14.880  1.8178  0.5499  1.4640
 1532TIP3   OH226086   2.550   0.126  10.721 -0.0562 -0.3998  0.1735
 1532TIP3    H126087   2.623   0.168  10.767  0.8741 -1.4221 -0.3040
 1532TIP3    H226088   2.517   0.061  10.782  0.6061 -1.1543 -0.2559
 1533TIP3   OH226089   6.212   4.619   0.150 -0.4292  0.2168  0.1467
 1533TIP3    H126090   6.280   4.553   0.162  0.0613  0.5722 -0.6020
 1533TIP3    H226091   6.176   4.632   0.238 -0.3224 -0.8092  0.3599
 1534TIP3   OH226092   5.952   3.712   3.283  0.4213  0.3973  0.3487
 1534TIP3    H126093   6.043   3.722   3.310  1.0698 -1.8439 -0.7854
 1534TIP3    H226094   5.916   3.801   3.286  1.9076  1.0267  3.1577
 1535TIP3   OH226095   5.224   5.866   3.393  0.1031  0.0203 -0.2041
 1535TIP3    H126096   5.219   5.962   3.386 -0.0809  0.1772  1.5685
 1535TIP3    H226097   5.144   5.841   3.438  0.5108 -0.8786  0.0383
 1536TIP3   OH226098   6.736   3.653  11.794 -0.2758 -0.2019 -0.0149
 1536TIP3    H126099   6.725   3.558  11.797  1.2476 -0.4274 -0.3706
 1536TIP3    H226100   6.691   3.680  11.714 -1.0766 -0.5551  0.3103
 1537TIP3   OH226101   5.901   4.498  13.726  0.4356 -0.7240 -0.5535
 1537TIP3    H126102   5.937   4.584  13.706 -0.8516 -0.0383 -0.0319
 1537TIP3    H226103   5.945   4.472  13.807 -0.9790  0.6280  0.7327
 1538TIP3   OH226104   0.323   5.297  13.318  0.2309  1.1090 -0.0330
 1538TIP3    H126105   0.376   5.331  13.390  0.7740  2.3416 -0.9872
 1538TIP3    H226106   0.387   5.268  13.252 -0.2260  2.5397 -1.1678
 1539TIP3   OH226107   5.409   6.325  16.926  0.5764 -0.4681  0.1861
 1539TIP3    H126108   5.429   6.251  16.984 -1.0250 -2.0231 -1.1290
 1539TIP3    H226109   5.399   6.400  16.985  1.1357 -1.5202  1.6847
 1540TIP3   OH226110   1.307   0.796   5.437 -0.2999  0.2238 -0.5363
 1540TIP3    H126111   1.313   0.887   5.408  0.5233 -0.2059 -1.7788
 1540TIP3    H226112   1.328   0.800   5.531 -1.0335  1.3849 -0.3951
 1541TIP3   OH226113   5.300   4.831   1.918 -0.3308  0.3521  0.5115
 1541TIP3    H126114   5.379   4.820   1.865 -0.1069  0.4657  0.8175
 1541TIP3    H226115   5.230   4.844   1.854 -0.8019 -3.4642 -0.0070
 1542TIP3   OH226116   6.770   2.215  14.634  0.1942  0.2659 -0.7840
 1542TIP3    H126117   6.733   2.213  14.546 -1.6863  1.6640 -0.0937
 1542TIP3    H226118   6.708   2.164  14.687  0.9733 -0.0349 -0.1407
 1543TIP3   OH226119   4.455   4.865   6.194 -0.2520 -0.4744 -0.2505
 1543TIP3    H126120   4.437   4.954   6.224  1.3935  0.2624 -1.3113
 1543TIP3    H226121   4.531   4.838   6.244  0.2299 -0.6585 -1.0672
 1544TIP3   OH226122   3.928   4.572   5.396  0.3194  0.1611  0.1024
 1544TIP3    H126123   3.872   4.498   5.372 -0.9960  0.4788  1.9296
 1544TIP3    H226124   3.975   4.594   5.316 -0.6732 -1.4231 -0.9761
 1545TIP3   OH226125   1.331   3.279   3.868  0.1893  0.8349  0.0723
 1545TIP3    H126126   1.381   3.260   3.947 -1.0014 -1.7487  0.3123
 1545TIP3    H226127   1.358   3.368   3.843  3.3896  0.3049  1.2079
 1546TIP3   OH226128   0.538   1.055   5.491 -0.6406 -0.0714  0.2890
 1546TIP3    H126129   0.464   1.049   5.551 -0.5732 -0.1291  0.3663
 1546TIP3    H226130   0.575   1.142   5.507 -0.4087 -0.2249  0.5799
 1547TIP3   OH226131   3.247   1.656  14.718  0.0278  0.2461 -0.0313
 1547TIP3    H126132   3.214   1.745  14.725  0.1436  0.3370 -0.5978
 1547TIP3    H226133   3.178   1.608  14.674  0.5369  0.3799 -0.9906
 1548TIP3   OH226134   5.507   3.269   1.049 -0.4457  0.7348 -0.1027
 1548TIP3    H126135   5.421   3.300   1.021 -0.2527  2.4512  1.0704
 1548TIP3    H226136   5.540   3.337   1.108  0.7452 -0.9336  1.2969
 1549TIP3   OH226137   0.239   1.399   5.623  0.0017 -0.0146  0.0164
 1549TIP3    H126138   0.208   1.311   5.645  1.7448 -0.9804 -1.1763
 1549TIP3    H226139   0.293   1.387   5.545  2.6263  1.6328  1.4116
 1550TIP3   OH226140   6.218   3.736  13.204  0.1537 -0.4833 -0.2968
 1550TIP3    H126141   6.311   3.712  13.199  0.2301 -0.1789 -0.3725
 1550TIP3    H226142   6.172   3.655  13.185  0.4006 -0.6977 -0.0017
 1551TIP3   OH226143   1.122   3.390   5.147 -0.2321  0.3554 -0.3465
 1551TIP3    H126144   1.201   3.405   5.199 -1.4596 -0.3915  1.8778
 1551TIP3    H226145   1.063   3.461   5.173 -0.0048  1.5413 -2.7753
 1552TIP3   OH226146   2.244   0.029   1.328  0.3788 -0.1818  0.5944
 1552TIP3    H126147   2.297   0.051   1.405  1.8661 -1.2928 -0.0529
 1552TIP3    H226148   2.286   0.075   1.256  0.4592 -1.0273  0.0790
 1553TIP3   OH226149   0.136   2.121  12.523  0.1038  0.0555  0.2990
 1553TIP3    H126150   0.147   2.187  12.454  1.2040 -1.1746 -0.7503
 1553TIP3    H226151   0.049   2.086  12.508  0.9077 -1.3377 -1.5688
 1554TIP3   OH226152   4.805   6.196  14.082  0.2121  0.0931 -0.2718
 1554TIP3    H126153   4.806   6.171  13.990  0.9685  1.9307 -0.8137
 1554TIP3    H226154   4.897   6.193  14.109 -0.0761 -1.2218  0.7009
 1555TIP3   OH226155   6.363   4.547   2.372 -1.2215  0.0595 -0.4092
 1555TIP3    H126156   6.332   4.461   2.402 -1.0284  0.4314  0.9175
 1555TIP3    H226157   6.286   4.604   2.380 -1.0271  0.2824 -0.1142
 1556TIP3   OH226158   6.125   5.884  14.588 -0.3103  0.5050 -0.8013
 1556TIP3    H126159   6.205   5.841  14.558  0.7827  2.1371 -0.3596
 1556TIP3    H226160   6.056   5.819  14.574  1.3630 -1.7629  0.7230
 1557TIP3   OH226161   5.885   5.732  11.989  0.1423  0.8507  0.0284
 1557TIP3    H126162   5.841   5.673  12.051  1.1459  1.4178  1.3169
 1557TIP3    H226163   5.880   5.686  11.905 -0.7660 -0.1917  0.6280
 1558TIP3   OH226164   3.890   4.220  15.975  0.8467 -0.1724 -0.1699
 1558TIP3    H126165   3.948   4.180  15.909 -0.5217 -0.8811 -1.0050
 1558TIP3    H226166   3.850   4.145  16.020 -0.0371  0.2753 -0.1867
 1559TIP3   OH226167   0.976   3.641   1.458 -0.0651  0.0850 -0.1491
 1559TIP3    H126168   1.033   3.709   1.422  0.6934  0.2611  1.2798
 1559TIP3    H226169   0.973   3.660   1.552 -0.5311 -1.3418  0.1532
 1560TIP3   OH226170   1.020   2.645  17.172  0.3697 -0.0102  0.0926
 1560TIP3    H126171   1.030   2.683  17.085  0.4238 -3.0728 -1.3611
 1560TIP3    H226172   0.954   2.576  17.161  1.8294 -1.8392  1.9970
 1561TIP3   OH226173   6.000   0.769  17.035  0.2205 -0.1745  0.3462
 1561TIP3    H126174   5.993   0.692  16.979 -1.5273  0.9619 -1.1227
 1561TIP3    H226175   6.010   0.734  17.124 -0.8399 -2.0814 -0.2387
 1562TIP3   OH226176   0.546   1.423   2.888 -0.1999 -0.3639  0.8502
 1562TIP3    H126177   0.490   1.498   2.867 -1.1952 -1.1824  0.5185
 1562TIP3    H226178   0.625   1.438   2.837  0.9300  2.0028  3.0631
 1563TIP3   OH226179   3.697   1.572  11.645 -0.5919 -0.1561 -0.1663
 1563TIP3    H126180   3.674   1.555  11.554  0.8126  0.0721 -0.5862
 1563TIP3    H226181   3.613   1.578  11.691 -1.4414  2.1988 -1.8562
 1564TIP3   OH226182   2.219   1.664  16.145  0.5076 -0.0365  0.0589
 1564TIP3    H126183   2.268   1.746  16.135 -0.4938  0.4889 -0.6105
 1564TIP3    H226184   2.128   1.687  16.129  0.4111 -1.6684 -2.3860
 1565TIP3   OH226185   2.963   1.628   2.624  0.5181 -0.1420 -0.1183
 1565TIP3    H126186   2.943   1.566   2.554  0.5753 -2.4956  1.8013
 1565TIP3    H226187   3.056   1.648   2.613  0.5510 -0.5709 -0.6513
 1566TIP3   OH226188   2.677   2.913   5.521  0.2193  0.2158 -0.6458
 1566TIP3    H126189   2.658   2.834   5.573  0.0082 -0.0097 -1.0624
 1566TIP3    H226190   2.685   2.982   5.586 -2.8679  0.5058 -0.4263
 1567TIP3   OH226191   4.058   5.710  14.622 -0.2686 -0.3661 -0.3680
 1567TIP3    H126192   4.115   5.777  14.658 -0.3130 -1.0311  1.0015
 1567TIP3    H226193   4.008   5.677  14.697 -1.0863 -1.1194 -1.2043
 1568TIP3   OH226194   4.733   3.816  11.763 -0.2073  0.4163  0.0992
 1568TIP3    H126195   4.693   3.901  11.743  0.2703  0.5807 -0.1759
 1568TIP3    H226196   4.824   3.826  11.737 -0.4418 -0.6147 -1.2328
 1569TIP3   OH226197   5.732   5.846  15.300 -0.1078 -0.5676  0.6023
 1569TIP3    H126198   5.663   5.900  15.340  0.1078 -0.2385  0.5333
 1569TIP3    H226199   5.710   5.843  15.207 -1.0958 -2.0499  0.8410
 1570TIP3   OH226200   1.370   3.985  13.499 -0.2857  0.0021 -0.2529
 1570TIP3    H126201   1.348   4.074  13.528  0.6121  0.7890 -1.8952
 1570TIP3    H226202   1.287   3.939  13.501 -0.9024  1.0713 -0.0600
 1571TIP3   OH226203   2.813   2.130  15.213 -0.4272 -0.3405 -0.4581
 1571TIP3    H126204   2.886   2.171  15.166 -2.4571  1.2373 -2.4594
 1571TIP3    H226205   2.796   2.049  15.164 -0.5111 -0.3034 -0.4913
 1572TIP3   OH226206   2.438   0.653  12.688 -0.6756 -0.6637 -0.5975
 1572TIP3    H126207   2.429   0.726  12.626  0.4394 -0.8466 -0.9852
 1572TIP3    H226208   2.525   0.617  12.671  0.4753  0.4476  2.3275
 1573TIP3   OH226209   0.396   6.626   0.023  0.2410  0.4275  0.0669
 1573TIP3    H126210   0.325   6.571   0.055 -1.5290  1.9898 -0.9988
 1573TIP3    H226211   0.464   6.563  -0.002 -1.0622 -1.1819  0.3523
 1574TIP3   OH226212   0.081   1.599  14.511  0.2674  0.5839 -0.1529
 1574TIP3    H126213   0.153   1.542  14.537  0.3671  0.9794  0.4573
 1574TIP3    H226214   0.026   1.545  14.454 -0.3327 -0.5230  1.4093
 1575TIP3   OH226215   5.213   1.110  14.675 -0.1220 -0.2601 -0.0837
 1575TIP3    H126216   5.151   1.098  14.604 -0.2559 -0.0498 -0.0044
 1575TIP3    H226217   5.281   1.166  14.637 -0.6248  0.5610  0.1999
 1576TIP3   OH226218   0.369   6.338   5.401  0.4252 -0.0822  0.6219
 1576TIP3    H126219   0.366   6.246   5.427  0.8075 -0.4206 -0.4870
 1576TIP3    H226220   0.434   6.342   5.332  1.5367  1.3140  1.6886
 1577TIP3   OH226221   0.698   1.019  16.061  0.2311  0.1438 -0.1030
 1577TIP3    H126222   0.748   1.042  15.983  0.9709 -1.1743 -0.0476
 1577TIP3    H226223   0.607   1.022  16.033  0.4545  0.3236 -0.8307
 1578TIP3   OH226224   3.714   3.522  15.236  0.3892  1.1953 -0.4257
 1578TIP3    H126225   3.769   3.445  15.251 -0.1307  0.7409 -0.8093
 1578TIP3    H226226   3.664   3.501  15.157 -1.5079  0.9175  0.7884
 1579TIP3   OH226227   4.264   6.531   4.458 -0.4379 -0.0700 -0.2330
 1579TIP3    H126228   4.169   6.518   4.457 -0.4679  0.0448 -2.0477
 1579TIP3    H226229   4.300   6.449   4.426  0.0788 -0.0568  0.3002
 1580TIP3   OH226230   4.086   3.424   1.019 -0.2878  0.1781  0.4872
 1580TIP3    H126231   4.079   3.519   1.009  0.1368  0.3440  1.6227
 1580TIP3    H226232   4.111   3.392   0.932 -0.3628  1.1100  0.1135
 1581TIP3   OH226233   5.241   3.441   2.870  0.0188 -0.1919 -0.5425
 1581TIP3    H126234   5.319   3.391   2.846 -0.1027 -0.6598  0.0379
 1581TIP3    H226235   5.215   3.408   2.956 -0.3303  0.5497 -0.3496
 1582TIP3   OH226236   0.494   2.324   3.170  0.5002  0.6726 -0.3440
 1582TIP3    H126237   0.435   2.299   3.242  0.3113  1.2542 -0.2880
 1582TIP3    H226238   0.479   2.257   3.103  3.1052 -1.8384  1.3903
 1583TIP3   OH226239   3.462   2.256   4.333 -0.2176  0.5485  0.4577
 1583TIP3    H126240   3.393   2.240   4.398 -0.1293  1.3982  0.7757
 1583TIP3    H226241   3.500   2.340   4.360 -2.1059  2.4685 -2.3079
 1584TIP3   OH226242   1.074   3.095  17.139  0.1891 -0.2512  0.4218
 1584TIP3    H126243   1.010   3.055  17.081  0.9542 -0.1835 -0.5069
 1584TIP3    H226244   1.032   3.097  17.225 -0.8357 -0.6777 -0.0578
 1585TIP3   OH226245   1.499   6.049   0.745 -0.6251 -0.3076 -0.9372
 1585TIP3    H126246   1.450   5.969   0.724 -1.1299 -0.1429 -0.4144
 1585TIP3    H226247   1.591   6.022   0.741 -0.7979 -1.3484  0.7964
 1586TIP3   OH226248   0.160   3.877  11.054  0.6015 -0.1841 -0.3068
 1586TIP3    H126249   0.136   3.863  11.146  0.5032  0.1481 -0.2820
 1586TIP3    H226250   0.253   3.854  11.050  0.6264 -0.1272 -0.1077
 1587TIP3   OH226251   5.526   6.186  17.142  0.6089  0.5609 -0.7286
 1587TIP3    H126252   5.474   6.239  17.203  1.4096  2.4672 -1.6082
 1587TIP3    H226253   5.573   6.124  17.197 -1.8338 -0.5983  0.1753
 1588TIP3   OH226254   0.153   0.665   3.870  0.4144  0.5604  0.4315
 1588TIP3    H126255   0.064   0.664   3.836  0.3771  2.6567  0.3247
 1588TIP3    H226256   0.149   0.615   3.951  0.0346 -2.6806 -1.4196
 1589TIP3   OH226257   0.906   0.390  11.491  0.1857  0.1319  0.2191
 1589TIP3    H126258   0.811   0.401  11.478  0.3996  1.0651 -0.6404
 1589TIP3    H226259   0.913   0.349  11.577 -0.9992  0.1555  0.3500
 1590TIP3   OH226260   4.127   4.873  12.858 -0.1619 -0.1623 -0.2496
 1590TIP3    H126261   4.155   4.904  12.944 -1.7838  0.0832  0.2268
 1590TIP3    H226262   4.050   4.926  12.838  0.3970  0.0202 -2.0303
 1591TIP3   OH226263   6.065   5.885  12.128  0.1623 -0.8696  0.0678
 1591TIP3    H126264   5.996   5.824  12.104 -0.1306 -0.5717  0.1456
 1591TIP3    H226265   6.027   5.972  12.112  0.6286 -0.7086 -0.1974
 1592TIP3   OH226266   2.739   6.108   4.649  0.0267  0.4736  0.8393
 1592TIP3    H126267   2.740   6.055   4.729 -0.8633 -0.5716  0.1788
 1592TIP3    H226268   2.708   6.194   4.678 -0.6120  0.0109  1.5741
 1593TIP3   OH226269   2.140   6.714  16.445  0.4848  0.2616 -0.0367
 1593TIP3    H126270   2.052   6.710  16.481  0.4865 -0.1931 -0.0687
 1593TIP3    H226271   2.151   6.630  16.400  1.4128 -0.2670  1.1046
 1594TIP3   OH226272   4.188   4.965  13.239  0.6834 -0.5453 -0.0003
 1594TIP3    H126273   4.230   4.916  13.168  0.9498 -2.2986  1.2952
 1594TIP3    H226274   4.152   5.043  13.196  4.0276  0.3847 -1.4454
 1595TIP3   OH226275   5.936   4.081   0.120  0.2550  0.1548  0.2332
 1595TIP3    H126276   5.959   3.995   0.085 -1.9742  0.0261 -1.1459
 1595TIP3    H226277   6.018   4.115   0.156  1.7064 -1.5897 -1.2046
 1596TIP3   OH226278   4.658   1.801   2.482 -0.2548 -0.1826 -0.3288
 1596TIP3    H126279   4.609   1.766   2.408  1.0448  0.8969 -1.7758
 1596TIP3    H226280   4.631   1.748   2.557  0.0977 -2.8660 -1.9833
 1597TIP3   OH226281   1.783   4.299  11.341  0.0174 -0.4814  0.3280
 1597TIP3    H126282   1.737   4.231  11.292 -0.3155  0.0375 -0.0888
 1597TIP3    H226283   1.722   4.324  11.410  0.1923 -0.6986  0.5606
 1598TIP3   OH226284   4.900   4.452   4.917 -0.2957  0.0630 -0.3814
 1598TIP3    H126285   4.960   4.434   4.845  0.9098 -0.4677  0.7190
 1598TIP3    H226286   4.816   4.414   4.888  0.6187 -1.8025 -0.7555
 1599TIP3   OH226287   1.576   2.975  14.353  0.4737  1.0496 -0.4514
 1599TIP3    H126288   1.562   2.938  14.440 -2.1207  2.0788 -0.3266
 1599TIP3    H226289   1.550   3.067  14.361  1.4364  1.5091 -2.0267
 1600TIP3   OH226290   4.983   4.268   3.755  0.1790 -0.6208 -0.0667
 1600TIP3    H126291   5.029   4.306   3.830  2.3273 -0.1533 -1.5155
 1600TIP3    H226292   4.954   4.182   3.787 -1.9572  0.8340  2.2755
 1601TIP3   OH226293   6.422   4.889   5.342 -0.1125 -0.2662  0.3822
 1601TIP3    H126294   6.380   4.837   5.410  1.3788 -2.2831 -0.1356
 1601TIP3    H226295   6.492   4.833   5.309 -0.7715  0.5987 -2.8393
 1602TIP3   OH226296   3.472   0.949   6.110  0.2737 -0.3547  0.3767
 1602TIP3    H126297   3.476   0.886   6.182  0.7694  0.1824  0.8262
 1602TIP3    H226298   3.527   1.021   6.139  0.8475 -0.3300 -0.7428
 1603TIP3   OH226299   5.662   0.016  14.160 -0.6704  0.0038  0.4066
 1603TIP3    H126300   5.628  -0.037  14.232  0.1764 -0.3520  0.5649
 1603TIP3    H226301   5.611   0.097  14.162 -0.0271  0.3868  1.9975
 1604TIP3   OH226302   2.240   1.199  14.460 -0.6543  0.4866  0.7398
 1604TIP3    H126303   2.230   1.148  14.540 -0.1134 -1.9232 -0.6171
 1604TIP3    H226304   2.159   1.249  14.453 -0.5171  1.1439  2.9858
 1605TIP3   OH226305   0.739   2.259   5.200  0.0420 -0.0885 -0.2193
 1605TIP3    H126306   0.802   2.215   5.257 -0.6020  0.4903  0.9731
 1605TIP3    H226307   0.745   2.352   5.223 -1.4167 -0.0474  0.1157
 1606TIP3   OH226308   4.796   0.928   3.253 -0.4895 -0.1793 -0.6014
 1606TIP3    H126309   4.839   0.935   3.338  0.9279 -2.1850 -1.0732
 1606TIP3    H226310   4.710   0.890   3.272 -0.0456 -0.9315 -0.0935
 1607TIP3   OH226311   2.155   4.693  11.952  0.0545  0.6696  0.2447
 1607TIP3    H126312   2.213   4.715  12.025  0.8847  1.1827 -0.5422
 1607TIP3    H226313   2.120   4.607  11.974  0.0107  0.9661  1.4104
 1608TIP3   OH226314   5.130   2.838   1.313  0.1118  0.1695 -0.2428
 1608TIP3    H126315   5.145   2.743   1.312  1.1586  0.3204 -0.4629
 1608TIP3    H226316   5.146   2.864   1.404 -0.5076  0.0899 -0.1093
 1609TIP3   OH226317   6.370   6.424  15.524 -0.0714  0.1887 -0.5300
 1609TIP3    H126318   6.294   6.414  15.467 -0.6934 -0.6954  0.4368
 1609TIP3    H226319   6.438   6.458  15.466 -0.8283 -0.2321 -1.7053
 1610TIP3   OH226320   0.617   4.274  11.038  0.3186  0.1147 -0.2840
 1610TIP3    H126321   0.630   4.368  11.027  0.4745  0.2560  0.9556
 1610TIP3    H226322   0.564   4.248  10.963  1.9975  0.7928 -1.7780
 1611TIP3   OH226323   0.128   5.207   0.177 -0.0700  0.1548  0.2081
 1611TIP3    H126324   0.207   5.168   0.216 -0.0192  0.9968  0.9694
 1611TIP3    H226325   0.136   5.300   0.194 -0.8594  0.3446 -0.4034
 1612TIP3   OH226326   3.347   4.343  11.481  0.2145  0.3550 -0.2237
 1612TIP3    H126327   3.343   4.333  11.576 -0.5943 -0.7745 -0.3523
 1612TIP3    H226328   3.265   4.385  11.457  0.2103  0.2104 -0.4678
 1613TIP3   OH226329   0.550   5.966   0.341 -0.3529 -0.0507  0.0764
 1613TIP3    H126330   0.459   5.945   0.320 -0.0377 -1.3140 -0.0561
 1613TIP3    H226331   0.548   5.991   0.434 -0.7290 -0.7120  0.2470
 1614TIP3   OH226332   1.393   2.994   1.887 -0.3401 -0.4127  0.2709
 1614TIP3    H126333   1.407   2.921   1.828 -1.1688 -0.6128  0.3118
 1614TIP3    H226334   1.394   2.955   1.975 -0.8147 -0.3880  0.2914
 1615TIP3   OH226335   6.490   3.884  12.265  0.4602  0.6830  0.2101
 1615TIP3    H126336   6.431   3.869  12.191  1.3428  1.6070 -0.7189
 1615TIP3    H226337   6.485   3.803  12.317 -1.9283  0.9063  0.4136
 1616TIP3   OH226338   4.050   4.015  13.553 -0.3113  0.4334 -0.1316
 1616TIP3    H126339   4.019   3.938  13.506 -0.2593 -1.2092  2.3329
 1616TIP3    H226340   3.971   4.056  13.588 -0.2495  0.8641 -0.4796
 1617TIP3   OH226341   6.371   5.944  16.483 -0.6009  0.5085  0.7408
 1617TIP3    H126342   6.387   6.008  16.551 -0.3989  0.5983  0.6092
 1617TIP3    H226343   6.333   5.995  16.411 -1.2446  0.3437  0.9515
 1618TIP3   OH226344   1.090   0.204   4.833  0.1065 -0.2238 -0.3518
 1618TIP3    H126345   1.096   0.109   4.827 -0.1112 -0.2316 -0.4688
 1618TIP3    H226346   1.005   0.225   4.793  0.2921  0.0456 -0.6116
 1619TIP3   OH226347   2.956   0.531  12.790  0.1293 -0.2966  0.2244
 1619TIP3    H126348   2.944   0.527  12.695 -0.6705  0.1242  0.2964
 1619TIP3    H226349   2.967   0.625  12.809  2.1556 -0.5062  0.3552
 1620TIP3   OH226350   0.585   6.541   6.090 -0.3936 -0.2672 -0.3275
 1620TIP3    H126351   0.615   6.573   6.005 -2.8637  0.0625 -1.1698
 1620TIP3    H226352   0.520   6.474   6.069 -0.3573 -0.8669  1.3321
 1621TIP3   OH226353   2.208   2.627   4.620 -0.1610 -0.1807  0.4851
 1621TIP3    H126354   2.124   2.581   4.618  0.0586 -0.6722 -2.1724
 1621TIP3    H226355   2.273   2.557   4.630  0.0658 -0.3364 -1.5463
 1622TIP3   OH226356   1.229   3.272  16.597 -0.0371  0.0936 -0.3533
 1622TIP3    H126357   1.279   3.345  16.559  0.4445 -0.4307 -0.7476
 1622TIP3    H226358   1.271   3.256  16.682  0.1307  0.0010 -0.4533
 1623TIP3   OH226359   5.015   5.271   6.072  0.4898 -0.3780  0.3369
 1623TIP3    H126360   5.062   5.207   6.126  2.9162  0.8812 -0.1312
 1623TIP3    H226361   4.967   5.324   6.136 -0.9424 -2.1321  0.7830
 1624TIP3   OH226362   1.404   3.260  13.420  0.3324  0.4525 -0.3525
 1624TIP3    H126363   1.346   3.312  13.364 -0.0209  0.7766  0.2932
 1624TIP3    H226364   1.365   3.173  13.422  0.9176  0.1554 -1.4277
 1625TIP3   OH226365   0.505   0.909   4.700 -0.2737  0.3063 -0.2239
 1625TIP3    H126366   0.513   0.866   4.786 -2.4108 -0.2113 -0.2179
 1625TIP3    H226367   0.420   0.879   4.666 -0.0536  1.4943 -1.9682
 1626TIP3   OH226368   5.729   5.608  13.922 -0.1108 -0.1003 -0.7208
 1626TIP3    H126369   5.765   5.561  13.997  1.2138  1.2201 -0.4697
 1626TIP3    H226370   5.749   5.700  13.941 -0.0529  0.2846 -2.5395
 1627TIP3   OH226371   2.471   5.329   5.132 -0.3307  0.4957  0.2764
 1627TIP3    H126372   2.409   5.383   5.181  0.5383  1.4877  0.3306
 1627TIP3    H226373   2.557   5.362   5.158  0.1873  0.0619 -0.8071
 1628TIP3   OH226374   5.365   6.805  16.121 -0.3913  0.0170 -0.1131
 1628TIP3    H126375   5.296   6.836  16.062  0.3835  1.6963 -0.1922
 1628TIP3    H226376   5.350   6.852  16.203  0.2536 -0.1029  0.0818
 1629TIP3   OH226377   0.841   0.532  15.246  0.6309 -0.0141 -0.1382
 1629TIP3    H126378   0.833   0.439  15.266  0.4680  0.3742  1.7983
 1629TIP3    H226379   0.751   0.561  15.231  0.7005 -0.1979 -0.9382
 1630TIP3   OH226380   3.244   3.498  10.905  0.2192 -0.3751  0.2236
 1630TIP3    H126381   3.336   3.524  10.901  0.0495  0.3308  0.7505
 1630TIP3    H226382   3.242   3.429  10.972  0.2750  0.0259  0.6448
 1631TIP3   OH226383   5.345   0.100  13.422 -0.0353  0.3975  0.1212
 1631TIP3    H126384   5.255   0.076  13.402  0.0608  0.0433  0.1030
 1631TIP3    H226385   5.360   0.066  13.510  0.5883 -0.9884 -0.4984
 1632TIP3   OH226386   5.474   2.594   1.216 -0.0055 -0.0187  0.4419
 1632TIP3    H126387   5.495   2.666   1.275  0.0706 -0.5175  1.0448
 1632TIP3    H226388   5.379   2.582   1.226 -0.1210  0.3857 -0.1186
 1633TIP3   OH226389   0.711   3.603   4.953 -0.1570  0.2580 -0.4185
 1633TIP3    H126390   0.625   3.585   4.990  0.7489 -1.2119  1.1127
 1633TIP3    H226391   0.725   3.697   4.968 -1.9000  0.7600 -1.6842
 1634TIP3   OH226392   5.833   0.326   6.628  0.0859  0.0357 -0.4452
 1634TIP3    H126393   5.901   0.353   6.567 -0.0142  3.5693  0.8114
 1634TIP3    H226394   5.752   0.358   6.591 -0.1805  0.7229  0.6748
 1635TIP3   OH226395   2.318   3.136   5.481  0.9301  0.1035 -0.4166
 1635TIP3    H126396   2.341   3.219   5.523  1.8098  0.0357 -0.7338
 1635TIP3    H226397   2.364   3.139   5.397  0.6218 -0.5223 -0.6084
 1636TIP3   OH226398   3.811   5.874   1.915 -0.1306  0.4183  0.1037
 1636TIP3    H126399   3.799   5.963   1.948 -2.2122 -0.1798  1.1339
 1636TIP3    H226400   3.825   5.885   1.821 -1.6014  1.8084  0.0036
 1637TIP3   OH226401   6.801   2.319  11.743  0.5767 -0.6678 -0.3296
 1637TIP3    H126402   6.755   2.236  11.755  0.2661 -0.6008 -1.0343
 1637TIP3    H226403   6.736   2.386  11.762  0.8908 -0.5766  0.4683
 1638TIP3   OH226404   1.568   1.224  16.687  0.0602  0.0847  0.5986
 1638TIP3    H126405   1.553   1.136  16.722 -0.3372  0.2311  0.8024
 1638TIP3    H226406   1.578   1.279  16.765  0.9543  0.1159  0.4701
 1639TIP3   OH226407   4.358   2.254  14.807  0.1537  0.2097  0.2684
 1639TIP3    H126408   4.268   2.250  14.776  0.2976  0.3161 -0.1789
 1639TIP3    H226409   4.400   2.177  14.770  0.5514  0.8024 -0.5502
 1640TIP3   OH226410   2.145   0.884  12.942  0.2633  0.0256  0.1190
 1640TIP3    H126411   2.166   0.953  13.006 -0.0362  0.4746 -0.2616
 1640TIP3    H226412   2.147   0.929  12.858 -1.6199 -0.0488  0.0052
 1641TIP3   OH226413   3.829   3.824  13.975 -0.2990 -0.2885 -0.1810
 1641TIP3    H126414   3.861   3.908  13.942  1.0551 -1.4432 -2.0252
 1641TIP3    H226415   3.853   3.823  14.067  1.5535  0.5120 -0.6142
 1642TIP3   OH226416   0.538   0.290   4.347 -0.3180  0.4299 -0.4244
 1642TIP3    H126417   0.622   0.329   4.323  0.9618 -1.0672  1.3118
 1642TIP3    H226418   0.535   0.207   4.299 -0.8654  0.5463 -0.5913
 1643TIP3   OH226419   5.940   3.897  13.717  0.1549 -0.0425 -0.2119
 1643TIP3    H126420   5.931   3.802  13.725  0.0141  0.0135  0.3427
 1643TIP3    H226421   5.943   3.929  13.808  0.9995  0.4091 -0.3852
 1644TIP3   OH226422   6.023   5.489  13.830  0.2432 -0.2783 -0.2525
 1644TIP3    H126423   5.969   5.421  13.790  0.5597 -0.4396 -0.4119
 1644TIP3    H226424   5.961   5.558  13.854 -0.0660 -0.5808 -0.1779
 1645TIP3   OH226425   3.210   2.028  16.342  0.2023  0.2033 -0.0109
 1645TIP3    H126426   3.161   2.099  16.299  3.4521  2.0538 -0.9428
 1645TIP3    H226427   3.209   2.051  16.434  0.2559  0.8213 -0.1577
 1646TIP3   OH226428   0.225   6.655   4.680  0.9840 -0.4950 -0.3141
 1646TIP3    H126429   0.158   6.714   4.647  0.1587 -0.4196  1.4007
 1646TIP3    H226430   0.307   6.689   4.643  0.6271  2.1460  1.0396
 1647TIP3   OH226431   6.703   2.587   0.055  0.4513 -0.1084  0.7891
 1647TIP3    H126432   6.777   2.565   0.112 -0.0045  2.6632  2.6471
 1647TIP3    H226433   6.632   2.531   0.085  0.6051  0.3405  2.0616
 1648TIP3   OH226434   6.809   0.149  17.047  0.0127 -0.2157 -0.0822
 1648TIP3    H126435   6.726   0.107  17.025 -0.6437  0.8234  0.3316
 1648TIP3    H226436   6.834   0.197  16.968  0.0674 -0.3050 -0.1189
 1649TIP3   OH226437   5.085   1.750   1.939 -0.4978 -0.5680 -0.5113
 1649TIP3    H126438   5.052   1.796   2.016 -2.4250 -1.2392 -0.8942
 1649TIP3    H226439   5.116   1.666   1.973  0.3246 -0.1618 -0.2325
 1650TIP3   OH226440   3.281   1.691   0.387 -0.2813  0.4983 -0.0174
 1650TIP3    H126441   3.273   1.705   0.293  0.3542  0.3954 -0.0865
 1650TIP3    H226442   3.308   1.599   0.396  1.5262  1.0129  0.1710
 1651TIP3   OH226443   3.251   1.944   5.081 -0.3694  0.0270  0.1994
 1651TIP3    H126444   3.346   1.940   5.092 -0.3849  0.6332  0.6284
 1651TIP3    H226445   3.216   1.924   5.167 -0.5827  1.3792  0.4468
 1652TIP3   OH226446   1.739   0.413   0.186  0.5499 -0.0359 -0.7405
 1652TIP3    H126447   1.717   0.487   0.242  0.4148 -0.6232 -0.0035
 1652TIP3    H226448   1.832   0.425   0.165  0.5741  0.2402 -0.4721
 1653TIP3   OH226449   4.487   0.354   6.072  0.0269 -0.2460  0.1802
 1653TIP3    H126450   4.551   0.381   6.138 -0.0443 -0.7040  0.4417
 1653TIP3    H226451   4.497   0.418   6.001  0.0169  0.3241  0.6892
 1654TIP3   OH226452   1.071   1.886   1.029 -0.6953  0.1619 -0.1190
 1654TIP3    H126453   1.119   1.804   1.021 -0.3719  0.0219  2.3176
 1654TIP3    H226454   0.979   1.860   1.021 -0.6137 -0.5361  0.9449
 1655TIP3   OH226455   1.015   0.447  15.908 -0.5175 -0.1360 -0.2142
 1655TIP3    H126456   0.923   0.474  15.912 -0.1883  1.5018 -2.3346
 1655TIP3    H226457   1.027   0.416  15.818  0.9797 -0.4244  0.0640
 1656TIP3   OH226458   6.242   3.501  12.971 -0.1168  0.3606 -0.5794
 1656TIP3    H126459   6.217   3.424  12.920  1.2048 -0.0023 -0.7147
 1656TIP3    H226460   6.338   3.504  12.964  0.2994 -0.4295  2.8748
 1657TIP3   OH226461   3.723   6.724   3.186 -0.0521 -0.2988 -0.0747
 1657TIP3    H126462   3.661   6.651   3.190  0.1558 -0.5362 -0.8307
 1657TIP3    H226463   3.669   6.802   3.190 -0.2223 -0.4801  1.4756
 1658TIP3   OH226464   6.370   4.788   2.925 -0.2842  0.1624 -0.2164
 1658TIP3    H126465   6.374   4.799   2.830  1.2913 -2.5205 -0.5523
 1658TIP3    H226466   6.284   4.823   2.949 -0.6800  1.0249 -2.5999
 1659TIP3   OH226467   6.425   3.782   6.409  0.1377 -0.0515  0.2319
 1659TIP3    H126468   6.489   3.756   6.343  0.4119  0.5925  0.2335
 1659TIP3    H226469   6.373   3.850   6.366 -0.5919 -0.6134  0.2105
 1660TIP3   OH226470   3.342   0.805  15.971  0.1642  0.3688 -0.1622
 1660TIP3    H126471   3.365   0.884  15.922 -0.1520  1.1918  0.9680
 1660TIP3    H226472   3.246   0.804  15.973  0.1469 -0.4573 -0.7930
 1661TIP3   OH226473   1.761   5.803  14.029 -0.0059 -0.2429  0.2049
 1661TIP3    H126474   1.811   5.770  13.955 -2.6435  0.5896 -2.1135
 1661TIP3    H226475   1.676   5.759  14.022 -0.3417 -0.1794  2.8300
 1662TIP3   OH226476   4.387   3.599  12.866  0.2181  0.0417 -0.2817
 1662TIP3    H126477   4.399   3.668  12.932  0.9716  0.0733 -0.4344
 1662TIP3    H226478   4.472   3.594  12.822  0.2503 -1.1400 -0.1227
 1663TIP3   OH226479   3.579   0.009  14.323  0.1025 -0.5692 -0.8463
 1663TIP3    H126480   3.631  -0.017  14.399 -0.4535 -2.3166 -1.0219
 1663TIP3    H226481   3.556   0.100  14.340 -1.1786 -1.2794  1.7992
 1664TIP3   OH226482   6.160   6.812   3.294 -0.5416 -0.3739 -0.0750
 1664TIP3    H126483   6.250   6.822   3.324 -1.0167  2.9202  0.6152
 1664TIP3    H226484   6.169   6.770   3.208  1.4208 -2.1460  0.8896
 1665TIP3   OH226485   1.913   1.699  16.549  0.6734  0.1159  0.7803
 1665TIP3    H126486   1.860   1.623  16.525  0.4050 -0.1485  2.1267
 1665TIP3    H226487   1.947   1.678  16.636 -0.8415  2.2449  1.9781
 1666TIP3   OH226488   2.094   5.521  16.948  0.1312  0.1235  0.1327
 1666TIP3    H126489   2.165   5.585  16.948  0.4331  0.0060  3.7457
 1666TIP3    H226490   2.076   5.505  17.041 -2.2729 -2.4794 -0.6285
 1667TIP3   OH226491   6.660   3.238  14.244  1.0541  0.1352 -0.1471
 1667TIP3    H126492   6.726   3.214  14.179  0.4174 -0.3817 -0.6109
 1667TIP3    H226493   6.667   3.171  14.312  1.6329  0.6049  0.2787
 1668TIP3   OH226494   5.822   4.803  14.477  0.1708 -0.6387  0.4952
 1668TIP3    H126495   5.822   4.708  14.472 -2.5983 -0.6836 -3.1834
 1668TIP3    H226496   5.765   4.823  14.552  0.8417 -1.8386  1.3500
 1669TIP3   OH226497   1.728   2.845  12.117 -0.0326 -0.6418 -1.1213
 1669TIP3    H126498   1.648   2.873  12.162  0.6590 -0.3295 -0.0429
 1669TIP3    H226499   1.719   2.750  12.109 -0.6739 -0.5707 -1.3424
 1670TIP3   OH226500   0.223   6.479   6.086  0.1398  0.6397 -0.2463
 1670TIP3    H126501   0.255   6.395   6.118 -2.3725 -0.8164 -1.2516
 1670TIP3    H226502   0.186   6.522   6.163 -0.1660 -0.0018 -0.0272
 1671TIP3   OH226503   1.485   1.313   2.728 -0.6759 -0.3423  0.1600
 1671TIP3    H126504   1.541   1.248   2.684 -0.8834  0.0529 -0.7093
 1671TIP3    H226505   1.536   1.394   2.725 -0.2103 -0.5479  1.6798
 1672TIP3   OH226506   0.147   2.691  16.471 -0.2268  0.3904  0.0354
 1672TIP3    H126507   0.205   2.759  16.437 -0.5397  0.5553 -0.1768
 1672TIP3    H226508   0.157   2.618  16.410  0.1437  0.2292  0.2894
 1673TIP3   OH226509   1.369   0.798  12.226  0.3564 -0.1431  0.7576
 1673TIP3    H126510   1.304   0.864  12.204 -1.4053 -1.3562  2.0855
 1673TIP3    H226511   1.368   0.737  12.152  1.4423  0.8193 -0.1119
 1674TIP3   OH226512   4.632   0.281  10.963 -0.2604  0.0104  0.5758
 1674TIP3    H126513   4.555   0.269  10.906  0.2235 -0.9783  0.1164
 1674TIP3    H226514   4.706   0.250  10.911  0.1824 -1.0416  1.7911
 1675TIP3   OH226515   5.233   4.969   4.421 -0.0702 -0.0305 -0.4713
 1675TIP3    H126516   5.174   5.038   4.452 -0.2268 -0.7795  1.0031
 1675TIP3    H226517   5.181   4.889   4.427  0.9229 -0.6313  0.3222
 1676TIP3   OH226518   1.850   2.509  16.654 -0.0511 -0.1559  0.2285
 1676TIP3    H126519   1.894   2.424  16.649 -0.1667 -0.1489 -1.2862
 1676TIP3    H226520   1.921   2.573  16.649 -0.0360 -0.1541  0.4522
 1677TIP3   OH226521   5.334   4.225  13.081  0.3582  0.0478  0.0420
 1677TIP3    H126522   5.267   4.189  13.139 -0.7391  2.9340  0.7363
 1677TIP3    H226523   5.285   4.276  13.016  1.7940  0.8883 -0.4209
 1678TIP3   OH226524   0.742   0.748  13.434 -0.4020 -0.6265 -0.0498
 1678TIP3    H126525   0.808   0.818  13.432 -1.7559  0.6747 -1.0269
 1678TIP3    H226526   0.764   0.693  13.360 -0.1844 -0.4203 -0.1416
 1679TIP3   OH226527   0.473   2.661  12.643 -0.0537 -0.3140 -0.4789
 1679TIP3    H126528   0.418   2.734  12.614  0.7896  0.6921  0.3517
 1679TIP3    H226529   0.412   2.598  12.680 -0.6642  0.9157  0.7121
 1680TIP3   OH226530   2.617   3.933  16.006  0.3509  1.0002  0.5559
 1680TIP3    H126531   2.561   3.856  16.002  1.8389 -0.1478  0.8888
 1680TIP3    H226532   2.556   4.007  16.014 -1.2038  0.0716 -1.7497
 1681TIP3   OH226533   6.014   4.842  12.465 -0.0737 -0.2723  0.1324
 1681TIP3    H126534   5.941   4.844  12.527 -1.9761 -4.0033 -1.5999
 1681TIP3    H226535   6.082   4.793  12.511 -0.1361 -0.0388  0.4773
 1682TIP3   OH226536   3.804   4.666  13.849  0.0624 -0.4614 -0.5136
 1682TIP3    H126537   3.837   4.708  13.769  2.3509 -3.7578 -1.5310
 1682TIP3    H226538   3.715   4.638  13.826  0.2070 -0.2152 -1.4154
 1683TIP3   OH226539   2.336   1.813  13.852 -0.0909  0.2661  0.5246
 1683TIP3    H126540   2.320   1.906  13.867 -0.5580  0.0234  1.6545
 1683TIP3    H226541   2.250   1.776  13.833 -0.0005 -0.0345  0.6884
 1684TIP3   OH226542   4.938   3.180   1.124 -0.2642 -0.4413  0.0245
 1684TIP3    H126543   4.888   3.261   1.115  1.1487  0.4602 -0.0392
 1684TIP3    H226544   4.913   3.146   1.210 -1.9627 -0.7247 -0.5523
 1685TIP3   OH226545   5.766   0.275   3.113 -0.0569  0.2793 -0.3390
 1685TIP3    H126546   5.702   0.327   3.162  0.2778  1.7788 -1.3987
 1685TIP3    H226547   5.815   0.228   3.180 -1.9381 -0.5432  0.5162
 1686TIP3   OH226548   1.311   2.764  11.272  0.3268  0.4735 -0.5739
 1686TIP3    H126549   1.378   2.718  11.220  1.4357  1.9004 -0.4665
 1686TIP3    H226550   1.293   2.844  11.222  0.7719  1.4435  0.7781
 1687TIP3   OH226551   5.306   2.760   5.145  0.4679  0.3551 -0.1356
 1687TIP3    H126552   5.357   2.776   5.225 -2.1843  0.9888  1.5411
 1687TIP3    H226553   5.280   2.668   5.152 -2.5699  1.2043  1.6251
 1688TIP3   OH226554   6.591   1.838  12.559 -0.7873  0.1272 -0.9003
 1688TIP3    H126555   6.614   1.751  12.526  0.3864 -0.2765  0.8470
 1688TIP3    H226556   6.580   1.826  12.653  1.4622  2.2115 -0.2562
 1689TIP3   OH226557   4.307   6.080  16.214 -0.6169  0.4018  0.1122
 1689TIP3    H126558   4.287   6.071  16.307 -1.3027 -0.7809 -0.1284
 1689TIP3    H226559   4.351   5.998  16.191 -0.4792  0.6741 -0.6103
 1690TIP3   OH226560   6.244   4.630  11.656 -0.3302 -0.3337  0.4615
 1690TIP3    H126561   6.252   4.647  11.750  0.7433  1.3244  0.1268
 1690TIP3    H226562   6.334   4.628  11.625 -0.6935  1.1792 -0.8240
 1691TIP3   OH226563   1.283   6.443   5.421 -0.2460 -0.2699 -0.2587
 1691TIP3    H126564   1.224   6.419   5.349 -0.8219 -0.3574  0.2444
 1691TIP3    H226565   1.348   6.372   5.423  0.0404 -0.0431 -0.9745
 1692TIP3   OH226566   5.809   5.516  12.161  0.1645 -0.0300  0.8200
 1692TIP3    H126567   5.753   5.564  12.222 -0.0096  2.0065 -0.8472
 1692TIP3    H226568   5.766   5.431  12.151 -0.6816  0.2013  2.2496
 1693TIP3   OH226569   6.688   6.004  14.162  0.4877 -0.5746  0.0549
 1693TIP3    H126570   6.700   6.008  14.067  1.9642 -0.0028  0.2279
 1693TIP3    H226571   6.694   6.095  14.191 -0.1366 -0.7225  0.6879
 1694TIP3   OH226572   5.986   5.013  11.237  0.0034 -0.2000 -0.3788
 1694TIP3    H126573   5.959   5.035  11.326  1.7076  0.7971 -0.0580
 1694TIP3    H226574   5.925   5.061  11.181 -0.7834 -0.4506  0.2525
 1695TIP3   OH226575   1.880   5.265  14.108  0.4140  0.4477 -0.4134
 1695TIP3    H126576   1.953   5.216  14.147 -1.6493 -1.2093  1.6710
 1695TIP3    H226577   1.913   5.355  14.101  3.3225 -0.5859 -1.5330
 1696TIP3   OH226578   3.018   1.543   3.775 -0.5572 -0.3373  0.1402
 1696TIP3    H126579   2.944   1.579   3.726 -1.8572 -3.1657 -0.1894
 1696TIP3    H226580   3.092   1.551   3.715 -0.9410  1.0718 -0.1675
 1697TIP3   OH226581   1.246   5.595   2.107  0.4580  0.3861  0.0252
 1697TIP3    H126582   1.264   5.566   2.196 -2.0019  3.1713  1.6329
 1697TIP3    H226583   1.329   5.586   2.061  2.0677 -0.3344  2.8621
 1698TIP3   OH226584   3.977   5.319   3.236  0.2589  0.4799  0.2503
 1698TIP3    H126585   3.942   5.332   3.148 -0.8742 -1.2656  0.3905
 1698TIP3    H226586   3.924   5.376   3.292 -0.3844  0.0801  0.0562
 1699TIP3   OH226587   4.479   5.979   4.394 -0.6274 -0.0340  0.3725
 1699TIP3    H126588   4.444   5.890   4.404 -0.8509  0.2025  1.9967
 1699TIP3    H226589   4.432   6.014   4.318 -1.4202 -0.8930  0.4395
 1700TIP3   OH226590   3.852   5.877   5.836 -0.3075 -0.1454  0.3366
 1700TIP3    H126591   3.837   5.941   5.766 -0.8603 -0.2196  0.3819
 1700TIP3    H226592   3.781   5.892   5.898  0.2337 -0.0218  0.9333
 1701TIP3   OH226593   5.344   4.996  12.939  0.6787  0.1002  0.1504
 1701TIP3    H126594   5.296   4.917  12.967  1.2709  0.1963  1.5086
 1701TIP3    H226595   5.408   5.011  13.009  0.8555  1.5480 -0.2972
 1702TIP3   OH226596   3.600   3.539  12.383  0.2285  0.2756  0.3309
 1702TIP3    H126597   3.597   3.481  12.459  0.2739 -0.8162 -0.4865
 1702TIP3    H226598   3.510   3.568  12.371  0.2824  0.7518  1.0146
 1703TIP3   OH226599   4.407   0.770   4.998  0.0134 -0.1750 -1.0669
 1703TIP3    H126600   4.409   0.778   4.903 -2.4194  0.5999 -1.1178
 1703TIP3    H226601   4.325   0.724   5.017  1.5608 -2.5016  0.5862
 1704TIP3   OH226602   2.637   4.277   4.988 -0.0778  0.2982 -0.0067
 1704TIP3    H126603   2.600   4.347   5.042  0.1826 -0.5389  1.3125
 1704TIP3    H226604   2.726   4.306   4.968 -0.0064  0.3917  0.4445
 1705TIP3   OH226605   0.068   5.658  14.341  0.0411 -1.0875 -0.0155
 1705TIP3    H126606   0.104   5.662  14.430 -0.6405  0.8680  0.2273
 1705TIP3    H226607   0.123   5.593  14.296  2.8842  0.5445  0.7979
 1706TIP3   OH226608   4.419   0.950  16.226  0.9167 -0.7579  0.1272
 1706TIP3    H126609   4.446   0.967  16.317 -1.4035  1.0609  0.5545
 1706TIP3    H226610   4.444   1.029  16.179  0.4787 -0.9636 -0.4455
 1707TIP3   OH226611   5.588   3.506  14.716  0.8207 -0.3437 -0.4907
 1707TIP3    H126612   5.674   3.480  14.750  0.4860 -0.1420  0.5476
 1707TIP3    H226613   5.525   3.457  14.769  0.2963 -0.8077 -1.5254
 1708TIP3   OH226614   2.706   3.309  16.598 -0.0790  0.1899  0.3706
 1708TIP3    H126615   2.794   3.325  16.564  0.3800  0.3547  1.6082
 1708TIP3    H226616   2.692   3.215  16.587  1.0416 -0.1971  1.9492
 1709TIP3   OH226617   2.942   5.266   3.500  0.1598 -0.5110 -0.4897
 1709TIP3    H126618   2.870   5.291   3.557  0.9217  0.3869  0.1200
 1709TIP3    H226619   3.002   5.218   3.557  1.2897  1.0331 -0.2865
 1710TIP3   OH226620   1.572   2.292  13.074  0.6884 -0.1956  0.0893
 1710TIP3    H126621   1.534   2.380  13.070 -0.1220 -0.5446 -0.2227
 1710TIP3    H226622   1.570   2.269  13.166 -3.3810 -1.6418 -0.1599
 1711TIP3   OH226623   2.139   0.737   6.397  0.3814  0.1858 -0.2064
 1711TIP3    H126624   2.159   0.686   6.476  0.7381  1.6448  0.6907
 1711TIP3    H226625   2.222   0.742   6.349  0.3575 -0.0375 -0.2694
 1712TIP3   OH226626   1.434   0.364   4.257 -0.0751  0.4422 -0.1866
 1712TIP3    H126627   1.370   0.293   4.259  1.3949 -0.9679 -1.0596
 1712TIP3    H226628   1.437   0.396   4.348 -0.9278 -0.4320  0.1689
 1713TIP3   OH226629   5.286   2.232   1.281  0.1536  0.1160 -0.5260
 1713TIP3    H126630   5.262   2.181   1.358 -2.1796 -0.0450 -1.2588
 1713TIP3    H226631   5.254   2.180   1.207  0.9148  0.9949 -1.5101
 1714TIP3   OH226632   1.601   6.278   0.206  0.1607  0.2152  0.2486
 1714TIP3    H126633   1.692   6.252   0.196  0.2426 -0.0344  1.4875
 1714TIP3    H226634   1.579   6.321   0.123  1.4027  0.2948 -0.0589
 1715TIP3   OH226635   6.165   0.892  11.006  0.0936  0.1883 -0.2308
 1715TIP3    H126636   6.119   0.876  10.924 -0.6615 -0.2270  0.2562
 1715TIP3    H226637   6.255   0.864  10.990 -0.2334 -0.6310 -0.6801
 1716TIP3   OH226638   5.513   5.741  14.139 -0.0444 -0.1505  0.2411
 1716TIP3    H126639   5.468   5.700  14.065 -1.4749 -1.1081  1.5905
 1716TIP3    H226640   5.582   5.679  14.161 -1.1443 -1.0627  1.2110
 1717TIP3   OH226641   3.882   5.461  15.068 -0.0399  0.1947 -0.6774
 1717TIP3    H126642   3.819   5.391  15.051  0.7094 -0.3021 -1.4951
 1717TIP3    H226643   3.960   5.415  15.100  0.4974  0.6321 -1.3282
 1718TIP3   OH226644   0.826   1.065  14.580  0.3647  0.0041  0.7961
 1718TIP3    H126645   0.772   1.142  14.561 -2.0463 -1.5008  1.1246
 1718TIP3    H226646   0.813   1.049  14.673  0.9415 -0.7500  0.7560
 1719TIP3   OH226647   2.404   1.380  12.319 -0.1121 -0.1406  0.1593
 1719TIP3    H126648   2.444   1.466  12.309 -0.3774 -0.2632 -2.5297
 1719TIP3    H226649   2.473   1.318  12.292 -0.3299 -0.7277  0.8898
 1720TIP3   OH226650   5.077   6.071  12.912  0.0854  0.6396 -0.4060
 1720TIP3    H126651   5.065   6.144  12.973 -0.8457  0.0339  0.1681
 1720TIP3    H226652   5.093   5.995  12.968 -0.4822  0.1285 -0.9156
 1721TIP3   OH226653   1.350   2.896  11.530 -0.0092 -0.0578 -0.2239
 1721TIP3    H126654   1.294   2.974  11.526 -0.5568 -0.4207  0.1524
 1721TIP3    H226655   1.342   2.856  11.443 -2.0203 -1.2376  0.4443
 1722TIP3   OH226656   2.255   5.590   2.874 -0.0637 -0.7590  0.0156
 1722TIP3    H126657   2.350   5.577   2.867 -0.0103 -0.4724  0.2002
 1722TIP3    H226658   2.245   5.685   2.885 -0.3242 -0.8614  0.7156
 1723TIP3   OH226659   2.204   2.255  13.452 -0.2416 -0.3124 -0.0575
 1723TIP3    H126660   2.267   2.316  13.414 -0.0913 -0.1786  0.4022
 1723TIP3    H226661   2.155   2.307  13.516  1.4936 -1.1884  2.1196
 1724TIP3   OH226662   4.832   0.511  13.424  0.4204  0.1659 -0.2391
 1724TIP3    H126663   4.848   0.442  13.488 -3.1895 -0.2140  0.4100
 1724TIP3    H226664   4.838   0.466  13.339  2.0525  0.0072 -0.0855
 1725TIP3   OH226665   2.403   4.908   4.657 -0.1166  0.6008 -0.1014
 1725TIP3    H126666   2.393   4.891   4.563 -0.6611  0.5038 -0.0294
 1725TIP3    H226667   2.365   4.995   4.669  0.6775  0.9517 -0.1017
 1726TIP3   OH226668   5.093   6.736   5.413  0.4319  0.3742  0.7819
 1726TIP3    H126669   5.098   6.824   5.450  0.5392  0.2230  1.1342
 1726TIP3    H226670   5.180   6.698   5.430  0.7191  0.5459 -0.2536
 1727TIP3   OH226671   0.440   4.314  11.930  0.2285  0.1172 -0.0068
 1727TIP3    H126672   0.345   4.324  11.929  0.2144  0.0074  0.1090
 1727TIP3    H226673   0.460   4.263  11.851  0.0588 -0.9442  0.6097
 1728TIP3   OH226674   2.240   3.158  11.879  0.0856 -0.4338  0.1791
 1728TIP3    H126675   2.310   3.115  11.830 -1.0623 -2.6991  0.3975
 1728TIP3    H226676   2.159   3.129  11.837 -0.8069  2.4120 -0.2994
 1729TIP3   OH226677   6.541   4.270   3.734 -0.2043  0.4688  0.7834
 1729TIP3    H126678   6.608   4.258   3.802 -1.2664 -1.6626  1.5036
 1729TIP3    H226679   6.458   4.274   3.781 -0.9193 -0.5123 -0.3274
 1730TIP3   OH226680   0.179   5.570  16.477  0.1480  0.1173 -0.0499
 1730TIP3    H126681   0.257   5.545  16.428  0.6713  0.4265  0.6133
 1730TIP3    H226682   0.210   5.635  16.540 -0.2322 -1.2800  1.6372
 1731TIP3   OH226683   4.177   1.088  15.091 -0.4458 -0.2704 -0.4771
 1731TIP3    H126684   4.137   1.167  15.127 -0.6902 -0.3857 -0.4897
 1731TIP3    H226685   4.104   1.027  15.080  0.1064 -1.7145  2.6673
 1732TIP3   OH226686   3.640   5.750  14.835 -0.0862 -0.0769 -0.6605
 1732TIP3    H126687   3.619   5.839  14.807  1.9118  1.1454  1.3786
 1732TIP3    H226688   3.556   5.712  14.857 -0.9352  1.6061 -0.8127
 1733TIP3   OH226689   5.403   6.694   5.670  0.1090  0.5191 -0.4442
 1733TIP3    H126690   5.403   6.787   5.689  0.8251  0.7572 -1.5345
 1733TIP3    H226691   5.474   6.658   5.724  0.0058  0.6403 -0.2257
 1734TIP3   OH226692   6.106   4.498   2.009 -0.5834  0.1148  0.3106
 1734TIP3    H126693   6.166   4.567   2.040  0.7094 -0.4276 -0.8554
 1734TIP3    H226694   6.159   4.418   2.013 -2.6774 -1.3116  3.6854
 1735TIP3   OH226695   6.083   5.954   0.550 -0.2279 -0.0013 -0.3346
 1735TIP3    H126696   6.012   5.951   0.486 -1.2595 -0.7916  0.8089
 1735TIP3    H226697   6.129   5.871   0.539 -1.3314 -0.8224  0.9220
 1736TIP3   OH226698   5.110   5.228   0.814  0.0111  0.3094  0.6547
 1736TIP3    H126699   5.106   5.291   0.886  0.3559 -0.5604  1.4670
 1736TIP3    H226700   5.063   5.151   0.847 -0.5562  0.1945 -0.3796
 1737TIP3   OH226701   5.032   1.999   5.767  0.1349 -0.4369 -0.4192
 1737TIP3    H126702   5.110   1.958   5.805  0.3696  0.0323 -0.3916
 1737TIP3    H226703   5.065   2.070   5.713 -0.2920  0.0762 -0.0206
 1738TIP3   OH226704   1.947   4.514  12.058  0.0680 -0.8062 -0.2367
 1738TIP3    H126705   1.975   4.544  12.144 -1.2887  2.2756 -0.7606
 1738TIP3    H226706   1.918   4.424  12.073  2.7137 -1.4417  1.8231
 1739TIP3   OH226707   1.126   5.842   2.421  0.6076 -0.2600 -0.5849
 1739TIP3    H126708   1.146   5.908   2.354 -0.5277  0.9140  0.1894
 1739TIP3    H226709   1.030   5.842   2.427  0.6771 -0.3099  1.0428
 1740TIP3   OH226710   5.649   5.844   4.077 -0.1449 -1.0995 -0.0798
 1740TIP3    H126711   5.655   5.939   4.086  2.6995 -0.9691 -1.9408
 1740TIP3    H226712   5.555   5.826   4.081 -0.8009  1.7929  0.2073
 1741TIP3   OH226713   1.915   4.823  15.584 -0.2961  0.1185  0.4650
 1741TIP3    H126714   1.880   4.803  15.671 -0.6093 -1.2306  0.0548
 1741TIP3    H226715   1.858   4.774  15.524 -0.3887  1.4053 -0.5476
 1742TIP3   OH226716   5.608   6.782  11.481  0.0857 -0.1374 -0.6475
 1742TIP3    H126717   5.583   6.846  11.414  1.0988 -1.2936 -2.2076
 1742TIP3    H226718   5.703   6.774  11.472  0.3392  0.1266  1.3889
 1743TIP3   OH226719   1.724   6.103  14.879 -0.4686 -0.8578  0.0956
 1743TIP3    H126720   1.782   6.066  14.812 -2.3620 -1.9536 -1.0429
 1743TIP3    H226721   1.721   6.197  14.861  0.2545 -0.9214 -0.3624
 1744TIP3   OH226722   4.406   6.484   2.414 -0.5394 -0.1791  0.0829
 1744TIP3    H126723   4.473   6.495   2.346 -1.1713 -1.3483 -0.7711
 1744TIP3    H226724   4.455   6.483   2.496  0.3844 -0.1119 -0.4513
 1745TIP3   OH226725   3.945   6.077  12.736  0.0261  0.1167 -0.2506
 1745TIP3    H126726   4.012   6.042  12.795  0.4949  0.6546 -0.4625
 1745TIP3    H226727   3.867   6.085  12.791  0.2166 -0.2088  0.0754
 1746TIP3   OH226728   4.483   3.878   1.791  0.2116  0.1084  0.3022
 1746TIP3    H126729   4.481   3.823   1.712  1.5605  0.7353 -0.1958
 1746TIP3    H226730   4.396   3.918   1.794 -0.5956 -1.5282  0.3307
 1747TIP3   OH226731   0.394   1.224  16.105  0.2153  0.1550  0.0595
 1747TIP3    H126732   0.443   1.165  16.048 -2.7977  0.3863 -3.1263
 1747TIP3    H226733   0.334   1.167  16.152  0.4915  0.2841  0.5757
 1748TIP3   OH226734   0.321   0.145   1.182 -0.9241 -0.4567  0.8137
 1748TIP3    H126735   0.318   0.050   1.181  1.8413 -0.6239 -0.3041
 1748TIP3    H226736   0.375   0.167   1.258 -3.0133  0.3559  2.1270
 1749TIP3   OH226737   3.328   4.354   0.584  0.0279  0.4122 -0.0538
 1749TIP3    H126738   3.417   4.324   0.603  0.1243  1.4695  1.3422
 1749TIP3    H226739   3.283   4.277   0.551  1.1859 -0.4043  0.2243
 1750TIP3   OH226740   4.785   4.264   1.760  0.5002  0.3311 -0.1172
 1750TIP3    H126741   4.843   4.241   1.833  2.8316 -2.1189 -2.5047
 1750TIP3    H226742   4.735   4.185   1.742  1.1611  0.3105 -2.1348
 1751TIP3   OH226743   4.127   6.279   1.226  0.3705 -0.9102 -0.0740
 1751TIP3    H126744   4.196   6.212   1.222 -0.1352 -1.7542  2.7532
 1751TIP3    H226745   4.046   6.229   1.236 -0.7525  0.0687 -3.1253
 1752TIP3   OH226746   2.915   3.744  13.526 -0.6424 -0.2185 -0.2452
 1752TIP3    H126747   2.862   3.766  13.602  0.6591 -1.1523  0.9980
 1752TIP3    H226748   3.005   3.740  13.559  0.1726  0.7303 -2.1417
 1753TIP3   OH226749   4.004   3.076  13.819  0.3737  0.0689 -0.0323
 1753TIP3    H126750   3.979   3.001  13.875 -1.2401 -0.6020 -1.5494
 1753TIP3    H226751   4.014   3.149  13.880 -1.8223 -0.5147  1.1542
 1754TIP3   OH226752   4.616   2.611   3.210 -0.1640  0.3083  0.4907
 1754TIP3    H126753   4.615   2.547   3.138 -0.3960 -0.2488  0.9848
 1754TIP3    H226754   4.680   2.676   3.182 -0.6517  0.4008 -0.4813
 1755TIP3   OH226755   2.092   0.726   1.443  0.2451  0.5158 -0.2742
 1755TIP3    H126756   2.065   0.768   1.361  0.3367  1.1874  0.0249
 1755TIP3    H226757   2.051   0.640   1.442  1.2059  0.0415 -1.5691
 1756TIP3   OH226758   0.894   3.855   3.189  0.5343  0.3750  0.3056
 1756TIP3    H126759   0.988   3.863   3.176  0.8220 -0.1088  1.8936
 1756TIP3    H226760   0.878   3.760   3.188 -0.3014  0.4780 -2.1187
 1757TIP3   OH226761   0.399   1.902   2.571  0.0260  0.5375  0.2214
 1757TIP3    H126762   0.332   1.949   2.522  0.1273  0.4545  0.0017
 1757TIP3    H226763   0.362   1.893   2.659  1.0370  3.2667  1.0376
 1758TIP3   OH226764   3.392   0.006   1.756 -0.2529  0.4171  0.0467
 1758TIP3    H126765   3.325  -0.062   1.756  0.7469 -0.6444  1.4408
 1758TIP3    H226766   3.397   0.035   1.665  1.7932 -3.9911 -1.5558
 1759TIP3   OH226767   3.999   3.551  16.713  0.4209  0.0845  0.0892
 1759TIP3    H126768   3.956   3.465  16.714  1.2386 -0.3446 -0.2995
 1759TIP3    H226769   3.929   3.612  16.689 -0.1168 -0.5089  0.1082
 1760TIP3   OH226770   2.422   2.685   0.903 -0.0552  0.5429 -0.0437
 1760TIP3    H126771   2.399   2.645   0.987  0.0801 -0.1260 -0.3176
 1760TIP3    H226772   2.367   2.640   0.839 -2.5813  3.2649  0.0210
 1761TIP3   OH226773   0.691   3.412  13.133  0.1175  0.1583  0.0024
 1761TIP3    H126774   0.624   3.354  13.167  0.0026  0.1663 -0.2090
 1761TIP3    H226775   0.730   3.452  13.211  1.2862 -1.3937  0.2826
 1762TIP3   OH226776   3.229   3.696   2.487 -0.2298  0.4890 -0.3536
 1762TIP3    H126777   3.261   3.630   2.425  1.5468 -0.2860  1.2864
 1762TIP3    H226778   3.155   3.736   2.442 -0.3181 -1.4453 -2.1224
 1763TIP3   OH226779   3.243   6.049   6.460  0.4091 -0.4462 -0.0854
 1763TIP3    H126780   3.276   5.974   6.509 -1.7551 -1.3351  0.1183
 1763TIP3    H226781   3.183   6.092   6.520 -0.2156  0.0268 -1.0280
 1764TIP3   OH226782   6.240   1.201   5.861  0.3234  0.4424 -0.2131
 1764TIP3    H126783   6.238   1.144   5.784  0.7735  0.7816 -0.4818
 1764TIP3    H226784   6.183   1.157   5.925  0.7040 -0.3428 -0.3962
 1765TIP3   OH226785   6.585   2.666   4.713 -0.0526  0.1068 -0.1440
 1765TIP3    H126786   6.512   2.644   4.655 -1.2643  1.4112  0.8383
 1765TIP3    H226787   6.599   2.759   4.700 -1.3878  0.8042  2.7003
 1766TIP3   OH226788   2.119   2.957   4.621  0.1326  0.0600 -0.7250
 1766TIP3    H126789   2.130   2.990   4.710  0.0262  1.1510 -1.0970
 1766TIP3    H226790   2.131   2.862   4.628 -1.6141 -0.1007  0.7452
 1767TIP3   OH226791   6.295   4.108  11.549 -0.4228  0.4710  0.0198
 1767TIP3    H126792   6.200   4.109  11.535 -0.4082  2.1082 -0.2001
 1767TIP3    H226793   6.324   4.194  11.520  0.5363  1.6424  3.8627
 1768TIP3   OH226794   2.974   2.249  12.611 -0.1262 -0.1722 -0.0372
 1768TIP3    H126795   2.884   2.267  12.641 -0.4153  1.2089 -1.5653
 1768TIP3    H226796   3.015   2.204  12.685 -1.4460  1.0522  1.5495
 1769TIP3   OH226797   3.999   0.771  15.732 -0.0594 -0.1383 -0.0829
 1769TIP3    H126798   3.952   0.702  15.780  0.3644 -0.7877 -0.5811
 1769TIP3    H226799   4.060   0.808  15.796 -0.1947 -0.3221  0.1518
 1770TIP3   OH226800   3.007   4.067  14.802 -0.1809  0.0455  0.8697
 1770TIP3    H126801   3.013   4.007  14.876 -0.3971 -0.9094  0.1434
 1770TIP3    H226802   2.972   4.013  14.731  4.0492 -0.3329 -1.2584
 1771TIP3   OH226803   6.038   4.286   0.947  0.0369  0.0595 -0.1588
 1771TIP3    H126804   6.045   4.289   0.852  0.7318 -0.0017 -0.1200
 1771TIP3    H226805   5.989   4.365   0.971 -0.3964 -0.0815 -0.5843
 1772TIP3   OH226806   2.323   3.324   0.808 -0.2240  0.1974  0.5435
 1772TIP3    H126807   2.289   3.391   0.868 -0.5263 -0.6179  1.2949
 1772TIP3    H226808   2.370   3.263   0.865 -2.3326 -1.7690  0.2797
 1773TIP3   OH226809   3.398   4.072   0.842  0.3159  0.1768 -0.0786
 1773TIP3    H126810   3.380   4.166   0.834  1.9006  0.4815 -0.2370
 1773TIP3    H226811   3.420   4.043   0.754  1.0908 -0.0617  0.1810
 1774TIP3   OH226812   0.345   0.735  15.629 -0.2102  0.5905  0.1077
 1774TIP3    H126813   0.431   0.752  15.666 -0.5746 -0.0146  1.2934
 1774TIP3    H226814   0.302   0.820  15.627  0.0684  0.7384  0.4092
 1775TIP3   OH226815   5.593   4.635   1.235 -0.0555 -0.2713  0.4818
 1775TIP3    H126816   5.650   4.600   1.304  1.3277  0.0338 -0.4595
 1775TIP3    H226817   5.512   4.658   1.280  0.3337 -1.2822  1.7621
 1776TIP3   OH226818   6.161   0.812  12.923  0.1700 -0.1885  0.1456
 1776TIP3    H126819   6.221   0.882  12.950  0.5532 -0.9365  1.3137
 1776TIP3    H226820   6.119   0.785  13.005 -1.1370 -0.2659 -0.5324
 1777TIP3   OH226821   0.965   5.068   1.683  0.8965  0.2841 -0.0455
 1777TIP3    H126822   0.974   4.973   1.677  2.7541  0.3643  0.9125
 1777TIP3    H226823   1.049   5.098   1.716 -0.1295  2.1484  1.0178
 1778TIP3   OH226824   4.607   4.710  16.081 -0.4678 -0.3764  0.6238
 1778TIP3    H126825   4.591   4.679  16.170 -1.5958 -0.6330  0.3520
 1778TIP3    H226826   4.697   4.683  16.062 -0.3339 -0.6185  1.5618
 1779TIP3   OH226827   4.823   4.935   2.338 -0.5853  0.3861  0.2553
 1779TIP3    H126828   4.733   4.914   2.315 -0.4446  0.5726 -0.4940
 1779TIP3    H226829   4.866   4.953   2.254  0.1008  0.4857  0.6174
 1780TIP3   OH226830   3.551   5.342  12.729  0.7520  0.4634 -0.0329
 1780TIP3    H126831   3.545   5.331  12.634  0.4503 -0.1015  0.0451
 1780TIP3    H226832   3.486   5.281  12.764  1.7152 -0.2394  0.5825
 1781TIP3   OH226833   4.708   0.962  11.867  0.2921 -0.4162 -0.1738
 1781TIP3    H126834   4.796   0.969  11.904 -0.0879 -1.4123  1.0152
 1781TIP3    H226835   4.686   0.869  11.877 -0.2647 -0.5199 -1.9862
 1782TIP3   OH226836   0.791   6.347  12.600  0.1514  0.6999 -0.3736
 1782TIP3    H126837   0.799   6.293  12.679  2.1661 -0.7763 -1.4879
 1782TIP3    H226838   0.696   6.356  12.587 -0.2392  0.6274  1.9259
 1783TIP3   OH226839   2.870   0.833   1.311 -0.1118  0.1857 -0.4322
 1783TIP3    H126840   2.811   0.887   1.363 -0.2428 -0.3365 -0.0251
 1783TIP3    H226841   2.951   0.830   1.362  0.2039  0.7307 -0.8903
 1784TIP3   OH226842   4.984   0.578  13.696 -0.6106 -0.7261 -0.4831
 1784TIP3    H126843   4.890   0.592  13.706 -0.5412  0.0567 -0.8029
 1784TIP3    H226844   5.024   0.627  13.768 -0.3057  1.7935 -2.2221
 1785TIP3   OH226845   3.800   1.684   3.416  0.7835  0.3301  0.3551
 1785TIP3    H126846   3.752   1.694   3.498  2.1754  0.3130  1.1948
 1785TIP3    H226847   3.745   1.626   3.363  0.3360 -0.4586  1.6501
 1786TIP3   OH226848   4.020   1.059  11.012  0.4775 -0.2501  0.6083
 1786TIP3    H126849   4.049   1.055  10.921  0.0173 -0.3026  0.4632
 1786TIP3    H226850   3.944   1.117  11.011  0.4983 -0.2157  0.9666
 1787TIP3   OH226851   0.348   6.442  13.364  0.0508  0.3778  0.3413
 1787TIP3    H126852   0.261   6.466  13.397  0.5389  0.2568  1.7819
 1787TIP3    H226853   0.344   6.347  13.352 -0.3454  0.5093 -0.6545
 1788TIP3   OH226854   3.853   3.432   1.448 -0.3714  0.4682  0.2869
 1788TIP3    H126855   3.888   3.344   1.458  0.4410  0.7326 -0.1581
 1788TIP3    H226856   3.858   3.450   1.354 -0.7959  0.8800  0.3409
 1789TIP3   OH226857   5.581   0.790  12.889 -0.2297 -0.0763 -0.6906
 1789TIP3    H126858   5.627   0.811  12.808  1.0830 -0.8870 -0.1986
 1789TIP3    H226859   5.604   0.698  12.905  0.8450  0.5018  1.4044
 1790TIP3   OH226860   6.322   3.969  13.992 -0.1047 -0.1527 -0.4834
 1790TIP3    H126861   6.388   3.934  14.052  2.4638  2.5103 -1.5041
 1790TIP3    H226862   6.344   3.932  13.907 -0.1863  0.3867 -0.7477
 1791TIP3   OH226863   2.862   4.983   4.556 -0.5195  0.0416 -0.4271
 1791TIP3    H126864   2.843   5.064   4.603 -2.6021  1.0153 -2.7115
 1791TIP3    H226865   2.814   4.916   4.604 -0.9070  0.6326  0.0352
 1792TIP3   OH226866   5.184   0.870   5.273 -0.4875  0.0375 -0.1028
 1792TIP3    H126867   5.185   0.844   5.365  0.2841 -0.3885 -0.2150
 1792TIP3    H226868   5.187   0.965   5.275  1.1534  0.0181  0.3372
 1793TIP3   OH226869   0.881   5.383   2.169 -0.5441  0.1158 -0.1964
 1793TIP3    H126870   0.893   5.454   2.106  1.0567  0.9033  0.9256
 1793TIP3    H226871   0.915   5.306   2.124 -1.4837  0.1965 -1.0971
 1794TIP3   OH226872   4.980   2.832   1.571 -0.2014 -0.9473 -0.5851
 1794TIP3    H126873   4.944   2.917   1.595  0.0013 -1.1970  0.6594
 1794TIP3    H226874   4.965   2.777   1.648 -0.2452 -2.0157 -1.3388
 1795TIP3   OH226875   4.834   3.784  10.894 -0.3922 -0.3755 -0.3201
 1795TIP3    H126876   4.781   3.734  10.832 -1.3103 -1.0185  0.9161
 1795TIP3    H226877   4.896   3.720  10.929  0.3157  0.0520 -0.7795
 1796TIP3   OH226878   4.573   5.556  13.760  0.2670 -0.8516 -0.1460
 1796TIP3    H126879   4.561   5.476  13.812 -0.0905 -0.1118  0.9292
 1796TIP3    H226880   4.548   5.530  13.671  0.7596 -2.0988  0.0536
 1797TIP3   OH226881   6.007   2.983   4.275 -0.4865 -0.3510  0.0964
 1797TIP3    H126882   6.032   3.071   4.248 -0.0101  0.3724  2.5911
 1797TIP3    H226883   6.089   2.942   4.300 -0.9595 -0.5529  1.4081
 1798TIP3   OH226884   1.734   3.460   3.316  0.4220 -0.4973 -0.8350
 1798TIP3    H126885   1.815   3.448   3.366  0.4083 -1.1348 -0.9540
 1798TIP3    H226886   1.738   3.550   3.284 -0.2967  0.4683  1.5910
 1799TIP3   OH226887   3.315   1.127  11.632 -0.1354 -0.3395  0.9836
 1799TIP3    H126888   3.329   1.220  11.615 -1.3349 -0.3005  0.0468
 1799TIP3    H226889   3.234   1.124  11.683 -0.4572 -0.9008  0.4487
 1800TIP3   OH226890   1.716   0.622   6.422  0.4703 -0.1308 -0.2819
 1800TIP3    H126891   1.741   0.710   6.395  0.5252  0.6398  2.0824
 1800TIP3    H226892   1.788   0.567   6.392  1.1138  0.8412 -0.5614
 1801TIP3   OH226893   3.590   2.566   1.347  0.5493  0.0308  0.3405
 1801TIP3    H126894   3.629   2.609   1.271 -1.0539  0.3149 -0.3484
 1801TIP3    H226895   3.592   2.473   1.326 -0.9090  0.1851 -0.5680
 1802TIP3   OH226896   6.041   2.682   0.067  0.5906  0.4248  0.3706
 1802TIP3    H126897   6.038   2.673  -0.029  0.7560 -1.5416  0.5101
 1802TIP3    H226898   6.132   2.661   0.089  0.2639 -0.2938  1.0468
 1803TIP3   OH226899   6.456   1.237   5.108  0.1532  0.3458  0.2060
 1803TIP3    H126900   6.541   1.239   5.064  0.0006 -1.3347 -0.2490
 1803TIP3    H226901   6.477   1.221   5.200  0.3739  1.6754  0.4111
 1804TIP3   OH226902   3.125   2.133  14.383 -0.0177 -0.0643  0.4190
 1804TIP3    H126903   3.166   2.197  14.323 -0.8274  0.5693  0.5254
 1804TIP3    H226904   3.147   2.048  14.345 -1.8463  0.3223 -1.7196
 1805TIP3   OH226905   3.322   5.773  16.264 -0.4645 -0.4472  0.4513
 1805TIP3    H126906   3.234   5.748  16.235 -0.3592 -0.9773  0.5707
 1805TIP3    H226907   3.341   5.854  16.218 -0.8294 -0.5809  0.0651
 1806TIP3   OH226908   3.901   2.140  13.882  0.0860  0.4896 -0.1429
 1806TIP3    H126909   3.878   2.180  13.966 -0.3151  0.1940 -0.1098
 1806TIP3    H226910   3.899   2.046  13.899 -0.2912  0.4221 -0.5577
 1807TIP3   OH226911   5.631   5.463  17.176 -0.1316 -1.0181 -0.0995
 1807TIP3    H126912   5.695   5.491  17.110 -0.7757 -0.7627 -0.6160
 1807TIP3    H226913   5.555   5.518  17.161  0.4693  0.6025  2.2539
 1808TIP3   OH226914   0.794   1.821  14.997 -0.9396 -0.3200  0.0861
 1808TIP3    H126915   0.778   1.736  14.956 -1.7215 -0.7562  1.2291
 1808TIP3    H226916   0.825   1.877  14.926  0.0704 -1.6850 -0.6017
 1809TIP3   OH226917   0.746   4.055   2.869 -0.5656 -0.1814 -0.2599
 1809TIP3    H126918   0.682   4.126   2.869 -1.7892 -1.2271 -1.4394
 1809TIP3    H226919   0.748   4.025   2.778  1.4898 -0.3164 -0.2186
 1810TIP3   OH226920   6.255   2.923  10.358  0.3191  0.2028  0.3241
 1810TIP3    H126921   6.191   2.851  10.363  2.7068 -1.9961  1.5352
 1810TIP3    H226922   6.249   2.965  10.444  0.3284  0.1673  0.3425
 1811TIP3   OH226923   1.223   2.076  12.369  0.3813 -0.3240 -0.3719
 1811TIP3    H126924   1.262   1.994  12.402  1.3247 -0.8325 -2.5295
 1811TIP3    H226925   1.240   2.073  12.275 -1.7887  1.2066 -0.8748
 1812TIP3   OH226926   4.971   4.675  15.746  0.1729  0.5321 -0.4206
 1812TIP3    H126927   5.007   4.712  15.665  2.5215 -0.1063  0.2561
 1812TIP3    H226928   4.985   4.744  15.811 -0.3112  0.4610 -0.2407
 1813TIP3   OH226929   5.364   4.269  12.227 -0.8658 -0.2905 -0.2598
 1813TIP3    H126930   5.285   4.322  12.234 -0.0937  1.3605 -2.7104
 1813TIP3    H226931   5.423   4.305  12.293 -1.2085  0.2660 -0.2531
 1814TIP3   OH226932   4.824   6.640   5.394 -0.2654 -0.3714  0.4414
 1814TIP3    H126933   4.907   6.664   5.435 -0.6667  1.4218  0.2816
 1814TIP3    H226934   4.841   6.555   5.352  1.3403 -0.2431  0.7807
 1815TIP3   OH226935   2.316   2.366  14.130 -0.6047 -0.1381  0.1690
 1815TIP3    H126936   2.328   2.317  14.211  1.0829 -1.9068 -1.0409
 1815TIP3    H226937   2.381   2.329  14.070  0.1085  2.9637 -1.1868
 1816TIP3   OH226938   5.441   1.903   1.216  0.0510  0.4461  0.1902
 1816TIP3    H126939   5.387   1.846   1.270 -0.3821 -3.3872 -3.7761
 1816TIP3    H226940   5.531   1.872   1.230  0.1712  0.7306  0.0770
 1817TIP3   OH226941   5.873   3.381   0.722  0.1546 -0.1004  0.3156
 1817TIP3    H126942   5.827   3.348   0.799 -2.1268  1.2231 -0.3900
 1817TIP3    H226943   5.806   3.425   0.671  1.9158  0.4462 -1.6727
 1818TIP3   OH226944   6.214   3.325   1.889  0.3380  0.0961 -0.1065
 1818TIP3    H126945   6.205   3.232   1.909  3.5234  0.3566  3.6855
 1818TIP3    H226946   6.149   3.368   1.945  1.2769  0.2565  0.8945
 1819TIP3   OH226947   4.827   0.343   2.444 -0.3043  0.3193 -0.1068
 1819TIP3    H126948   4.912   0.338   2.401 -0.1847  0.7090  0.0836
 1819TIP3    H226949   4.781   0.264   2.417 -0.4369  0.8153 -1.4052
 1820TIP3   OH226950   6.796   1.245   1.362 -0.1037 -0.5573  0.2483
 1820TIP3    H126951   6.794   1.163   1.313 -0.8160 -1.3529  1.5764
 1820TIP3    H226952   6.886   1.277   1.351 -0.2052 -0.7409 -1.4731
 1821TIP3   OH226953   0.487   2.781  14.423 -0.0279  0.1570 -0.2974
 1821TIP3    H126954   0.474   2.864  14.470 -1.7748  0.0682 -0.5463
 1821TIP3    H226955   0.579   2.782  14.399  0.5030  1.0475  1.5313
 1822TIP3   OH226956   3.842   2.847   4.922 -0.3457 -0.3548  0.5653
 1822TIP3    H126957   3.809   2.790   4.853 -1.2784  0.2230  0.5122
 1822TIP3    H226958   3.809   2.934   4.900  0.9973  0.2107  0.6853
 1823TIP3   OH226959   4.318   2.725  13.911 -0.6067  0.6102  0.0753
 1823TIP3    H126960   4.340   2.632  13.908 -1.2381  0.4277  0.8584
 1823TIP3    H226961   4.273   2.741  13.828 -0.9720  0.0843  0.1638
 1824TIP3   OH226962   6.194   0.881  15.856 -0.0576 -0.5290 -0.9325
 1824TIP3    H126963   6.169   0.813  15.918 -0.8373 -0.9694 -1.7087
 1824TIP3    H226964   6.112   0.910  15.818  0.2488  0.9491 -0.5296
 1825TIP3   OH226965   4.904   0.102  17.117 -0.5359  0.6225  0.2557
 1825TIP3    H126966   4.903   0.164  17.044 -0.1477 -0.3140 -0.5731
 1825TIP3    H226967   4.982   0.124  17.167 -1.2041  1.7578  0.8587
 1826TIP3   OH226968   6.571   5.099  15.963 -0.3376 -0.3259 -0.6209
 1826TIP3    H126969   6.606   5.186  15.946 -2.1214  0.0537 -2.8690
 1826TIP3    H226970   6.480   5.114  15.988 -0.2763 -1.4820  0.3625
 1827TIP3   OH226971   0.107   1.751  11.982  0.3196 -0.1505  0.1032
 1827TIP3    H126972   0.091   1.693  12.057 -0.4230  0.7136  0.6425
 1827TIP3    H226973   0.082   1.838  12.014 -0.4428  0.1673 -1.3074
 1828TIP3   OH226974   5.130   6.459  10.766  0.1381  0.2384  0.6153
 1828TIP3    H126975   5.042   6.465  10.803  0.2017  0.9322  0.6805
 1828TIP3    H226976   5.151   6.366  10.769 -0.0129  0.2181  1.9874
 1829TIP3   OH226977   6.127   3.113  12.169 -0.3110 -0.2372  0.2653
 1829TIP3    H126978   6.114   3.096  12.076  0.1727 -2.0939  0.4957
 1829TIP3    H226979   6.222   3.121  12.179 -0.4128  0.9199  0.4714
 1830TIP3   OH226980   4.400   4.408  14.289  0.2484  0.3748 -0.1350
 1830TIP3    H126981   4.327   4.394  14.350  0.8453  1.2938  0.8275
 1830TIP3    H226982   4.476   4.424  14.346  0.6922  1.9451 -1.1100
 1831TIP3   OH226983   2.309   3.869  13.050  0.2074  0.2184 -0.2536
 1831TIP3    H126984   2.359   3.857  12.969 -0.5793 -1.3213 -0.5445
 1831TIP3    H226985   2.222   3.834  13.031 -0.3655  0.9226  0.9025
 1832TIP3   OH226986   0.656   1.047   3.792  0.0455  1.0335  0.2120
 1832TIP3    H126987   0.659   1.026   3.698  0.5106 -1.9111  0.7903
 1832TIP3    H226988   0.726   0.995   3.830 -3.4323 -2.2481  2.8587
 1833TIP3   OH226989   6.389   4.247   4.018  0.1515  0.1522  0.1931
 1833TIP3    H126990   6.440   4.167   4.028 -1.5199 -1.1902 -1.1993
 1833TIP3    H226991   6.447   4.317   4.045  2.7158 -1.2536 -1.2979
 1834TIP3   OH226992   3.826   4.603  15.539 -0.9571 -0.1876  0.7848
 1834TIP3    H126993   3.774   4.668  15.587 -1.8310 -0.1277 -0.1948
 1834TIP3    H226994   3.772   4.523  15.543 -2.6199  0.5817 -2.6354
 1835TIP3   OH226995   3.696   6.001  15.826 -0.0181 -0.6178  0.0927
 1835TIP3    H126996   3.684   6.021  15.919 -1.7504 -1.9474  0.1955
 1835TIP3    H226997   3.673   6.082  15.781  2.0903  0.4622  0.8164
 1836TIP3   OH226998   3.571   5.915   1.202  0.4539 -0.1835  0.5778
 1836TIP3    H126999   3.580   6.003   1.239  1.2716  1.4572 -3.0562
 1836TIP3    H227000   3.495   5.921   1.145  1.2594 -1.4243 -0.6836
 1837TIP3   OH227001   4.385   5.123   6.255  0.4387 -0.1535  0.4409
 1837TIP3    H127002   4.350   5.146   6.169 -0.9059 -3.6805 -0.1323
 1837TIP3    H227003   4.340   5.180   6.316  0.5486  1.6170 -1.0584
 1838TIP3   OH227004   2.084   4.464   1.363  0.3732  0.0795 -0.3159
 1838TIP3    H127005   2.041   4.527   1.420  1.6096 -0.3099  1.0884
 1838TIP3    H227006   2.150   4.514   1.316 -0.6120  0.3894 -1.4325
 1839TIP3   OH227007   5.162   1.423   2.498  0.7738 -0.0481  0.1341
 1839TIP3    H127008   5.119   1.489   2.552  0.2049 -0.4947  0.2332
 1839TIP3    H227009   5.214   1.474   2.436 -1.0728  0.5882 -0.9811
 1840TIP3   OH227010   1.923   4.788  13.987 -0.1885  0.3888 -0.2726
 1840TIP3    H127011   1.953   4.835  14.065 -0.3652  0.2399 -0.1163
 1840TIP3    H227012   1.828   4.801  13.986 -0.0382  1.6408 -1.2638
 1841TIP3   OH227013   2.448   1.969   4.988  0.4941 -0.7130 -0.4667
 1841TIP3    H127014   2.448   1.986   5.082 -1.2398  0.4757 -0.6414
 1841TIP3    H227015   2.494   2.043   4.949  0.5467 -0.8230 -0.6199
 1842TIP3   OH227016   4.064   0.290  15.735  0.3857 -0.3728 -0.2535
 1842TIP3    H127017   4.086   0.379  15.763 -1.2084  0.1139 -0.4310
 1842TIP3    H227018   4.133   0.266  15.673  0.5149  0.9769 -0.6547
 1843TIP3   OH227019   1.920   5.618  10.907 -0.8087 -0.3008  0.2963
 1843TIP3    H127020   1.882   5.620  10.819 -0.1681 -1.0004 -0.0040
 1843TIP3    H227021   2.002   5.666  10.899 -0.4785 -0.8388  0.3692
 1844TIP3   OH227022   4.723   6.158  12.098 -0.1639 -0.2216  0.2373
 1844TIP3    H127023   4.724   6.082  12.156  0.1155 -0.2532  0.1906
 1844TIP3    H227024   4.648   6.142  12.040  0.8426 -1.2719 -0.8396
 1845TIP3   OH227025   3.956   1.542   0.352  0.1229  0.1377 -0.8078
 1845TIP3    H127026   3.984   1.533   0.444 -0.0253 -0.7489 -0.8495
 1845TIP3    H227027   4.007   1.617   0.320 -1.2498  1.7554  0.5507
 1846TIP3   OH227028   4.142   6.032  12.939  0.3972 -0.2561 -0.5314
 1846TIP3    H127029   4.237   6.033  12.925  0.3115 -0.1428 -1.1120
 1846TIP3    H227030   4.124   6.116  12.981  0.2449  0.7937 -2.5848
 1847TIP3   OH227031   5.287   3.003   0.645 -0.7109 -0.5747  0.3809
 1847TIP3    H127032   5.334   3.080   0.679  0.2850 -0.7550 -0.5340
 1847TIP3    H227033   5.286   2.941   0.718  0.3169 -0.4839  0.4821
 1848TIP3   OH227034   5.730   5.670   2.821 -0.0408  0.3489  0.0313
 1848TIP3    H127035   5.761   5.752   2.860 -1.3056 -0.2582  2.5574
 1848TIP3    H227036   5.649   5.693   2.777 -1.1068  0.3220  1.8672
 1849TIP3   OH227037   0.853   3.306  10.614  0.3364 -0.3698 -0.2461
 1849TIP3    H127038   0.772   3.356  10.625  0.6101  0.0690 -0.1890
 1849TIP3    H227039   0.915   3.369  10.577  0.6522 -0.7028 -0.2932
 1850TIP3   OH227040   4.349   2.122  14.333 -0.3998 -0.4157  0.2147
 1850TIP3    H127041   4.285   2.073  14.281  0.0276 -0.3670 -0.3661
 1850TIP3    H227042   4.369   2.199  14.280 -0.3586 -0.0895  0.6967
 1851TIP3   OH227043   2.536   2.352  15.384  0.1702  0.6733 -0.2592
 1851TIP3    H127044   2.472   2.389  15.445  0.3356  1.8078 -0.7376
 1851TIP3    H227045   2.615   2.340  15.438  0.5573  2.3893 -0.3609
 1852TIP3   OH227046   5.353   1.311   5.637  0.0996  0.1705  0.5277
 1852TIP3    H127047   5.383   1.245   5.701 -2.4588 -0.9333  0.7173
 1852TIP3    H227048   5.397   1.286   5.556  0.5110 -0.7259  0.9996
 1853TIP3   OH227049   1.551   1.651   2.078  0.4420  0.4549 -0.2567
 1853TIP3    H127050   1.533   1.618   2.166  1.9768  0.0135 -0.0664
 1853TIP3    H227051   1.565   1.572   2.026  0.0318  0.7260 -0.7781
 1854TIP3   OH227052   0.918   0.674   1.926  0.3003 -0.1767 -0.1922
 1854TIP3    H127053   0.868   0.741   1.972 -1.2683 -1.1382 -0.4118
 1854TIP3    H227054   0.991   0.654   1.983 -0.9822 -0.5457  1.3799
 1855TIP3   OH227055   5.236   4.035   3.961  0.1380  0.2464 -0.5242
 1855TIP3    H127056   5.183   3.957   3.979  1.4883 -0.5210  0.2099
 1855TIP3    H227057   5.271   4.061   4.046  1.8871  0.0373 -1.1451
 1856TIP3   OH227058   4.190   0.039   4.760 -0.2835  0.2127 -0.2141
 1856TIP3    H127059   4.197   0.013   4.852  1.0473 -0.1571 -0.3972
 1856TIP3    H227060   4.195   0.135   4.761  0.5325  0.1805  0.0634
 1857TIP3   OH227061   3.458   4.515  16.501 -0.1763 -0.1606 -0.0098
 1857TIP3    H127062   3.503   4.589  16.462 -0.6734 -0.0934 -0.4725
 1857TIP3    H227063   3.452   4.536  16.594  0.7570 -0.1863  0.0626
 1858TIP3   OH227064   2.452   5.493  15.385 -0.1672 -0.4226  0.7405
 1858TIP3    H127065   2.442   5.424  15.450  1.0472 -0.1067  1.2865
 1858TIP3    H227066   2.393   5.563  15.415 -0.4732 -0.7312  0.8604
 1859TIP3   OH227067   0.927   0.335  16.778  0.0843 -0.0978  0.5367
 1859TIP3    H127068   0.888   0.361  16.694 -1.0634  0.2954  1.1774
 1859TIP3    H227069   0.858   0.284  16.821  0.5385  0.0052  1.3920
 1860TIP3   OH227070   1.942   1.447  15.205  0.2731 -0.4537 -0.4355
 1860TIP3    H127071   1.967   1.510  15.137 -0.1799 -0.8726 -0.9894
 1860TIP3    H227072   1.953   1.361  15.164 -0.0655 -0.7076 -0.0009
 1861TIP3   OH227073   2.827   2.070  12.403  0.1238  0.1005  0.0481
 1861TIP3    H127074   2.760   2.091  12.469 -0.4325 -0.1110 -0.4384
 1861TIP3    H227075   2.897   2.028  12.453 -0.1492  0.2272  0.5530
 1862TIP3   OH227076   2.486   0.943   4.135 -0.0270 -0.2432 -0.2906
 1862TIP3    H127077   2.498   0.940   4.040  0.2295 -0.1162 -0.2647
 1862TIP3    H227078   2.573   0.921   4.170 -0.5814 -2.3106 -0.0723
 1863TIP3   OH227079   0.841   0.410  11.100 -0.0514 -0.3222  0.2305
 1863TIP3    H127080   0.845   0.320  11.132  0.6981  0.2837  1.9656
 1863TIP3    H227081   0.835   0.402  11.005  1.3329 -2.1739  0.2611
 1864TIP3   OH227082   3.982   4.981   5.407  0.0147  0.6957 -0.2335
 1864TIP3    H127083   4.076   4.959   5.404 -0.1761 -0.0887 -0.7451
 1864TIP3    H227084   3.951   4.944   5.489 -0.1723 -0.4553 -0.8028
 1865TIP3   OH227085   6.120   2.338  10.952 -0.2552 -0.3438 -0.6022
 1865TIP3    H127086   6.160   2.420  10.924  0.6331 -0.7569 -0.6030
 1865TIP3    H227087   6.057   2.363  11.018  1.9661  0.1535  1.4740
 1866TIP3   OH227088   2.413   4.441   4.598  0.2875  0.5404 -0.1141
 1866TIP3    H127089   2.426   4.412   4.508 -1.0739 -0.4327 -0.0296
 1866TIP3    H227090   2.368   4.525   4.591 -1.0509 -0.1753 -0.3609
 1867TIP3   OH227091   4.958   1.296   3.647 -0.0842 -0.4560  0.0325
 1867TIP3    H127092   4.898   1.370   3.660 -1.4059 -1.6319  0.8281
 1867TIP3    H227093   5.044   1.333   3.663 -0.5444  1.3016 -1.1852
 1868TIP3   OH227094   4.384   0.855  13.158 -0.1571 -0.1799 -0.3316
 1868TIP3    H127095   4.422   0.849  13.071  3.1556 -1.7687  1.0432
 1868TIP3    H227096   4.418   0.937  13.194  1.2250 -1.0939  0.5369
 1869TIP3   OH227097   5.819   0.068  12.480  0.4204  0.5984  0.5395
 1869TIP3    H127098   5.806   0.154  12.440  0.4768  1.0403  1.4429
 1869TIP3    H227099   5.867   0.018  12.413 -1.8491  0.3795 -1.0477
 1870TIP3   OH227100   0.111   1.347  15.384  0.0182  0.1779  0.5518
 1870TIP3    H127101   0.132   1.402  15.460  0.2181  1.4158 -0.3708
 1870TIP3    H227102   0.195   1.327  15.344 -0.1992  1.6909 -0.7829
 1871TIP3   OH227103   2.095   4.079  11.620 -0.0704  0.1759  0.2941
 1871TIP3    H127104   2.007   4.066  11.584  0.2034 -0.5795 -0.1418
 1871TIP3    H227105   2.148   4.104  11.544  0.2504 -0.1561  0.4067
 1872TIP3   OH227106   5.632   6.382   4.265 -0.4648 -0.2341 -1.0675
 1872TIP3    H127107   5.715   6.410   4.304  0.2427 -0.9171 -2.0554
 1872TIP3    H227108   5.568   6.447   4.296  0.2668 -0.1642  0.3725
 1873TIP3   OH227109   4.343   3.441   0.815 -0.4089 -0.5050 -0.6640
 1873TIP3    H127110   4.424   3.492   0.815 -0.7596  0.0621 -0.0721
 1873TIP3    H227111   4.274   3.504   0.794 -1.0606 -0.3468  1.7114
 1874TIP3   OH227112   0.297   1.773  15.782 -0.3191  0.3666 -0.3163
 1874TIP3    H127113   0.274   1.827  15.858 -1.1308  0.4703 -0.6294
 1874TIP3    H227114   0.372   1.817  15.743  1.2398 -0.6101  1.3980
 1875TIP3   OH227115   0.179   4.761  12.637 -0.1806 -0.4893 -0.6419
 1875TIP3    H127116   0.223   4.758  12.722  1.2709  3.2752 -1.0507
 1875TIP3    H227117   0.090   4.790  12.658 -0.4192 -1.4595 -0.2882
 1876TIP3   OH227118   1.032   1.530   2.899  0.3817  0.2108  0.2368
 1876TIP3    H127119   1.119   1.491   2.915 -0.7447 -2.0250  1.4279
 1876TIP3    H227120   1.045   1.585   2.821  2.8943  0.1122  0.4812
 1877TIP3   OH227121   4.181   6.447   0.139 -0.3699  0.2894  0.1389
 1877TIP3    H127122   4.251   6.388   0.109 -1.0500 -0.0766 -0.8060
 1877TIP3    H227123   4.220   6.534   0.138  0.5927 -0.0957  1.3545
 1878TIP3   OH227124   2.916   4.699  11.081 -0.0640  0.0102  0.0286
 1878TIP3    H127125   2.931   4.627  11.021  2.9520 -0.8779  1.6250
 1878TIP3    H227126   2.829   4.683  11.118  0.2926 -2.5349 -0.0607
 1879TIP3   OH227127   1.001   5.218  14.014 -0.3390 -0.2791 -0.0298
 1879TIP3    H127128   0.998   5.176  14.100  0.9336 -1.6835 -0.6299
 1879TIP3    H227129   0.931   5.176  13.964 -0.7214  0.1443  0.1473
 1880TIP3   OH227130   5.082   4.212  14.654  0.1888 -0.8293 -0.2131
 1880TIP3    H127131   5.130   4.268  14.593  2.0965 -1.1224  0.9528
 1880TIP3    H227132   4.990   4.235  14.639  0.7552  0.9157 -1.3998
 1881TIP3   OH227133   0.744   0.023   2.580 -0.4139 -0.4953 -0.4487
 1881TIP3    H127134   0.764   0.007   2.672  3.0094 -1.0899 -1.1506
 1881TIP3    H227135   0.713   0.114   2.578 -2.1280 -0.9558  1.3994
 1882TIP3   OH227136   6.031   2.399   4.199 -0.1116 -0.4990 -0.3017
 1882TIP3    H127137   5.994   2.312   4.211 -0.5466 -0.6660 -2.4840
 1882TIP3    H227138   5.959   2.459   4.218 -0.4507 -0.6997 -0.9385
 1883TIP3   OH227139   5.153   0.595   1.170  0.4322 -0.3516  0.2282
 1883TIP3    H127140   5.194   0.517   1.132  2.6449  0.0673  1.6039
 1883TIP3    H227141   5.187   0.668   1.118 -0.8909 -0.1635 -0.4387
 1884TIP3   OH227142   2.736   1.166  14.911 -0.0796 -0.1317  0.2933
 1884TIP3    H127143   2.665   1.177  14.974 -1.0479  1.2715 -0.9771
 1884TIP3    H227144   2.753   1.254  14.879  1.2675 -0.6489 -0.4840
 1885TIP3   OH227145   6.700   4.230  14.462 -0.1872  0.2741 -0.3940
 1885TIP3    H127146   6.645   4.268  14.394 -0.5608  0.5053  0.0381
 1885TIP3    H227147   6.755   4.303  14.491 -1.1354  0.5846  0.6697
 1886TIP3   OH227148   5.069   3.729   0.374 -0.4264 -0.4080  0.6256
 1886TIP3    H127149   5.020   3.713   0.294  2.2217  2.5294 -1.8666
 1886TIP3    H227150   5.133   3.658   0.377 -2.0559 -1.9290  1.6519
 1887TIP3   OH227151   5.247   2.805  13.917 -0.5281  0.2043  0.8907
 1887TIP3    H127152   5.281   2.760  13.840  1.5257 -0.1865  1.9524
 1887TIP3    H227153   5.249   2.898  13.894 -0.7547  0.0460  0.2015
 1888TIP3   OH227154   2.006   4.805   2.645 -0.0614 -0.6019 -0.0861
 1888TIP3    H127155   2.040   4.729   2.691  0.2252 -1.1574 -1.1733
 1888TIP3    H227156   2.047   4.801   2.558 -1.2659 -0.1126 -0.7037
 1889TIP3   OH227157   6.777   4.864  11.131 -0.2067  0.0384  0.3529
 1889TIP3    H127158   6.695   4.839  11.174 -0.2428  1.2870  1.0803
 1889TIP3    H227159   6.776   4.818  11.047 -1.9846  0.5629  0.0546
 1890TIP3   OH227160   4.083   1.222  13.206  0.1967 -0.4075 -0.1345
 1890TIP3    H127161   4.031   1.141  13.206  1.0294 -0.9932  1.5689
 1890TIP3    H227162   4.087   1.247  13.298  1.3522  0.6664 -0.4603
 1891TIP3   OH227163   0.229   5.485   0.127  0.0179 -0.8404 -0.4627
 1891TIP3    H127164   0.250   5.578   0.141 -0.9858 -0.7144  0.3264
 1891TIP3    H227165   0.155   5.487   0.066 -1.8614 -0.9469  1.6776
 1892TIP3   OH227166   0.608   2.290  12.276 -0.3497  0.0936  0.9119
 1892TIP3    H127167   0.518   2.322  12.268 -0.9807 -1.7407  0.2225
 1892TIP3    H227168   0.639   2.326  12.359 -1.3126  1.6616  0.6351
 1893TIP3   OH227169   0.488   2.666  13.439 -0.4824  0.1805 -0.4400
 1893TIP3    H127170   0.536   2.591  13.402  2.4273  1.4956  0.3361
 1893TIP3    H227171   0.411   2.627  13.479  0.1758 -2.2259 -1.2932
 1894TIP3   OH227172   2.137   5.034  12.208 -0.1599 -0.2381 -0.1296
 1894TIP3    H127173   2.077   5.032  12.283 -0.2954 -1.6894 -0.2342
 1894TIP3    H227174   2.080   5.047  12.132 -0.0421  1.0500 -0.0113
 1895TIP3   OH227175   5.310   6.190   4.839 -0.2188  0.0519 -0.5794
 1895TIP3    H127176   5.311   6.202   4.934 -0.6607  2.2010 -0.7938
 1895TIP3    H227177   5.381   6.128   4.822  1.0031  0.9379  1.0147
 1896TIP3   OH227178   5.838   3.023  11.046 -0.3260 -0.1098  0.2740
 1896TIP3    H127179   5.854   2.951  10.985 -0.0279  1.3918 -1.5016
 1896TIP3    H227180   5.924   3.063  11.060 -0.8145  1.5091 -0.9339
 1897TIP3   OH227181   3.322   3.525  15.284 -0.0932 -0.5529 -0.1214
 1897TIP3    H127182   3.409   3.549  15.315 -1.1680 -0.2603  3.1134
 1897TIP3    H227183   3.327   3.431  15.267  1.1534 -0.2895 -1.3230
 1898TIP3   OH227184   4.323   4.712   4.694 -0.0790 -0.8916 -0.4356
 1898TIP3    H127185   4.346   4.725   4.602 -0.0599 -0.1834 -0.3383
 1898TIP3    H227186   4.368   4.631   4.718  1.7342  0.0293 -0.4695
 1899TIP3   OH227187   3.500   2.276   2.412  0.1882  0.0586 -0.0391
 1899TIP3    H127188   3.411   2.241   2.420  0.6713 -0.8362  2.2662
 1899TIP3    H227189   3.545   2.214   2.354 -0.4198 -0.0243 -0.4365
 1900TIP3   OH227190   0.921   1.085  12.936 -0.3654 -0.3454  0.1085
 1900TIP3    H127191   0.886   1.105  12.850  1.0105 -0.7963 -0.5829
 1900TIP3    H227192   0.849   1.104  12.996 -0.9492  1.1857 -1.0039
 1901TIP3   OH227193   0.918   3.705  12.058 -0.1344  0.4719  0.0789
 1901TIP3    H127194   0.828   3.683  12.083 -0.3755  1.6515  0.2830
 1901TIP3    H227195   0.924   3.800  12.068  1.0763  0.4385 -0.1366
 1902TIP3   OH227196   2.459   6.736   0.041  0.1379 -0.4112 -0.7053
 1902TIP3    H127197   2.387   6.798   0.051  0.0580 -0.4685 -0.9254
 1902TIP3    H227198   2.497   6.730   0.128 -0.7012 -1.0838 -0.3715
 1903TIP3   OH227199   4.270   2.036  12.298  0.0934 -0.5135 -0.4294
 1903TIP3    H127200   4.321   2.042  12.379 -0.9492 -0.2848  0.2351
 1903TIP3    H227201   4.304   2.106  12.243  0.2663 -0.1482  0.1374
 1904TIP3   OH227202   1.649   4.797  15.225 -0.1842  0.4619 -0.3381
 1904TIP3    H127203   1.724   4.824  15.172  1.0422 -0.2394  0.9716
 1904TIP3    H227204   1.671   4.826  15.313 -0.5514 -1.4279  0.4138
 1905TIP3   OH227205   3.826   2.480   1.220 -0.2529  0.6341 -0.5943
 1905TIP3    H127206   3.848   2.431   1.299 -2.4916  0.3526 -0.0780
 1905TIP3    H227207   3.865   2.430   1.149 -0.4495 -0.5828  0.1191
 1906TIP3   OH227208   3.170   1.208   2.730 -0.3670  0.0782  0.4867
 1906TIP3    H127209   3.080   1.193   2.700  0.1077  0.2125 -1.1159
 1906TIP3    H227210   3.166   1.291   2.777 -1.0490  0.2181  0.1945
 1907TIP3   OH227211   5.497   5.049  17.113  0.1094 -0.2057 -0.0162
 1907TIP3    H127212   5.467   5.006  17.193  0.3786  0.2918  0.3547
 1907TIP3    H227213   5.493   4.981  17.046  2.5997 -1.4509  0.9983
 1908TIP3   OH227214   3.863   5.569  13.138  0.6048  0.6375  0.0673
 1908TIP3    H127215   3.808   5.497  13.105  0.8958  0.3833  0.1334
 1908TIP3    H227216   3.805   5.645  13.138  0.8746  0.9146 -2.0809
 1909TIP3   OH227217   2.322   2.660   1.971 -0.2591  0.1566 -0.3651
 1909TIP3    H127218   2.257   2.666   2.041 -0.8698 -1.0117 -0.7944
 1909TIP3    H227219   2.271   2.646   1.892  0.4914 -0.2884 -0.7869
 1910TIP3   OH227220   5.896   3.654  16.459 -0.6305  0.1648  0.0155
 1910TIP3    H127221   5.814   3.637  16.506 -1.1246  1.2945 -0.4116
 1910TIP3    H227222   5.960   3.672  16.529 -1.1816  1.0660  0.3110
 1911TIP3   OH227223   5.793   5.043  12.943 -0.0417 -0.9329  0.3157
 1911TIP3    H127224   5.887   5.057  12.955 -0.0937  0.0799 -0.3077
 1911TIP3    H227225   5.782   4.949  12.951  0.9469 -1.0183  0.9295
 1912TIP3   OH227226   6.582   0.205   1.572 -0.4469  0.2366 -0.3461
 1912TIP3    H127227   6.604   0.114   1.554 -2.8211 -0.2960 -0.9293
 1912TIP3    H227228   6.581   0.248   1.486  1.1052  0.9733 -0.0361
 1913TIP3   OH227229   5.348   1.649  10.883 -0.2061  0.3912 -0.4156
 1913TIP3    H127230   5.396   1.611  10.809 -0.1925  1.2050 -0.8379
 1913TIP3    H227231   5.414   1.661  10.951 -0.6352 -2.5155  0.6277
 1914TIP3   OH227232   0.788   4.358  16.609 -0.0768  0.1551 -0.3273
 1914TIP3    H127233   0.862   4.347  16.550  1.1883  0.8611  1.0771
 1914TIP3    H227234   0.823   4.404  16.685 -2.1396  1.2998  0.0284
 1915TIP3   OH227235   6.340   4.647   1.827  0.3763 -0.3136  0.0612
 1915TIP3    H127236   6.334   4.632   1.922  0.5654 -1.9590 -0.1576
 1915TIP3    H227237   6.349   4.742   1.819 -0.6450 -0.0351  1.6360
 1916TIP3   OH227238   5.686   3.816   0.282 -0.7333  0.1260  0.8176
 1916TIP3    H127239   5.731   3.825   0.198 -0.7824  0.7647  0.8528
 1916TIP3    H227240   5.717   3.732   0.317 -1.1612 -0.4247 -0.0981
 1917TIP3   OH227241   1.549   1.957  13.443 -0.2200  0.3365 -0.3553
 1917TIP3    H127242   1.463   1.996  13.454 -1.0964 -1.3494 -0.7741
 1917TIP3    H227243   1.611   2.030  13.450 -1.4103  1.1561  3.2516
 1918TIP3   OH227244   3.588   4.236  13.085  0.6503  0.5765  0.8223
 1918TIP3    H127245   3.646   4.271  13.152 -1.4669  0.2313  2.9720
 1918TIP3    H227246   3.522   4.304  13.073  2.0847  1.5933 -2.6241
 1919TIP3   OH227247   6.726   4.647  15.576 -0.5266 -0.1349  0.3004
 1919TIP3    H127248   6.750   4.590  15.649  0.0750  1.1483  1.1498
 1919TIP3    H227249   6.649   4.695  15.607 -0.6641 -0.0557 -0.1580
 1920TIP3   OH227250   6.593   2.474  15.584  0.2126  0.6563 -0.7642
 1920TIP3    H127251   6.614   2.402  15.524  0.1170 -0.2053  0.1928
 1920TIP3    H227252   6.520   2.441  15.637 -0.4043  1.7978 -0.8676
 1921TIP3   OH227253   4.742   0.268  16.518 -1.0756  0.5107  0.5416
 1921TIP3    H127254   4.721   0.320  16.596 -2.0140  0.8490  0.0913
 1921TIP3    H227255   4.681   0.300  16.452 -0.4608  0.0531 -0.2618
 1922TIP3   OH227256   5.829   2.218   0.558  0.1062 -0.4438  0.0682
 1922TIP3    H127257   5.905   2.161   0.561 -0.7020 -1.5411  0.6062
 1922TIP3    H227258   5.835   2.262   0.473 -0.4153 -3.0673 -1.4511
 1923TIP3   OH227259   0.578   4.689  14.210 -0.0602  0.1047 -0.2704
 1923TIP3    H127260   0.647   4.683  14.276 -0.0792 -0.1050 -0.2695
 1923TIP3    H227261   0.623   4.711  14.129 -0.1392  1.3641  0.0122
 1924TIP3   OH227262   1.227   2.791   4.989 -0.5964  0.3124  0.1088
 1924TIP3    H127263   1.212   2.711   4.939 -0.7625 -1.3331  2.6349
 1924TIP3    H227264   1.290   2.841   4.937 -0.1319 -1.6710 -1.3257
 1925TIP3   OH227265   6.806   1.001  15.775  0.2242  0.1747 -0.0681
 1925TIP3    H127266   6.847   1.018  15.861 -1.6283  2.6656  0.4593
 1925TIP3    H227267   6.794   0.907  15.772  1.8838 -0.1558  1.6801
 1926TIP3   OH227268   3.876   6.540   1.285  0.3558  0.5442 -0.0215
 1926TIP3    H127269   3.936   6.474   1.318  0.0538 -0.2425 -0.9927
 1926TIP3    H227270   3.814   6.555   1.356 -0.5831 -1.4761 -0.3381
 1927TIP3   OH227271   0.373   5.199   1.356  0.4196  0.3479  0.3240
 1927TIP3    H127272   0.416   5.137   1.414 -1.6939  0.1500  1.7404
 1927TIP3    H227273   0.321   5.255   1.413 -1.4563  0.3839 -1.3019
 1928TIP3   OH227274   3.225   1.646  10.986  0.2858 -0.7461 -0.0652
 1928TIP3    H127275   3.249   1.578  11.050 -0.7812 -0.2018  0.9472
 1928TIP3    H227276   3.172   1.599  10.921 -2.0134 -0.6456  1.5919
 1929TIP3   OH227277   6.673   0.548   4.240 -0.0288  0.4592 -0.0971
 1929TIP3    H127278   6.678   0.641   4.217 -1.1577  0.7372  0.7062
 1929TIP3    H227279   6.633   0.547   4.327 -2.0725 -0.8776 -1.0047
 1930TIP3   OH227280   4.582   3.497  16.338  0.3036 -0.7665  0.2446
 1930TIP3    H127281   4.632   3.418  16.357 -0.6694 -1.2475  0.8615
 1930TIP3    H227282   4.615   3.562  16.401  0.1636 -1.0808  0.6490
 1931TIP3   OH227283   0.174   4.005   3.326 -0.4906 -0.2286 -0.1847
 1931TIP3    H127284   0.152   4.084   3.376 -0.1851  1.0696 -1.9867
 1931TIP3    H227285   0.261   3.980   3.359 -0.0042  0.9766 -0.4721
 1932TIP3   OH227286   5.709   0.506  16.732  0.3129 -0.3588  0.4109
 1932TIP3    H127287   5.657   0.456  16.795 -0.1852 -0.2464  0.0941
 1932TIP3    H227288   5.695   0.462  16.648 -1.2472  1.0868 -0.1524
 1933TIP3   OH227289   0.034   0.180  13.044  0.6241  0.2737 -0.1980
 1933TIP3    H127290   0.053   0.124  12.969  1.5148  0.6727 -0.2800
 1933TIP3    H227291   0.075   0.263  13.023 -2.7677  1.8640 -1.2195
 1934TIP3   OH227292   1.907   3.997   3.156 -0.2851  0.7494  0.0895
 1934TIP3    H127293   1.884   3.915   3.199 -0.7430  1.0157  0.3514
 1934TIP3    H227294   1.999   3.985   3.130  0.5400  1.1666  2.5483
 1935TIP3   OH227295   6.220   3.281  13.524  0.5278 -0.0199 -0.1420
 1935TIP3    H127296   6.262   3.306  13.442  0.6388 -2.0561 -0.7640
 1935TIP3    H227297   6.138   3.239  13.498  0.4888 -0.5666  0.7797
 1936TIP3   OH227298   5.394   4.350  11.453 -0.1814  0.0853 -0.0305
 1936TIP3    H127299   5.470   4.406  11.439 -0.5645  0.6958  0.3116
 1936TIP3    H227300   5.403   4.281  11.387  0.7743  0.0355  0.1441
 1937TIP3   OH227301   0.691   3.525  16.489  0.3859 -0.2016  0.1223
 1937TIP3    H127302   0.769   3.504  16.438 -1.3449 -1.9556 -2.0482
 1937TIP3    H227303   0.649   3.596  16.440  1.0582  1.4595  1.8449
 1938TIP3   OH227304   4.236   0.559  11.375 -0.0696  0.7028  0.3887
 1938TIP3    H127305   4.223   0.483  11.432  1.7898 -0.2199 -0.3208
 1938TIP3    H227306   4.290   0.526  11.304  0.5443  2.6432 -0.1018
 1939TIP3   OH227307   3.469   3.167  10.456 -1.0374 -0.2174 -0.2447
 1939TIP3    H127308   3.417   3.166  10.376 -0.1608 -0.9910 -0.8329
 1939TIP3    H227309   3.444   3.248  10.500 -0.7463  0.8008 -1.8506
 1940TIP3   OH227310   3.059   2.420   5.302 -0.2205 -0.1557  0.4118
 1940TIP3    H127311   3.133   2.481   5.299 -0.6178  0.3240  0.1267
 1940TIP3    H227312   3.088   2.350   5.361  0.8874 -0.5625 -0.5670
 1941TIP3   OH227313   2.276   2.276   1.134 -0.6867 -0.1049  0.4977
 1941TIP3    H127314   2.281   2.180   1.130  1.2235  0.0269 -1.3323
 1941TIP3    H227315   2.264   2.303   1.043 -1.7297  1.4231  1.0492
 1942TIP3   OH227316   2.004   4.835  11.613  0.9239 -0.6489  0.0534
 1942TIP3    H127317   2.080   4.778  11.604  1.8533  0.4145  0.8598
 1942TIP3    H227318   1.950   4.794  11.680  2.3265  0.1508  1.7305
 1943TIP3   OH227319   2.483   6.272   2.189 -0.1928 -0.2492  0.0560
 1943TIP3    H127320   2.536   6.193   2.200 -1.0183 -0.9009 -0.5064
 1943TIP3    H227321   2.469   6.303   2.279  1.4277  0.1500  0.1855
 1944TIP3   OH227322   1.584   5.001   5.231 -0.2859 -0.1677  0.8006
 1944TIP3    H127323   1.502   4.961   5.262  0.1921 -1.7434  0.1165
 1944TIP3    H227324   1.634   5.017   5.311 -1.2902  0.9371  1.2376
 1945TIP3   OH227325   1.606   4.914  15.524  0.5475  0.5059  0.5835
 1945TIP3    H127326   1.516   4.922  15.490  0.6449 -3.0267 -0.9453
 1945TIP3    H227327   1.634   5.005  15.538 -1.6568  2.0398 -3.2420
 1946TIP3   OH227328   5.111   1.227  12.826 -0.7909 -0.6547 -0.2511
 1946TIP3    H127329   5.019   1.254  12.823 -0.4534  0.4914 -1.3237
 1946TIP3    H227330   5.148   1.276  12.900 -1.1709 -1.5685  0.5470
 1947TIP3   OH227331   4.496   6.548   1.069 -0.0877 -0.1969 -0.5478
 1947TIP3    H127332   4.474   6.618   1.008  0.1700  0.6793  0.3381
 1947TIP3    H227333   4.421   6.543   1.128 -0.4935 -1.2796 -1.1308
 1948TIP3   OH227334   2.649   2.430  11.572  0.2885  0.2717  0.2207
 1948TIP3    H127335   2.724   2.440  11.631 -0.8846  0.6562  1.7172
 1948TIP3    H227336   2.674   2.360  11.512  1.4342 -0.3364  1.3566
 1949TIP3   OH227337   2.306   0.693   2.925 -0.0682  0.2547  0.0370
 1949TIP3    H127338   2.311   0.788   2.913  0.4805  0.1102 -1.0577
 1949TIP3    H227339   2.228   0.680   2.978 -1.0131  1.2363 -1.0345
 1950TIP3   OH227340   1.162   0.275   3.212 -0.0169  0.0619 -0.3913
 1950TIP3    H127341   1.169   0.198   3.269 -1.2303  0.0068 -0.3043
 1950TIP3    H227342   1.248   0.318   3.220  0.5508 -1.0713 -0.1566
 1951TIP3   OH227343   0.693   4.807  13.421 -0.1568 -0.0666  0.0108
 1951TIP3    H127344   0.609   4.850  13.406  0.7212  1.8101  0.1711
 1951TIP3    H227345   0.759   4.874  13.400  1.2720 -0.8728  1.6000
 1952TIP3   OH227346   3.043   0.712   3.658 -0.3332  0.5089 -0.3489
 1952TIP3    H127347   3.031   0.761   3.739  2.0563  0.4660  0.1054
 1952TIP3    H227348   3.052   0.780   3.591 -2.1690  0.5453 -0.6254
 1953TIP3   OH227349   0.264   1.143   2.312 -0.0383 -0.1567  0.0684
 1953TIP3    H127350   0.255   1.207   2.242 -0.7860  0.6322  0.8457
 1953TIP3    H227351   0.326   1.079   2.279  1.1630  1.2572 -0.5378
 1954TIP3   OH227352   4.258   6.219   2.648  0.3922  0.1382 -0.2164
 1954TIP3    H127353   4.280   6.186   2.561  3.3044  3.1848 -0.8511
 1954TIP3    H227354   4.321   6.176   2.706  0.2137  0.1087 -0.0431
 1955TIP3   OH227355   5.572   6.807   4.173  0.1349  0.7829  0.1659
 1955TIP3    H127356   5.598   6.787   4.083  0.9252 -0.6686  0.6847
 1955TIP3    H227357   5.478   6.790   4.176  0.4550 -1.2337  0.1088
 1956TIP3   OH227358   3.961   3.405  12.530  0.0571 -0.1861 -0.6820
 1956TIP3    H127359   4.048   3.435  12.553  0.7708 -1.3234 -1.7390
 1956TIP3    H227360   3.967   3.309  12.532 -1.8693 -0.3679  1.7076
 1957TIP3   OH227361   2.143   6.758  17.003  0.2951  0.9967  0.3395
 1957TIP3    H127362   2.151   6.757  16.908 -0.5155  0.7916  0.2681
 1957TIP3    H227363   2.151   6.666  17.029  3.4562  1.2640  0.7589
 1958TIP3   OH227364   2.653   4.377  12.901  0.1072 -0.2941 -0.2678
 1958TIP3    H127365   2.733   4.325  12.890  1.2052 -0.0664  4.4652
 1958TIP3    H227366   2.674   4.440  12.970 -3.6288  1.0415 -0.1042
 1959TIP3   OH227367   6.643   2.790   4.439 -0.7863 -0.2905 -0.7451
 1959TIP3    H127368   6.736   2.806   4.428 -0.3343  0.2129  2.6497
 1959TIP3    H227369   6.636   2.695   4.447 -0.4916 -0.3008 -0.5911
 1960TIP3   OH227370   4.090   1.704  10.416 -0.5168  1.0598  0.2581
 1960TIP3    H127371   4.001   1.693  10.450 -0.2159 -2.0354  0.2814
 1960TIP3    H227372   4.082   1.689  10.322  0.1062 -0.4040  0.4141
 1961TIP3   OH227373   3.722   2.713   1.555 -0.3374 -0.1850  0.1655
 1961TIP3    H127374   3.761   2.757   1.479 -1.2030  1.2384  0.4934
 1961TIP3    H227375   3.660   2.652   1.518  0.5775 -0.8591 -0.3032
 1962TIP3   OH227376   0.006   3.562  14.077  0.1974  0.2814  0.4085
 1962TIP3    H127377  -0.047   3.558  14.158  0.4181 -1.9698  0.5228
 1962TIP3    H227378   0.093   3.589  14.107  0.3251 -0.7060  0.9881
 1963TIP3   OH227379   5.325   6.586  12.138  0.0642  0.4976 -0.3091
 1963TIP3    H127380   5.238   6.623  12.123 -0.1064  0.5422  0.7605
 1963TIP3    H227381   5.378   6.660  12.168  0.0889  0.1758  0.4552
 1964TIP3   OH227382   3.540   1.523   2.597  0.5714  0.4794 -0.0925
 1964TIP3    H127383   3.511   1.552   2.683  0.5109  0.8100 -0.2226
 1964TIP3    H227384   3.474   1.460   2.569 -0.0294  1.2329 -0.3898
 1965TIP3   OH227385   2.732   6.642  14.999 -0.0566  0.1132 -0.2639
 1965TIP3    H127386   2.786   6.721  15.007  0.0282  0.0062  0.2464
 1965TIP3    H227387   2.792   6.570  15.019 -0.7435  0.0906  1.9187
 1966TIP3   OH227388   0.752   1.884  16.239  0.0582 -0.1526 -0.4777
 1966TIP3    H127389   0.822   1.926  16.190  0.2412  1.3959  1.0185
 1966TIP3    H227390   0.679   1.877  16.177  0.4941  1.1485 -1.1537
 1967TIP3   OH227391   2.853   0.712   1.584 -0.1690 -0.7529 -0.1009
 1967TIP3    H127392   2.848   0.780   1.651 -0.8586 -1.2513  0.3674
 1967TIP3    H227393   2.798   0.641   1.617  0.0018 -1.2723 -0.8922
 1968TIP3   OH227394   1.350   4.932   5.344 -0.6327  0.0470  0.3496
 1968TIP3    H127395   1.267   4.901   5.308 -1.2872 -0.8209  2.4694
 1968TIP3    H227396   1.385   4.858   5.393  0.7796  0.8056  0.5517
 1969TIP3   OH227397   3.281   2.568  12.985  0.0105 -0.2341 -0.3596
 1969TIP3    H127398   3.331   2.554  13.066  3.2566  0.1609 -2.1075
 1969TIP3    H227399   3.207   2.508  12.991 -0.5857  0.6121  3.3609
 1970TIP3   OH227400   2.536   1.735   4.129  0.0298 -0.6464 -0.0675
 1970TIP3    H127401   2.508   1.665   4.188 -0.9997 -0.6438 -0.5361
 1970TIP3    H227402   2.540   1.813   4.184 -0.6897 -0.6918  0.0499
 1971TIP3   OH227403   1.822   0.446  13.039 -0.1101 -0.0487  0.0245
 1971TIP3    H127404   1.863   0.528  13.068  1.2168 -0.9297  0.7803
 1971TIP3    H227405   1.730   0.469  13.023 -0.2797  1.1415  2.2809
 1972TIP3   OH227406   0.182   3.148   0.049 -0.1121 -0.1293 -0.2188
 1972TIP3    H127407   0.200   3.220  -0.011 -0.1177  0.1650  0.1266
 1972TIP3    H227408   0.203   3.069  -0.001  0.0470  0.1173 -0.5476
 1973TIP3   OH227409   4.620   2.921  12.718  0.3918 -0.3500 -0.4426
 1973TIP3    H127410   4.532   2.923  12.755 -0.2476  0.1128 -1.9244
 1973TIP3    H227411   4.646   2.829  12.724 -0.0892 -0.4549  0.2136
 1974TIP3   OH227412   0.111   6.341   2.091 -0.0665 -0.0123 -0.1916
 1974TIP3    H127413   0.077   6.376   2.008 -0.4848 -2.4845 -1.1483
 1974TIP3    H227414   0.206   6.341   2.080 -0.0950  0.1411 -0.4547
 1975TIP3   OH227415   0.054   6.709   2.844  0.0508  0.4620  0.3330
 1975TIP3    H127416   0.080   6.790   2.887 -1.9678  1.6123 -0.4672
 1975TIP3    H227417   0.047   6.733   2.751  0.5579 -0.9348 -0.0806
 1976TIP3   OH227418   0.553   3.241  15.393 -0.1288  0.4452 -0.3477
 1976TIP3    H127419   0.586   3.329  15.411  0.0520  0.4658 -0.7632
 1976TIP3    H227420   0.536   3.204  15.479 -1.4450  1.3497 -0.1934
 1977TIP3   OH227421   4.442   0.561  16.064  0.2700 -0.0491 -0.4000
 1977TIP3    H127422   4.458   0.524  15.977  1.3087 -1.2796  0.2847
 1977TIP3    H227423   4.529   0.590  16.093 -0.3162  1.8371 -0.4017
 1978TIP3   OH227424   0.088   2.805   5.053 -0.5242 -0.1141  0.1639
 1978TIP3    H127425   0.110   2.867   5.123 -1.0801  2.2458 -1.5830
 1978TIP3    H227426   0.006   2.766   5.081  0.0987 -0.4757  1.5639
 1979TIP3   OH227427   3.155   2.298   5.497  0.2210  0.1439 -0.3587
 1979TIP3    H127428   3.242   2.336   5.484 -0.0125  0.2343 -1.8275
 1979TIP3    H227429   3.118   2.347   5.570  1.4115  0.0694  0.3185
 1980TIP3   OH227430   4.797   4.401  16.186  0.0457 -0.0060 -0.1372
 1980TIP3    H127431   4.763   4.467  16.246  0.9917 -0.3501  0.8091
 1980TIP3    H227432   4.790   4.441  16.100  0.9741  1.5144  0.4466
 1981TIP3   OH227433   2.520   2.695  13.999  0.2644  0.2988  0.7313
 1981TIP3    H127434   2.587   2.724  14.061 -1.2899  2.8434  1.3903
 1981TIP3    H227435   2.465   2.635  14.050  0.1366  0.8313  1.2330
 1982TIP3   OH227436   0.738   1.646  15.417  0.0357  0.4725 -0.1815
 1982TIP3    H127437   0.785   1.567  15.391 -0.0187 -0.1776  1.5695
 1982TIP3    H227438   0.805   1.714  15.421  0.7376 -0.2528  1.4501
 1983TIP3   OH227439   5.090   5.135   1.761  0.3583 -0.0245 -0.3986
 1983TIP3    H127440   5.089   5.152   1.855  0.5487 -0.6103 -0.2831
 1983TIP3    H227441   5.001   5.154   1.732  0.0428 -0.7144  0.0737
 1984TIP3   OH227442   3.205   2.644   0.284 -0.1421  0.8018 -0.0578
 1984TIP3    H127443   3.296   2.616   0.281 -0.0838  0.9809  0.0657
 1984TIP3    H227444   3.208   2.736   0.307 -0.3812  0.6255  0.7355
 1985TIP3   OH227445   0.011   4.992   5.722  0.2242 -0.0444  0.4458
 1985TIP3    H127446   0.018   4.953   5.810 -0.0684  1.5725  1.2306
 1985TIP3    H227447   0.086   5.051   5.716 -0.1257  0.3582 -0.1105
 1986TIP3   OH227448   2.897   4.471  13.818  0.0557  0.1403 -0.9727
 1986TIP3    H127449   2.974   4.439  13.865 -1.0582 -0.5350  0.4575
 1986TIP3    H227450   2.845   4.515  13.885 -1.7244 -1.0793 -1.4829
 1987TIP3   OH227451   0.073   3.221   6.271 -0.0356  0.1012  0.4683
 1987TIP3    H127452   0.047   3.273   6.195 -1.7076 -0.3939  0.6645
 1987TIP3    H227453   0.044   3.273   6.346  0.7711  0.1502  0.7572
 1988TIP3   OH227454   1.832   5.862  15.615 -0.0226  0.1142  0.1594
 1988TIP3    H127455   1.895   5.802  15.577 -0.1068  0.1440 -0.0275
 1988TIP3    H227456   1.810   5.923  15.544 -2.3942 -1.5709 -0.6976
 1989TIP3   OH227457   4.150   4.398   5.489  0.0275  0.5728  0.3046
 1989TIP3    H127458   4.111   4.485   5.477 -0.5775  0.0922 -1.4460
 1989TIP3    H227459   4.243   4.410   5.472 -0.0592  0.8783  0.0416
 1990TIP3   OH227460   1.591   3.936   4.917  0.5012 -0.2398  0.7531
 1990TIP3    H127461   1.607   3.986   4.997 -1.0728  0.3085  0.7466
 1990TIP3    H227462   1.543   3.858   4.947 -0.0367 -0.0644  0.3478
 1991TIP3   OH227463   2.410   4.194  12.506  0.3378 -0.1746  0.0425
 1991TIP3    H127464   2.435   4.166  12.418 -0.9255  0.8759 -0.6779
 1991TIP3    H227465   2.486   4.244  12.537  1.3903 -1.7829  0.1695
 1992TIP3   OH227466   2.262   3.794   0.288  0.3140 -0.4215  0.0520
 1992TIP3    H127467   2.179   3.839   0.277  0.2306 -0.8207 -1.0500
 1992TIP3    H227468   2.317   3.825   0.216  1.9277  1.5355  1.9976
 1993TIP3   OH227469   3.180   3.922  14.479 -0.4414 -0.3356  0.3377
 1993TIP3    H127470   3.179   4.012  14.513 -1.6342 -0.0035 -0.5150
 1993TIP3    H227471   3.093   3.889  14.499 -0.0095 -1.3215  0.6391
 1994TIP3   OH227472   4.736   0.659  13.712  0.3261 -0.1382 -0.3356
 1994TIP3    H127473   4.648   0.642  13.746  0.5962 -0.5704  0.1630
 1994TIP3    H227474   4.765   0.737  13.759 -0.1093  0.5157 -1.1178
 1995TIP3   OH227475   2.267   3.041   2.419  0.3785 -0.5411 -0.4367
 1995TIP3    H127476   2.178   3.048   2.387  0.2807  0.7214  0.0678
 1995TIP3    H227477   2.260   3.058   2.513  1.2653  0.5374 -0.5489
 1996TIP3   OH227478   5.915   5.438  14.373 -0.3787  0.3709 -0.8382
 1996TIP3    H127479   5.986   5.377  14.394 -0.1457  0.7902 -0.3965
 1996TIP3    H227480   5.837   5.397  14.412  0.1421  1.4257  1.4658
 1997TIP3   OH227481   1.386   0.544   3.855  0.0904  0.3480 -0.0721
 1997TIP3    H127482   1.413   0.605   3.923  1.9513  0.0598 -0.5039
 1997TIP3    H227483   1.436   0.570   3.777  0.7065 -1.4966 -0.3593
 1998TIP3   OH227484   3.090   4.018  16.755  0.3644 -0.9834 -0.5557
 1998TIP3    H127485   3.091   4.054  16.667 -0.5391 -0.9879 -0.5719
 1998TIP3    H227486   3.004   4.041  16.790  1.1510  0.1290  0.7896
 1999TIP3   OH227487   4.381   5.677   4.915 -0.2786 -0.2706 -0.0890
 1999TIP3    H127488   4.334   5.594   4.918  0.2787 -0.6619 -1.4877
 1999TIP3    H227489   4.473   5.653   4.901  0.1235  0.5387  0.9908
 2000TIP3   OH227490   1.627   0.098   4.584 -0.1861  0.0314 -0.0834
 2000TIP3    H127491   1.614   0.004   4.596  0.4977 -0.0799 -0.1924
 2000TIP3    H227492   1.561   0.139   4.641 -1.2234 -0.5054 -0.8648
 2001TIP3   OH227493   4.561   1.267  12.710  0.2124 -0.1511  0.1519
 2001TIP3    H127494   4.535   1.266  12.617  1.1304 -0.3873 -0.1103
 2001TIP3    H227495   4.605   1.352  12.721  1.1159 -0.6018  0.0779
 2002TIP3   OH227496   3.738   1.758   5.042  0.3982 -0.6563 -0.4364
 2002TIP3    H127497   3.732   1.667   5.011 -0.1416 -0.5437 -0.6637
 2002TIP3    H227498   3.781   1.805   4.970 -0.6477 -0.4413 -0.9372
 2003TIP3   OH227499   2.182   4.426   0.562 -0.2340  0.0640  0.0502
 2003TIP3    H127500   2.275   4.424   0.540  0.2877 -1.1580  2.1276
 2003TIP3    H227501   2.177   4.389   0.650 -2.8187 -0.9951 -0.4496
 2004TIP3   OH227502   0.669   2.732  13.166 -0.3417  0.2639 -0.2239
 2004TIP3    H127503   0.617   2.753  13.089  0.1820  1.0278 -0.3814
 2004TIP3    H227504   0.706   2.646  13.147  0.8336  0.9989 -1.4157
 2005TIP3   OH227505   5.960   5.219  16.727 -0.4844 -0.0331 -0.1434
 2005TIP3    H127506   5.934   5.162  16.654 -1.1060  0.7925 -0.5808
 2005TIP3    H227507   6.002   5.160  16.789 -2.5262 -1.2875  0.1395
 2006TIP3   OH227508   6.067   4.773   3.657  0.3375 -0.3447 -0.0565
 2006TIP3    H127509   6.049   4.831   3.583  0.0878  1.2868  1.2107
 2006TIP3    H227510   6.154   4.799   3.688  1.0309 -1.9458 -0.5847
 2007TIP3   OH227511   1.029   0.332   6.180 -0.3636  0.5166  0.4062
 2007TIP3    H127512   0.946   0.320   6.227 -0.0802  2.5740  1.5416
 2007TIP3    H227513   1.003   0.338   6.088 -1.3653  0.1712  0.6469
 2008TIP3   OH227514   5.853   1.616   0.698 -0.2656  0.1887  0.3442
 2008TIP3    H127515   5.786   1.552   0.720 -0.5747  0.4501  0.1791
 2008TIP3    H227516   5.839   1.689   0.759 -0.9865  0.8167 -0.5368
 2009TIP3   OH227517   4.426   6.804  13.084  0.3288 -0.4014  0.2687
 2009TIP3    H127518   4.333   6.783  13.091  0.4027 -0.4579  1.1436
 2009TIP3    H227519   4.463   6.784  13.170  0.4071  3.2395  1.2350
 2010TIP3   OH227520   0.931   2.248  14.279 -0.2080  0.1025 -0.2017
 2010TIP3    H127521   0.937   2.184  14.350  0.6863 -0.2869 -0.6197
 2010TIP3    H227522   0.947   2.332  14.322  0.5549 -0.1526  0.0226
 2011TIP3   OH227523   2.317   0.001   0.859 -0.2736  0.0017  0.2069
 2011TIP3    H127524   2.301   0.095   0.864 -1.7618 -0.2561  0.6322
 2011TIP3    H227525   2.241  -0.040   0.901  0.7672 -1.3780  0.8479
 2012TIP3   OH227526   3.914   3.118  15.887  0.0317  0.1170 -0.1499
 2012TIP3    H127527   3.925   3.143  15.979 -1.2550  1.7485 -0.4068
 2012TIP3    H227528   3.976   3.046  15.875 -0.1888 -0.5471  2.1435
 2013TIP3   OH227529   2.192   1.616   1.130 -0.4830 -0.9533  0.2617
 2013TIP3    H127530   2.137   1.553   1.084 -0.8887 -0.6778  0.3549
 2013TIP3    H227531   2.172   1.700   1.088  1.1274 -1.0839 -0.8375
 2014TIP3   OH227532   1.446   2.706  16.987  0.2776 -0.5677 -0.3973
 2014TIP3    H127533   1.395   2.773  17.034  0.5982 -0.7674  0.2482
 2014TIP3    H227534   1.533   2.709  17.028  0.5156 -0.8734 -0.8657
 2015TIP3   OH227535   0.731   5.985   5.314 -0.0931  0.1151  0.0348
 2015TIP3    H127536   0.703   6.037   5.389  1.2223  2.0291 -0.7333
 2015TIP3    H227537   0.664   6.000   5.248 -0.5132 -0.4367  0.3247
 2016TIP3   OH227538   3.828   5.352  12.498 -0.4091  0.0784 -0.1336
 2016TIP3    H127539   3.753   5.399  12.460  0.5904 -1.1316 -4.1523
 2016TIP3    H227540   3.813   5.260  12.474  1.3702 -0.4970  0.7624
 2017TIP3   OH227541   2.868   0.344   0.034  0.1384 -0.1393 -0.1783
 2017TIP3    H127542   2.928   0.415   0.054 -1.5527  1.2626  0.1821
 2017TIP3    H227543   2.924   0.274   0.001  1.7225  1.9084 -2.1252
 2018TIP3   OH227544   6.331   4.471   4.621  0.2863  0.3672  0.2194
 2018TIP3    H127545   6.315   4.564   4.632  0.4021  0.2872  1.2107
 2018TIP3    H227546   6.244   4.431   4.628 -0.1451  0.5525 -2.7093
 2019TIP3   OH227547   2.307   5.632   5.778  0.4019  0.2646 -0.0009
 2019TIP3    H127548   2.259   5.643   5.860  0.9278 -0.4672  0.4159
 2019TIP3    H227549   2.385   5.687   5.788 -0.0031  0.9327 -0.4110
 2020TIP3   OH227550   4.123   2.728   0.203  0.0139  0.9861 -0.1599
 2020TIP3    H127551   4.028   2.739   0.205  0.0423  1.4903 -1.2142
 2020TIP3    H227552   4.139   2.671   0.129  0.5888  1.5167 -0.4512
 2021TIP3   OH227553   1.508   4.135  15.760  0.2503 -0.7351  0.4270
 2021TIP3    H127554   1.561   4.195  15.812 -0.4963  0.9590 -0.7084
 2021TIP3    H227555   1.503   4.056  15.814  2.0113 -0.1427  1.5527
 2022TIP3   OH227556   2.017   3.404  14.762 -0.4348  0.5795  0.2883
 2022TIP3    H127557   1.934   3.360  14.741  0.5722 -1.8093  0.9150
 2022TIP3    H227558   2.084   3.337  14.747  1.2740  2.0283  1.0371
 2023TIP3   OH227559   2.736   0.799   3.788 -0.3900 -0.7297 -0.1733
 2023TIP3    H127560   2.666   0.855   3.820  0.0634 -0.1225 -0.2303
 2023TIP3    H227561   2.817   0.842   3.817 -0.0501 -1.8881  0.6760
 2024TIP3   OH227562   1.504   3.399  15.020 -0.3970  0.3069 -0.1067
 2024TIP3    H127563   1.421   3.353  15.033 -0.9453  1.0440 -0.9143
 2024TIP3    H227564   1.542   3.361  14.941 -0.6892  0.9772 -0.5849
 2025TIP3   OH227565   6.064   5.638   4.231  0.0543  0.1692 -0.1701
 2025TIP3    H127566   5.973   5.666   4.230  0.0111  0.0364 -1.3664
 2025TIP3    H227567   6.061   5.545   4.206  0.3537 -0.4378  1.8542
 2026TIP3   OH227568   6.538   6.563  17.032 -0.2014 -0.5000 -0.0610
 2026TIP3    H127569   6.511   6.590  16.944  1.9833 -0.6882 -0.8668
 2026TIP3    H227570   6.471   6.502  17.061 -0.5263 -1.1215 -1.9951
 2027TIP3   OH227571   6.191   4.715  11.973 -0.1331  0.1420  0.3025
 2027TIP3    H127572   6.209   4.790  11.918 -0.5157  0.0474  0.0457
 2027TIP3    H227573   6.198   4.748  12.063  0.4884  0.2932  0.2001
 2028TIP3   OH227574   6.768   1.421  13.192 -0.2245 -0.1909  0.0912
 2028TIP3    H127575   6.746   1.501  13.240 -1.3844  0.3108 -1.2077
 2028TIP3    H227576   6.687   1.372  13.188  0.1840 -0.8568 -0.2066
 2029TIP3   OH227577   6.823   5.707   0.887  0.8113  0.4858  0.2521
 2029TIP3    H127578   6.811   5.659   0.805  0.2599 -0.7363  1.0146
 2029TIP3    H227579   6.796   5.797   0.866  1.9179  0.5118 -1.2248
 2030TIP3   OH227580   3.741   6.563  12.591 -0.1086 -0.5319 -0.0240
 2030TIP3    H127581   3.834   6.571  12.568 -0.5886 -1.4110 -2.5160
 2030TIP3    H227582   3.740   6.498  12.662  1.2034 -0.0730  0.4505
 2031TIP3   OH227583   5.770   5.108  11.770 -0.0528 -0.0828 -0.1383
 2031TIP3    H127584   5.683   5.129  11.805  0.2634  0.7502  0.1685
 2031TIP3    H227585   5.821   5.083  11.847  0.5888  1.5540 -0.0087
 2032TIP3   OH227586   0.729   1.710   5.498  0.0788  0.0667 -0.3722
 2032TIP3    H127587   0.687   1.750   5.574  0.5769  2.1065 -1.1307
 2032TIP3    H227588   0.808   1.762   5.483  0.6225 -1.0464 -1.5692
 2033TIP3   OH227589   3.253   6.731  12.438  0.6567 -0.2456 -0.5349
 2033TIP3    H127590   3.340   6.695  12.420  0.0457 -0.7150 -2.8087
 2033TIP3    H227591   3.272   6.818  12.474  2.0752 -0.3797 -0.8646
 2034TIP3   OH227592   2.381   5.220  11.391  0.5268 -0.4166 -0.2830
 2034TIP3    H127593   2.429   5.295  11.356  2.3063 -0.8818  1.0115
 2034TIP3    H227594   2.329   5.255  11.463 -0.3437 -0.0876 -1.0479
 2035TIP3   OH227595   0.629   1.572  15.768 -0.0704 -0.6916  0.2866
 2035TIP3    H127596   0.595   1.631  15.701  0.8033 -0.3097  0.1651
 2035TIP3    H227597   0.580   1.491  15.756 -2.4903  0.4848  1.5185
 2036TIP3   OH227598   3.324   5.782   6.476  0.0507  0.1298 -0.2186
 2036TIP3    H127599   3.384   5.742   6.413 -1.2184 -1.4074 -0.5264
 2036TIP3    H227600   3.286   5.707   6.522 -0.9857  1.1098  0.5540
 2037TIP3   OH227601   4.589   2.136   0.646  0.0112 -0.2652 -0.0400
 2037TIP3    H127602   4.512   2.190   0.663 -0.3615 -0.7918 -0.0293
 2037TIP3    H227603   4.619   2.109   0.732 -0.8127 -1.4594 -0.1055
 2038TIP3   OH227604   1.703   2.100  12.931  0.0705  0.7198 -0.5590
 2038TIP3    H127605   1.668   2.175  12.979 -1.1745  0.0187 -0.3421
 2038TIP3    H227606   1.634   2.075  12.869  0.0711 -0.7991 -0.0041
 2039TIP3   OH227607   1.477   6.307   4.910  0.0950  0.0808 -0.3542
 2039TIP3    H127608   1.449   6.232   4.962 -0.6282 -0.0146 -0.8730
 2039TIP3    H227609   1.537   6.354   4.967  0.7124 -0.9932 -0.0866
 2040TIP3   OH227610   2.598   4.298  11.935  0.7342  0.0471 -0.1848
 2040TIP3    H127611   2.549   4.342  11.867  1.3962  0.8995 -0.1303
 2040TIP3    H227612   2.671   4.357  11.955  1.2313 -0.7340  0.4121
 2041TIP3   OH227613   0.298   2.196  11.263  0.2498  0.0558  0.1752
 2041TIP3    H127614   0.385   2.172  11.293  0.9715 -0.5540 -2.1885
 2041TIP3    H227615   0.313   2.266  11.199 -1.1809  1.3371  1.1739
 2042TIP3   OH227616   4.198   2.957  16.211 -0.1420 -0.1072  0.1676
 2042TIP3    H127617   4.224   2.941  16.301 -0.2524 -0.0133  0.2161
 2042TIP3    H227618   4.154   2.877  16.184 -2.0422  0.6309  0.9076
 2043TIP3   OH227619   2.762   5.628   4.077 -0.2461 -0.4673 -0.5249
 2043TIP3    H127620   2.817   5.702   4.099  3.1733 -2.4824 -1.5791
 2043TIP3    H227621   2.753   5.580   4.160  0.0514 -0.4121 -0.4595
 2044TIP3   OH227622   0.049   3.474  12.694 -0.1072 -0.6491 -0.4983
 2044TIP3    H127623   0.017   3.433  12.613 -0.4406 -1.6662  0.1279
 2044TIP3    H227624   0.143   3.455  12.695 -0.2655 -1.4826 -0.1900
 2045TIP3   OH227625   1.082   3.916   4.819  0.1296 -0.3450  0.5155
 2045TIP3    H127626   1.099   3.956   4.734 -2.4356 -1.3764 -0.5759
 2045TIP3    H227627   1.076   3.989   4.880  2.4789  0.3831 -0.0387
 2046TIP3   OH227628   6.029   6.288  15.429  0.0895  0.1597  0.0280
 2046TIP3    H127629   6.092   6.276  15.358  0.4848 -1.9475  0.6486
 2046TIP3    H227630   6.036   6.207  15.481 -2.2738  0.3602  0.7907
 2047TIP3   OH227631   3.037   6.473  15.433  0.0630  0.2920  0.2634
 2047TIP3    H127632   3.078   6.473  15.347  0.4700 -1.2426  0.4212
 2047TIP3    H227633   3.057   6.559  15.470  0.4146  0.7333 -0.9225
 2048TIP3   OH227634   0.090   6.581   5.545  0.4331  0.1687  0.2551
 2048TIP3    H127635   0.125   6.579   5.456  1.8172 -0.4256  0.7856
 2048TIP3    H227636   0.121   6.664   5.581  2.4588 -0.9125  1.1410
 2049TIP3   OH227637   2.168   4.946   1.621  0.0832 -0.3405  0.9503
 2049TIP3    H127638   2.133   5.033   1.639  0.4224 -0.0606  0.3020
 2049TIP3    H227639   2.248   4.941   1.674  0.1774 -0.1672  0.8288
 2050TIP3   OH227640   5.483   6.159  14.366  0.9833  0.0089 -0.3239
 2050TIP3    H127641   5.507   6.225  14.431  1.2340 -0.1620 -0.2429
 2050TIP3    H227642   5.433   6.208  14.300  0.8078  0.1991 -0.0519
 2051TIP3   OH227643   5.446   1.785  11.251 -0.4025  0.3167  0.4676
 2051TIP3    H127644   5.494   1.768  11.170 -2.7749 -1.1385 -0.7611
 2051TIP3    H227645   5.380   1.850  11.227  0.1782  1.4405  1.8089
 2052TIP3   OH227646   0.960   4.633   0.022  0.0136 -0.0018 -0.4039
 2052TIP3    H127647   0.867   4.610   0.032 -0.0160 -0.2578 -1.1799
 2052TIP3    H227648   0.959   4.721  -0.015  0.1055  0.5007  0.7543
 2053TIP3   OH227649   1.812   5.739  14.906 -0.0472  0.1461  0.7514
 2053TIP3    H127650   1.752   5.795  14.857 -0.5708 -1.0538 -0.0233
 2053TIP3    H227651   1.881   5.717  14.842 -0.2856 -0.7455  0.7915
 2054TIP3   OH227652   4.578   4.083   0.093 -0.8734  0.1376 -0.3605
 2054TIP3    H127653   4.580   4.156   0.032 -1.7080  0.1081 -0.4407
 2054TIP3    H227654   4.670   4.060   0.107 -0.6312  0.8612 -0.7373
 2055TIP3   OH227655   0.108   4.843   3.370  0.3100  0.1662 -0.2606
 2055TIP3    H127656   0.028   4.794   3.386  0.4119  0.2961  0.7220
 2055TIP3    H227657   0.177   4.789   3.408  0.9703 -0.8301 -2.6694
 2056TIP3   OH227658   1.862   3.486   2.635  0.8407  0.1662 -0.4121
 2056TIP3    H127659   1.803   3.483   2.560 -0.1409  0.5187  0.3222
 2056TIP3    H227660   1.821   3.430   2.700  1.5383  0.0829 -0.0314
 2057TIP3   OH227661   2.419   1.472  14.015  0.1072  0.4878  0.0199
 2057TIP3    H127662   2.339   1.509  14.051  0.1359  0.8783 -0.2992
 2057TIP3    H227663   2.464   1.547  13.975  0.2796  0.1502 -0.4370
 2058TIP3   OH227664   4.606   1.028  10.810 -0.0884  0.0331  0.2442
 2058TIP3    H127665   4.627   0.935  10.798  0.4634  0.1080  0.5570
 2058TIP3    H227666   4.688   1.073  10.790 -1.1501  0.7376 -3.1193
 2059TIP3   OH227667   0.686   0.484  14.562 -0.2048  0.2275 -0.0379
 2059TIP3    H127668   0.730   0.561  14.598  0.7585  0.0417 -0.8079
 2059TIP3    H227669   0.739   0.410  14.592 -0.7079 -0.0962  0.0723
 2060TIP3   OH227670   2.322   5.059   0.115  0.1617  0.1907 -0.3629
 2060TIP3    H127671   2.323   5.061   0.211 -0.1925 -1.4309 -0.2955
 2060TIP3    H227672   2.414   5.060   0.090  0.2570  1.4885 -0.0733
 2061TIP3   OH227673   4.317   2.497  10.651 -0.0806 -0.1650  0.1692
 2061TIP3    H127674   4.394   2.441  10.660  0.2475  0.3142  0.3788
 2061TIP3    H227675   4.315   2.520  10.558 -2.3434 -3.5147 -0.7874
 2062TIP3   OH227676   3.640   6.538   1.523 -0.3117  0.3502  0.4721
 2062TIP3    H127677   3.648   6.631   1.543  0.5405  0.9964 -2.3978
 2062TIP3    H227678   3.570   6.533   1.457  1.3717 -0.6429 -1.3434
 2063TIP3   OH227679   2.569   0.258   0.727  0.2883 -0.5951  0.1146
 2063TIP3    H127680   2.478   0.277   0.752  0.4033  0.5186 -0.2516
 2063TIP3    H227681   2.612   0.234   0.809 -0.5940 -2.2806  0.1188
 2064TIP3   OH227682   2.390   3.933   4.483  0.4091 -0.4739  0.2594
 2064TIP3    H127683   2.428   4.003   4.536  1.4921 -0.2089 -0.8429
 2064TIP3    H227684   2.438   3.854   4.508  0.2213 -0.5479  0.3961
 2065TIP3   OH227685   0.997   2.940   2.948  0.0262 -0.2713 -0.3470
 2065TIP3    H127686   0.947   2.933   2.867 -0.5383  1.9997 -0.2430
 2065TIP3    H227687   0.942   2.991   3.007  1.4038  0.1158  0.6611
 2066TIP3   OH227688   0.186   2.420  16.614  0.0902  0.0043 -0.5868
 2066TIP3    H127689   0.107   2.393  16.567 -0.2826  0.7807 -0.4132
 2066TIP3    H227690   0.154   2.464  16.693  0.6849 -3.1876  1.6141
 2067TIP3   OH227691   4.607   1.954   3.838  0.4970 -0.7684 -0.1899
 2067TIP3    H127692   4.582   2.011   3.764  2.3311 -0.2388 -0.4459
 2067TIP3    H227693   4.670   1.893   3.801  0.4238 -1.3619  0.6525
 2068TIP3   OH227694   1.065   2.665   0.356 -0.3348 -0.3279  0.6129
 2068TIP3    H127695   1.024   2.603   0.416 -0.8487  0.8695  1.5370
 2068TIP3    H227696   1.155   2.635   0.347 -0.5967 -1.2400  0.9734
 2069TIP3   OH227697   3.112   4.040  17.146 -0.3354 -0.1107 -0.0557
 2069TIP3    H127698   3.117   4.027  17.240  2.4891  2.6081  0.3265
 2069TIP3    H227699   3.054   4.116  17.135  0.4364  0.4446 -0.3651
 2070TIP3   OH227700   4.113   1.382  11.356  0.0482  0.2170 -0.0782
 2070TIP3    H127701   4.067   1.365  11.438  1.5907 -1.4081  0.5326
 2070TIP3    H227702   4.050   1.359  11.288 -0.0743 -2.1963  0.7364
 2071TIP3   OH227703   0.998   5.608  11.439 -0.2457 -0.4674 -0.1819
 2071TIP3    H127704   0.993   5.683  11.499 -1.3089  0.3018 -1.2036
 2071TIP3    H227705   0.940   5.542  11.477 -0.2895 -0.2902  0.0590
 2072TIP3   OH227706   5.942   6.619   4.122 -0.4958 -0.0246 -0.3776
 2072TIP3    H127707   5.911   6.669   4.197 -1.5899 -0.6718 -0.3836
 2072TIP3    H227708   5.915   6.529   4.140  0.8120 -0.5104 -0.6999
 2073TIP3   OH227709   4.443   4.466   4.585  0.6667 -0.4085 -0.2125
 2073TIP3    H127710   4.474   4.377   4.605 -1.2213 -1.0697  0.0180
 2073TIP3    H227711   4.367   4.452   4.528 -0.5211  0.9802  0.9626
 2074TIP3   OH227712   6.372   3.444   0.310 -0.0760 -0.4666 -0.0986
 2074TIP3    H127713   6.320   3.462   0.231  1.2123 -0.3771 -0.9700
 2074TIP3    H227714   6.403   3.530   0.338  1.7915 -0.7401 -1.1919
 2075TIP3   OH227715   1.983   6.231  12.209 -0.0736  0.7914  0.3761
 2075TIP3    H127716   1.915   6.288  12.173 -0.0107  1.6493  1.5808
 2075TIP3    H227717   2.059   6.287  12.220  0.6020  0.0180 -0.2089
 2076TIP3   OH227718   2.778   1.093  12.261 -0.1626  0.2711 -0.2665
 2076TIP3    H127719   2.741   1.162  12.207  0.8210  2.3931  1.6407
 2076TIP3    H227720   2.732   1.098  12.344  0.7842 -0.5403  0.3421
 2077TIP3   OH227721   2.897   1.745   6.438 -0.1217  0.6107 -0.2234
 2077TIP3    H127722   2.815   1.729   6.484  0.0410  2.7333  0.8834
 2077TIP3    H227723   2.878   1.818   6.380  0.5060 -0.1045 -1.3701
 2078TIP3   OH227724   2.019   3.375   5.956 -0.4407 -0.6132  0.7936
 2078TIP3    H127725   2.012   3.288   5.918  0.9853  0.5264 -2.4990
 2078TIP3    H227726   1.929   3.408   5.957 -0.7980 -1.5545  0.4799
 2079TIP3   OH227727   5.868   4.222  16.196 -0.0858  0.0204 -0.4665
 2079TIP3    H127728   5.901   4.154  16.137 -0.1134  1.6846 -2.4681
 2079TIP3    H227729   5.910   4.202  16.280  1.7530 -1.1102 -1.5832
 2080TIP3   OH227730   5.868   1.191  16.714 -0.3374  0.5616 -0.4332
 2080TIP3    H127731   5.856   1.208  16.621 -0.4897 -0.2732 -0.5711
 2080TIP3    H227732   5.924   1.263  16.745 -2.6606  2.5106 -0.5255
 2081TIP3   OH227733   0.785   4.923  15.403  0.1687 -0.0542  1.1636
 2081TIP3    H127734   0.765   4.871  15.481  0.8962 -1.2460  0.6003
 2081TIP3    H227735   0.760   4.866  15.330  1.7020  0.0416  0.5215
 2082TIP3   OH227736   4.234   6.767  14.146 -0.1254  0.6317  0.0531
 2082TIP3    H127737   4.283   6.715  14.209 -1.4754  0.1104  0.7224
 2082TIP3    H227738   4.295   6.781  14.073  1.0536  0.1956  0.9296
 2083TIP3   OH227739   0.299   6.080  14.849  0.3354  0.2201 -0.0195
 2083TIP3    H127740   0.320   6.020  14.920  0.8917 -0.1893 -0.5295
 2083TIP3    H227741   0.204   6.071  14.837  0.2474  0.2536  0.6303
 2084TIP3   OH227742   1.341   1.022  12.675 -0.1000  0.0990  0.0934
 2084TIP3    H127743   1.321   1.005  12.767  1.2531 -0.8404  0.2488
 2084TIP3    H227744   1.373   1.112  12.673 -1.6171  0.6800  0.2557
 2085TIP3   OH227745   3.528   6.770   0.225 -0.3378 -0.2717 -0.4084
 2085TIP3    H127746   3.591   6.704   0.253 -0.2460  0.1847  0.5050
 2085TIP3    H227747   3.446   6.744   0.269 -0.3586  0.0920 -0.2340
 2086TIP3   OH227748   1.781   4.837  11.305 -0.1113 -0.2043 -0.1528
 2086TIP3    H127749   1.711   4.773  11.291 -2.5774  2.1066  0.8529
 2086TIP3    H227750   1.860   4.792  11.275 -1.5110 -3.9986  1.2003
 2087TIP3   OH227751   2.521   5.685   3.957  0.2854 -0.0705  0.0259
 2087TIP3    H127752   2.564   5.747   3.897  0.3354  1.7413  1.8069
 2087TIP3    H227753   2.591   5.656   4.015 -0.2607  0.4634  0.9812
 2088TIP3   OH227754   4.385   2.888  16.887  0.0797 -0.3027 -1.0324
 2088TIP3    H127755   4.421   2.974  16.866 -1.0502  0.3036 -0.5874
 2088TIP3    H227756   4.459   2.839  16.921  0.1104  1.6677  2.1506
 2089TIP3   OH227757   4.654   5.263  14.238  0.0410  0.0361  0.9156
 2089TIP3    H127758   4.745   5.291  14.228  0.2911 -1.1406 -0.5390
 2089TIP3    H227759   4.657   5.168  14.229 -1.5621  0.1190 -1.6585
 2090TIP3   OH227760   2.707   5.741  14.196  0.2762  0.6022  0.6868
 2090TIP3    H127761   2.692   5.814  14.255  0.9005  0.6662  0.7772
 2090TIP3    H227762   2.740   5.782  14.116 -1.2353  0.5792  0.0217
 2091TIP3   OH227763   2.781   4.807   5.608 -0.4235  0.2636 -0.3722
 2091TIP3    H127764   2.764   4.790   5.701 -1.5822 -0.8138 -0.7490
 2091TIP3    H227765   2.704   4.773   5.563  0.6593 -0.3925 -1.8242
 2092TIP3   OH227766   3.216   2.537  13.424  0.5437  0.0066 -0.8397
 2092TIP3    H127767   3.191   2.487  13.502  0.8665  0.5431 -0.3867
 2092TIP3    H227768   3.133   2.558  13.381  0.3547 -0.1480 -0.5497
 2093TIP3   OH227769   2.260   0.296  16.863  0.0152 -0.3311  0.1970
 2093TIP3    H127770   2.288   0.359  16.930 -0.1469 -0.3081  0.2413
 2093TIP3    H227771   2.182   0.255  16.899  0.4781 -1.0072  0.4368
 2094TIP3   OH227772   3.290   1.270   5.897 -0.1867  0.2994  0.3960
 2094TIP3    H127773   3.241   1.338   5.851 -0.4843  0.6610  1.2326
 2094TIP3    H227774   3.360   1.317   5.943 -0.1739  0.0037  0.6888
 2095TIP3   OH227775   5.376   4.275  15.010  0.5630 -0.4866 -0.2032
 2095TIP3    H127776   5.360   4.338  14.940  0.9753 -1.5133 -1.2643
 2095TIP3    H227777   5.397   4.329  15.087 -0.6643  0.6805 -0.6530
 2096TIP3   OH227778   6.656   3.102  12.354  0.1033 -0.4154  0.2037
 2096TIP3    H127779   6.641   3.036  12.421 -0.7852 -0.0448  0.3884
 2096TIP3    H227780   6.726   3.067  12.300  0.8042 -0.7293  1.3080
 2097TIP3   OH227781   1.292   1.278  10.628 -0.1269 -0.1216  0.0004
 2097TIP3    H127782   1.359   1.345  10.615 -0.5191  0.5851  1.4011
 2097TIP3    H227783   1.339   1.195  10.624  0.7730  0.3523  0.6315
 2098TIP3   OH227784   6.399   6.259  14.637 -0.4791 -0.3458  0.0657
 2098TIP3    H127785   6.308   6.274  14.664 -0.8099 -2.0667 -0.0023
 2098TIP3    H227786   6.447   6.248  14.719 -0.5763 -0.7132  0.0740
 2099TIP3   OH227787   2.154   5.353   4.814 -0.0830 -0.2081  0.1814
 2099TIP3    H127788   2.078   5.397   4.775 -0.9752 -0.0981  1.9488
 2099TIP3    H227789   2.139   5.260   4.796 -1.0988 -0.2676  1.2365
 2100TIP3   OH227790   5.310   6.757   4.348 -0.2796  0.4273  0.0641
 2100TIP3    H127791   5.344   6.823   4.408 -4.3005  2.9279 -0.0088
 2100TIP3    H227792   5.265   6.694   4.404  1.2764 -0.8471 -0.0508
 2101TIP3   OH227793   3.283   0.743   2.180 -0.1478 -0.0461  0.4232
 2101TIP3    H127794   3.375   0.762   2.163  0.0460  0.0138  1.4864
 2101TIP3    H227795   3.241   0.829   2.186 -0.7789 -0.0335 -2.4037
 2102TIP3   OH227796   5.518   4.625   0.003  0.0202  0.3064  0.3605
 2102TIP3    H127797   5.523   4.720   0.004  0.3023  0.2955  0.3270
 2102TIP3    H227798   5.610   4.597   0.001 -0.0012  0.0872 -2.8651
 2103TIP3   OH227799   5.596   0.074   0.345  0.8977 -0.5964 -0.0050
 2103TIP3    H127800   5.559   0.163   0.351  1.1917 -0.5229  0.8371
 2103TIP3    H227801   5.527   0.017   0.380  1.1519 -0.5713  0.5511
 2104TIP3   OH227802   0.583   4.226   6.376  0.0327 -0.1066  0.0508
 2104TIP3    H127803   0.657   4.280   6.347 -1.7725  1.9303 -1.1190
 2104TIP3    H227804   0.551   4.269   6.455 -1.2755  0.5090 -0.7559
 2105TIP3   OH227805   3.200   0.223   4.995  0.2872 -0.2430 -0.0651
 2105TIP3    H127806   3.112   0.200   5.024  0.2688 -0.5051 -0.3227
 2105TIP3    H227807   3.245   0.252   5.075  0.4730 -1.6785  0.3859
 2106TIP3   OH227808   1.753   2.341  13.280 -0.2111  0.5022  0.1760
 2106TIP3    H127809   1.724   2.412  13.223 -0.8968  0.2445  0.1952
 2106TIP3    H227810   1.672   2.308  13.320 -0.0183 -0.9311 -0.5706
 2107TIP3   OH227811   6.491   4.581   1.350 -0.2004  0.0452 -0.0119
 2107TIP3    H127812   6.435   4.504   1.360 -1.2999  0.8948  0.5816
 2107TIP3    H227813   6.494   4.621   1.437  2.2830 -0.5765  0.2698
 2108TIP3   OH227814   4.546   6.452  11.484  0.1692  0.0361  0.3452
 2108TIP3    H127815   4.611   6.387  11.457 -1.3284 -1.5411  0.3719
 2108TIP3    H227816   4.540   6.511  11.409 -0.8594 -1.8397 -1.1569
 2109TIP3   OH227817   6.594   4.448   4.084  0.1825 -0.6025  0.1518
 2109TIP3    H127818   6.511   4.490   4.107  0.4178 -0.2402  0.3522
 2109TIP3    H227819   6.644   4.446   4.166 -0.7830 -3.5867  0.7893
 2110TIP3   OH227820   5.790   2.579   4.264  1.1709  0.2809 -0.2669
 2110TIP3    H127821   5.773   2.672   4.275  0.6293  0.1120  0.3902
 2110TIP3    H227822   5.781   2.542   4.352 -1.2884 -0.7978 -0.8645
 2111TIP3   OH227823   4.425   5.641  14.482 -0.6985  0.0583 -0.5923
 2111TIP3    H127824   4.373   5.716  14.511  1.9915  1.6843  0.3767
 2111TIP3    H227825   4.369   5.565  14.499 -1.6100  1.3936  3.4151
 2112TIP3   OH227826   1.966   2.697   3.897 -0.4641  0.4074  0.0725
 2112TIP3    H127827   2.026   2.659   3.833 -1.1151 -0.8033  0.1649
 2112TIP3    H227828   2.022   2.718   3.972 -0.0411 -0.1024 -0.0893
 2113TIP3   OH227829   1.734   5.104  12.267  0.4233 -0.1640  0.4287
 2113TIP3    H127830   1.807   5.146  12.222  0.5093 -1.3662 -0.6314
 2113TIP3    H227831   1.676   5.075  12.196 -1.1132  0.7961  1.2531
 2114TIP3   OH227832   5.165   0.806   4.826  0.7514 -0.1366 -0.1174
 2114TIP3    H127833   5.234   0.747   4.798  0.3063 -1.3353  1.2240
 2114TIP3    H227834   5.134   0.771   4.909 -0.7206  0.9946 -0.1293
 2115TIP3   OH227835   0.531   5.741  15.561  0.0617 -0.1147 -0.5492
 2115TIP3    H127836   0.538   5.815  15.501 -2.0145 -0.0877 -0.8212
 2115TIP3    H227837   0.546   5.664  15.507  1.1135  0.0372 -0.4886
 2116TIP3   OH227838   5.838   4.290  12.163 -0.1726  0.2425  0.0512
 2116TIP3    H127839   5.905   4.289  12.094 -0.8364  1.9837 -0.6764
 2116TIP3    H227840   5.802   4.379  12.161 -0.9729  0.0154  1.9340
 2117TIP3   OH227841   1.650   1.968  15.167 -0.2413 -0.5178  0.7190
 2117TIP3    H127842   1.736   1.994  15.199 -0.0012  1.0575 -1.0426
 2117TIP3    H227843   1.588   2.024  15.214  0.0206  0.9615 -0.6165
 2118TIP3   OH227844   0.340   6.280   0.256  0.1117  0.2699  0.1375
 2118TIP3    H127845   0.397   6.214   0.216  3.3490  3.0778 -0.2671
 2118TIP3    H227846   0.332   6.252   0.347  0.8921 -1.0054 -0.1580
 2119TIP3   OH227847   1.635   0.402   6.576  0.3568 -0.1850 -0.5875
 2119TIP3    H127848   1.559   0.398   6.518 -0.2939 -1.8591  0.2983
 2119TIP3    H227849   1.672   0.489   6.561 -1.2151  0.3513 -1.6848
 2120TIP3   OH227850   2.544   0.082  13.528 -0.0552  0.5169 -0.5588
 2120TIP3    H127851   2.452   0.059  13.515 -0.4690  1.0109  1.1950
 2120TIP3    H227852   2.548   0.176  13.510  0.0512  0.5421 -0.4056
 2121TIP3   OH227853   3.240   4.318   0.903 -0.0075 -0.1376  0.0364
 2121TIP3    H127854   3.163   4.262   0.893  0.2854 -0.1915 -2.6490
 2121TIP3    H227855   3.244   4.368   0.822  2.7221 -0.0575  0.1131
 2122TIP3   OH227856   4.644   1.580   6.514 -0.4381  0.6937  0.6138
 2122TIP3    H127857   4.680   1.668   6.501 -0.5764  0.5682 -0.7497
 2122TIP3    H227858   4.560   1.595   6.557  0.5060  1.0757  2.4174
 2123TIP3   OH227859   3.610   2.929  10.601 -0.1893  0.0960 -0.5898
 2123TIP3    H127860   3.569   3.010  10.569 -1.7358 -0.0787  0.8125
 2123TIP3    H227861   3.644   2.887  10.523  0.4955  2.0128 -1.3826
 2124TIP3   OH227862   5.928   1.604  15.504 -0.0803 -0.1506  0.6117
 2124TIP3    H127863   5.991   1.676  15.499  0.2116 -0.4619 -0.3066
 2124TIP3    H227864   5.892   1.610  15.593  1.5454 -0.2244  1.3080
 2125TIP3   OH227865   3.916   6.344   1.033  0.3122 -0.8292  0.3805
 2125TIP3    H127866   3.990   6.289   1.059  2.4269  1.3078 -0.7733
 2125TIP3    H227867   3.876   6.371   1.116  1.5498 -1.1222  1.1033
 2126TIP3   OH227868   3.663   2.786  14.034 -0.5572  0.0795  0.1134
 2126TIP3    H127869   3.654   2.708  13.979  0.1843 -0.4076  0.6714
 2126TIP3    H227870   3.578   2.831  14.027 -1.4107 -1.3823  0.6991
 2127TIP3   OH227871   6.241   5.641  16.724  0.3313  0.1016 -0.9000
 2127TIP3    H127872   6.315   5.652  16.665  0.9490 -2.3321 -0.7036
 2127TIP3    H227873   6.177   5.591  16.673  0.5301 -1.3081  0.1787
 2128TIP3   OH227874   5.651   4.794   1.664  0.5312  0.0840 -0.0547
 2128TIP3    H127875   5.724   4.836   1.710  1.1793  0.1177 -1.0714
 2128TIP3    H227876   5.576   4.850   1.682  1.1402  1.0482 -0.4272
 2129TIP3   OH227877   0.819   1.920   4.515  0.7182  0.3748  0.5555
 2129TIP3    H127878   0.865   1.947   4.594  0.8173  3.2654 -0.3934
 2129TIP3    H227879   0.886   1.918   4.447  0.0574  1.2597 -0.1398
 2130TIP3   OH227880   5.770   3.808   2.577 -0.1818 -0.3136  0.1833
 2130TIP3    H127881   5.794   3.890   2.621  2.4059  0.0334 -1.6826
 2130TIP3    H227882   5.767   3.743   2.648 -1.7047  1.2153  1.6062
 2131TIP3   OH227883   2.919   6.779   4.736 -0.6382  0.1928 -0.3651
 2131TIP3    H127884   2.995   6.721   4.724  0.1248  1.0241  0.3248
 2131TIP3    H227885   2.956   6.867   4.741 -1.5679  0.5468  0.7623
 2132TIP3   OH227886   2.536   4.972  15.571 -0.8657 -0.4388  0.2011
 2132TIP3    H127887   2.603   5.019  15.621 -1.0975 -1.3053  1.3637
 2132TIP3    H227888   2.494   5.040  15.518  0.8510  0.1442 -0.5051
 2133TIP3   OH227889   4.860   1.340  17.169 -0.3512 -0.3593  0.1037
 2133TIP3    H127890   4.857   1.302  17.256 -1.7866  0.7423  0.5772
 2133TIP3    H227891   4.892   1.429  17.182 -0.6326 -0.1647 -0.4709
 2134TIP3   OH227892   1.893   1.111  14.460  0.1577  0.7052 -0.6052
 2134TIP3    H127893   1.958   1.136  14.526  0.0087  0.3002 -0.3019
 2134TIP3    H227894   1.825   1.065  14.509  1.0387 -1.4766 -1.2844
 2135TIP3   OH227895   0.167   1.435   1.305  0.0255  0.2796  0.1350
 2135TIP3    H127896   0.256   1.403   1.318  0.6417  1.7610 -0.2561
 2135TIP3    H227897   0.159   1.447   1.210  0.3689  2.7249  0.3749
 2136TIP3   OH227898   5.540   0.352  11.229  0.0123  0.4808 -0.1701
 2136TIP3    H127899   5.617   0.363  11.174  1.8982 -1.1104  1.9591
 2136TIP3    H227900   5.475   0.311  11.172  1.6477 -0.4823 -1.4164
 2137TIP3   OH227901   2.445   5.254  13.056 -0.0418  0.1655  0.0287
 2137TIP3    H127902   2.487   5.320  13.000 -0.2924 -0.1483 -0.5412
 2137TIP3    H227903   2.361   5.237  13.015  0.1425 -0.7319 -0.0188
 2138TIP3   OH227904   6.597   6.585   0.231  0.3078  0.0764  0.4337
 2138TIP3    H127905   6.632   6.645   0.166 -1.5045  0.3157 -0.3985
 2138TIP3    H227906   6.618   6.625   0.315 -1.0264  2.0532 -0.0914
 2139TIP3   OH227907   1.564   4.352   4.224  0.6697  0.2072 -0.6402
 2139TIP3    H127908   1.491   4.414   4.222  1.7866  1.5780 -0.3603
 2139TIP3    H227909   1.604   4.365   4.309  0.5058 -1.4631 -0.2638
 2140TIP3   OH227910   1.610   2.430  11.822  0.6992 -0.4210  1.0682
 2140TIP3    H127911   1.629   2.523  11.831 -0.1047  0.0222 -1.1422
 2140TIP3    H227912   1.692   2.386  11.844  2.1332  1.0148 -0.9979
 2141TIP3   OH227913   1.221   2.429  13.084 -0.1586  0.1064 -0.0044
 2141TIP3    H127914   1.166   2.394  13.154  0.4478  0.1963  0.5312
 2141TIP3    H227915   1.297   2.467  13.130  0.5302 -0.3442 -0.7416
 2142TIP3   OH227916   2.835   3.341  13.230 -0.1509 -0.0362  0.2644
 2142TIP3    H127917   2.757   3.392  13.213  0.7377  1.0071 -0.8824
 2142TIP3    H227918   2.850   3.349  13.325  0.4826  2.6880  0.0253
 2143TIP3   OH227919   5.699   2.915   6.558  1.0714 -0.4998 -0.0688
 2143TIP3    H127920   5.737   2.846   6.612 -0.0099 -1.4731 -0.5221
 2143TIP3    H227921   5.625   2.873   6.514  0.5798  0.8677 -0.5864
 2144TIP3   OH227922   1.854   0.986  11.881  0.2234 -0.0386 -0.0624
 2144TIP3    H127923   1.878   0.903  11.841 -2.1615 -0.2319 -1.2914
 2144TIP3    H227924   1.912   1.050  11.840 -1.7071 -0.3121 -3.6195
 2145TIP3   OH227925   6.582   4.401  16.006  0.2316 -0.3854  0.2505
 2145TIP3    H127926   6.576   4.423  15.913  0.6888 -3.1807 -0.5186
 2145TIP3    H227927   6.669   4.430  16.032  0.7503 -1.0696 -0.6602
 2146TIP3   OH227928   2.016   3.937   0.286  0.1080  0.3336  0.5894
 2146TIP3    H127929   1.960   3.861   0.270  0.1257  0.1866  1.1791
 2146TIP3    H227930   1.965   4.012   0.255 -0.0226  0.1047  0.2538
 2147TIP3   OH227931   0.286   1.940  11.042 -0.3221 -0.4021 -0.3921
 2147TIP3    H127932   0.244   1.982  10.967  0.3742 -0.6509 -0.9307
 2147TIP3    H227933   0.299   2.011  11.105 -0.5523 -0.1120 -0.6700
 2148TIP3   OH227934   1.936   3.942   1.181 -0.3969  0.0438  0.1842
 2148TIP3    H127935   1.863   4.001   1.197 -0.8570 -0.4341 -0.1434
 2148TIP3    H227936   1.916   3.864   1.232  0.1089  0.0791  0.4520
 2149TIP3   OH227937   6.749   1.199   3.967 -0.4109  0.0317 -0.2094
 2149TIP3    H127938   6.796   1.123   3.932  0.3375  0.4958 -0.2382
 2149TIP3    H227939   6.662   1.165   3.990 -0.5172 -0.5494 -1.4047
 2150TIP3   OH227940   4.553   3.979   6.298 -0.3203  0.5404  0.3651
 2150TIP3    H127941   4.521   3.905   6.246 -2.3860  0.3284  1.8034
 2150TIP3    H227942   4.612   3.939   6.362 -0.4581  0.3240  0.3578
 2151TIP3   OH227943   1.546   3.765   2.373  0.1022 -0.2840  0.3322
 2151TIP3    H127944   1.538   3.670   2.370  0.8516 -0.3886  1.2858
 2151TIP3    H227945   1.458   3.796   2.391 -0.0231 -0.8281  0.6751
 2152TIP3   OH227946   1.540   5.579  11.631  0.4614 -0.2041 -0.2192
 2152TIP3    H127947   1.634   5.582  11.653  1.0159 -3.1258 -1.6665
 2152TIP3    H227948   1.505   5.511  11.688 -0.3418 -0.4748 -1.0206
 2153TIP3   OH227949   1.147   2.969  12.758  0.4480  0.0988 -0.0732
 2153TIP3    H127950   1.104   2.985  12.674 -1.5741 -0.5103  0.7830
 2153TIP3    H227951   1.168   3.057  12.790  1.5263  0.3224 -1.3325
 2154TIP3   OH227952   0.308   2.235   4.415  0.3579  0.0018  0.0013
 2154TIP3    H127953   0.278   2.152   4.377  0.0082 -0.5729  1.4456
 2154TIP3    H227954   0.387   2.257   4.366 -0.2447 -0.5215 -1.2529
 2155TIP3   OH227955   0.689   3.989  12.403 -0.0975 -0.4946 -0.5769
 2155TIP3    H127956   0.690   4.007  12.309 -1.4141 -0.2914 -0.5713
 2155TIP3    H227957   0.614   3.931  12.415  0.2155 -0.7262  0.3161
 2156TIP3   OH227958   2.131   4.075  12.650  0.4110  0.3844  0.3012
 2156TIP3    H127959   2.220   4.042  12.661  1.0318  1.1245 -2.0614
 2156TIP3    H227960   2.091   4.017  12.585 -0.5575  0.5817  0.6994
 2157TIP3   OH227961   1.889   4.339   4.517 -0.1493  0.5519  0.2589
 2157TIP3    H127962   1.977   4.359   4.485 -0.7280  1.8373 -0.5896
 2157TIP3    H227963   1.894   4.352   4.612  1.1904 -1.7985  0.5880
 2158TIP3   OH227964   5.819   6.059   2.083  0.2527  0.1488 -0.7292
 2158TIP3    H127965   5.811   6.075   1.989  0.6436 -2.2444 -1.2375
 2158TIP3    H227966   5.729   6.059   2.115  0.1998  2.6862 -0.7238
 2159TIP3   OH227967   0.889   1.453  12.304  0.5162 -0.8065  0.2851
 2159TIP3    H127968   0.967   1.499  12.335  0.7955 -1.4772  0.6026
 2159TIP3    H227969   0.845   1.423  12.384  0.2221 -0.9020  0.0899
 2160TIP3   OH227970   6.743   5.048   3.046  0.2057  0.3638 -0.0274
 2160TIP3    H127971   6.706   5.021   2.962 -0.6662  1.7639 -0.1277
 2160TIP3    H227972   6.678   5.020   3.110  0.6737 -0.3296  0.1517
 2161TIP3   OH227973   1.223   6.390  15.913 -0.0626 -1.2275 -0.1919
 2161TIP3    H127974   1.234   6.346  15.829  0.7506  0.6901 -1.1507
 2161TIP3    H227975   1.263   6.330  15.977  1.9239 -1.4604 -1.5716
 2162TIP3   OH227976   1.716   0.679  15.019 -0.1192 -0.7518  0.0165
 2162TIP3    H127977   1.755   0.628  15.090 -1.0517 -1.7023 -0.1204
 2162TIP3    H227978   1.668   0.749  15.064 -0.5287 -1.2214  0.3268
 2163TIP3   OH227979   0.869   1.954   4.053  0.3029 -0.2617  0.0081
 2163TIP3    H127980   0.860   1.866   4.089  0.9778 -0.4032 -0.1476
 2163TIP3    H227981   0.819   1.953   3.972 -0.1969 -0.3151  0.3167
 2164TIP3   OH227982   6.351   6.772   4.390 -0.0553  0.5039  0.8394
 2164TIP3    H127983   6.369   6.859   4.356 -0.7934  0.6526  0.8219
 2164TIP3    H227984   6.292   6.732   4.327  0.4114 -0.0840  0.7547
 2165TIP3   OH227985   1.283   5.541  14.092 -0.4625  0.3597  0.8903
 2165TIP3    H127986   1.263   5.467  14.034  0.3086 -0.3840  1.5687
 2165TIP3    H227987   1.347   5.507  14.154  0.7671  1.9042  0.5241
 2166TIP3   OH227988   2.934   6.237   4.400  0.2690  0.1837 -0.1425
 2166TIP3    H127989   2.902   6.258   4.488  0.7912  3.4350 -0.6058
 2166TIP3    H227990   2.861   6.191   4.358 -1.2837  1.5912  0.9230
 2167TIP3   OH227991   4.452   5.993  13.277  0.1060  0.1676 -0.1691
 2167TIP3    H127992   4.435   5.900  13.288 -0.9127  0.3386 -0.2325
 2167TIP3    H227993   4.416   6.014  13.191  0.4320  0.6003 -0.2032
 2168TIP3   OH227994   2.502   0.898   2.611 -0.2765 -0.3495 -0.1803
 2168TIP3    H127995   2.408   0.883   2.610 -0.6131  1.4407  1.0181
 2168TIP3    H227996   2.524   0.919   2.520 -1.4078  1.1814 -0.1353
 2169TIP3   OH227997   5.081   3.596  16.822 -1.0063  0.2361  0.1747
 2169TIP3    H127998   5.175   3.597  16.805 -0.5453  0.1608  2.4559
 2169TIP3    H227999   5.041   3.607  16.736  1.0918  1.4556 -0.7158
 2170TIP3   OH228000   0.611   5.320   5.671 -0.3378  0.0363 -0.5608
 2170TIP3    H128001   0.615   5.392   5.608 -0.3892 -0.4964 -1.1717
 2170TIP3    H228002   0.700   5.287   5.675 -0.5537 -0.6427 -1.1900
 2171TIP3   OH228003   4.825   3.315  16.203 -0.2373  0.2408  0.3648
 2171TIP3    H128004   4.758   3.258  16.165 -0.4117  1.1565 -0.7333
 2171TIP3    H228005   4.908   3.273  16.181 -0.3828  0.1490 -0.0065
 2172TIP3   OH228006   3.704   6.011   0.965  0.3609 -0.0881  0.0168
 2172TIP3    H128007   3.661   5.978   0.887 -1.8302  1.2246  0.5939
 2172TIP3    H228008   3.653   5.976   1.038  0.8447  0.7313  0.7751
 2173TIP3   OH228009   1.402   1.628  14.569  0.1667  0.4506  0.0027
 2173TIP3    H128010   1.347   1.552  14.549 -0.0130  0.4224  0.5843
 2173TIP3    H228011   1.481   1.591  14.608  0.2640  0.5325 -0.1195
 2174TIP3   OH228012   3.306   2.926  13.464  0.0108  0.0744  0.1560
 2174TIP3    H128013   3.232   2.986  13.473 -0.8841 -1.2346  2.3603
 2174TIP3    H228014   3.361   2.966  13.397 -1.4391  2.3870  0.2272
 2175TIP3   OH228015   5.593   5.926   1.912 -0.2449 -0.3182  0.8618
 2175TIP3    H128016   5.576   5.886   1.998 -2.0192 -1.0820  0.1963
 2175TIP3    H228017   5.507   5.940   1.874  0.4978 -1.1812 -1.3273
 2176TIP3   OH228018   6.296   0.119   3.682 -0.8507  0.0100  0.0271
 2176TIP3    H128019   6.377   0.091   3.641  0.8109  2.9642  1.0135
 2176TIP3    H228020   6.236   0.046   3.668  1.6440 -1.9065 -1.5784
 2177TIP3   OH228021   0.795   1.426   6.191 -0.2317 -0.7216  0.0003
 2177TIP3    H128022   0.758   1.367   6.125 -0.3627 -0.1933 -0.4089
 2177TIP3    H228023   0.731   1.426   6.262 -1.2388  0.4628 -0.8580
 2178TIP3   OH228024   4.612   1.380  16.046  0.1302 -0.2363  0.2700
 2178TIP3    H128025   4.532   1.335  16.020 -0.5537  1.2854 -0.4226
 2178TIP3    H228026   4.650   1.411  15.964  0.7498  0.1370  0.6872
 2179TIP3   OH228027   0.140   4.093   5.663  0.0753 -0.2191 -0.4164
 2179TIP3    H128028   0.126   4.172   5.610 -2.0272 -0.6911 -0.6240
 2179TIP3    H228029   0.069   4.093   5.726 -0.0727 -2.0445 -0.5371
 2180TIP3   OH228030   3.385   5.632   0.559 -0.4323 -0.0487  0.0494
 2180TIP3    H128031   3.471   5.632   0.601 -0.3619  0.6349 -0.0729
 2180TIP3    H228032   3.348   5.546   0.578 -0.0177 -0.0847  0.7183
 2181TIP3   OH228033   0.433   3.847  12.470 -0.4077 -0.3831  0.4000
 2181TIP3    H128034   0.384   3.880  12.394  0.2914 -0.2547 -0.0018
 2181TIP3    H228035   0.365   3.814  12.529 -1.0550  0.8069  0.3533
 2182TIP3   OH228036   5.065   4.182  11.031  0.0946  0.4448 -0.1431
 2182TIP3    H128037   5.141   4.203  10.977 -0.1830  1.7505 -0.0615
 2182TIP3    H228038   5.020   4.266  11.042 -1.8295 -0.4223 -0.9006
 2183TIP3   OH228039   2.684   5.143  13.979  0.1456  1.2072  0.0916
 2183TIP3    H128040   2.616   5.075  13.974  0.1369  0.9928  2.1680
 2183TIP3    H228041   2.753   5.111  13.922 -0.3497  0.0128  0.1207
 2184TIP3   OH228042   4.386   3.665   2.306  0.0674  0.2197 -0.0861
 2184TIP3    H128043   4.321   3.717   2.353 -1.6105 -0.0222 -2.0420
 2184TIP3    H228044   4.436   3.728   2.255  0.1521  0.2148 -0.0106
 2185TIP3   OH228045   5.134   2.975  14.136 -0.5907  0.1035  0.6462
 2185TIP3    H128046   5.049   2.985  14.092 -0.6692 -0.1515  0.7351
 2185TIP3    H228047   5.192   2.944  14.067 -1.2262 -2.4779  1.1505
 2186TIP3   OH228048   6.589   0.811  12.633 -0.3111  0.2404  0.0312
 2186TIP3    H128049   6.610   0.741  12.695 -1.3145  0.0908  0.2115
 2186TIP3    H228050   6.553   0.766  12.557 -1.3342  0.5763  0.3063
 2187TIP3   OH228051   0.284   6.473   1.899  0.1565 -0.3390  0.1386
 2187TIP3    H128052   0.324   6.559   1.909  3.2522 -1.3022 -2.4330
 2187TIP3    H228053   0.331   6.416   1.960 -0.6792 -0.5902  0.5732
 2188TIP3   OH228054   3.838   5.131   1.020 -0.2571  0.3285 -0.1569
 2188TIP3    H128055   3.877   5.182   1.091  1.0348 -1.0256  0.1468
 2188TIP3    H228056   3.748   5.115   1.048 -0.2391  1.1738  0.4079
 2189TIP3   OH228057   5.211   5.171  13.966 -0.4149 -0.7200 -0.2439
 2189TIP3    H128058   5.183   5.227  13.894  0.2459  0.5827  0.4874
 2189TIP3    H228059   5.263   5.103  13.924 -0.0746 -0.0057 -1.0041
 2190TIP3   OH228060   3.675   3.718   0.836  0.2616  0.6235  0.8952
 2190TIP3    H128061   3.621   3.639   0.845  0.4207  0.5049  0.8139
 2190TIP3    H228062   3.763   3.685   0.819 -0.1193  0.8211 -1.8927
 2191TIP3   OH228063   5.266   2.134  13.501 -0.1747  0.1360  0.3159
 2191TIP3    H128064   5.223   2.117  13.585  1.5762  0.2866  1.2966
 2191TIP3    H228065   5.331   2.201  13.521  0.9345 -0.5142 -0.9530
 2192TIP3   OH228066   6.508   2.960   3.024 -0.3938  0.6961  0.2680
 2192TIP3    H128067   6.525   2.906   2.946  0.4449  0.5004  0.5757
 2192TIP3    H228068   6.539   3.047   3.000  0.2954  0.5323  0.5307
 2193TIP3   OH228069   0.684   5.373  15.091 -0.0638  0.6346  0.3277
 2193TIP3    H128070   0.597   5.403  15.065  0.3458  2.4244  0.8902
 2193TIP3    H228071   0.689   5.282  15.060 -2.5143  0.1302  1.2299
 2194TIP3   OH228072   6.771   4.948  16.496 -0.0840 -0.3094 -0.1745
 2194TIP3    H128073   6.795   4.935  16.588 -0.1266 -0.2117 -0.1497
 2194TIP3    H228074   6.800   4.867  16.453 -0.7039 -0.6609  0.0488
 2195TIP3   OH228075   1.918   3.428  10.232  0.2976 -0.0205 -0.1757
 2195TIP3    H128076   1.994   3.481  10.258  0.3726 -0.0887 -0.2559
 2195TIP3    H228077   1.847   3.491  10.224  0.4330  0.1004 -0.4641
 2196TIP3   OH228078   4.243   2.447  12.581 -0.0010 -0.1959 -0.4983
 2196TIP3    H128079   4.171   2.387  12.562  0.3180 -1.7275  2.4478
 2196TIP3    H228080   4.319   2.390  12.594  0.7421  0.9775  0.5958
 2197TIP3   OH228081   5.671   4.107  11.159 -0.4194  0.3996 -0.4570
 2197TIP3    H128082   5.609   4.165  11.115 -0.1788 -0.3325 -1.8272
 2197TIP3    H228083   5.693   4.041  11.093 -0.9498 -1.4722  1.1366
 2198TIP3   OH228084   0.915   3.487   6.116 -0.0856  0.4422  0.5182
 2198TIP3    H128085   0.901   3.577   6.085  2.7958  0.3582 -1.4617
 2198TIP3    H228086   0.827   3.452   6.127 -1.3328  2.6697 -1.3323
 2199TIP3   OH228087   5.355   1.180  13.259  0.1815  0.1314  0.4396
 2199TIP3    H128088   5.323   1.093  13.281  1.6112  0.1368  2.8197
 2199TIP3    H228089   5.382   1.218  13.342 -0.1840  2.7946 -0.5559
 2200TIP3   OH228090   5.923   4.055  14.929 -0.1432 -0.0664 -0.3196
 2200TIP3    H128091   5.831   4.076  14.947 -0.1848 -0.7144  0.2897
 2200TIP3    H228092   5.972   4.104  14.995 -0.1860 -1.1327  0.5422
 2201TIP3   OH228093   4.267   2.818   3.991  0.4059  0.1116 -0.0305
 2201TIP3    H128094   4.312   2.849   4.070 -0.1225  1.7245 -0.3379
 2201TIP3    H228095   4.336   2.774   3.941  1.0141  0.1144  0.7819
 2202TIP3   OH228096   4.073   0.201   3.190  0.0303 -0.3546 -0.3203
 2202TIP3    H128097   4.057   0.264   3.120  2.8944 -0.7112 -1.4290
 2202TIP3    H228098   4.115   0.251   3.259 -1.9403 -0.2025  0.8614
 2203TIP3   OH228099   3.601   1.343   3.214 -0.4855 -0.2414  0.1148
 2203TIP3    H128100   3.658   1.307   3.282  1.0858  2.7552  0.5121
 2203TIP3    H228101   3.513   1.338   3.252 -0.2712 -2.7899  0.4353
 2204TIP3   OH228102   5.386   0.522   2.110 -0.3371 -0.2907 -0.2292
 2204TIP3    H128103   5.306   0.574   2.113 -1.1297 -1.4830  0.6533
 2204TIP3    H228104   5.356   0.431   2.116  1.0382 -0.8223 -0.8123
 2205TIP3   OH228105   2.080   4.145   1.712  0.5392  0.1815 -0.2091
 2205TIP3    H128106   2.151   4.091   1.749  0.3396  0.3634  0.4568
 2205TIP3    H228107   2.042   4.091   1.643  0.9556 -0.1481 -0.1877
 2206TIP3   OH228108   4.507   1.832  14.203 -0.0150 -0.2548 -0.3537
 2206TIP3    H128109   4.464   1.839  14.288  0.0359  0.2192 -0.3629
 2206TIP3    H228110   4.540   1.920  14.186  0.0629 -0.3716 -0.8192
 2207TIP3   OH228111   0.366   1.764  14.378  0.0420 -0.0832 -0.6520
 2207TIP3    H128112   0.273   1.759  14.401  0.2598  1.2564  0.6534
 2207TIP3    H228113   0.392   1.674  14.364 -1.2842 -0.5422 -0.3316
 2208TIP3   OH228114   5.507   0.155  14.954 -0.3508  0.0398  0.3274
 2208TIP3    H128115   5.598   0.130  14.936 -1.0922 -2.3057 -0.5782
 2208TIP3    H228116   5.507   0.185  15.045  1.5746  1.6684 -0.1316
 2209TIP3   OH228117   2.511   6.576  15.266  0.0482  0.4993  0.3511
 2209TIP3    H128118   2.491   6.650  15.209 -0.7616 -0.6709 -0.9449
 2209TIP3    H228119   2.598   6.596  15.300 -0.0092  1.8841 -0.2219
 2210TIP3   OH228120   0.775   0.827  15.511  0.1336  0.2862 -0.0553
 2210TIP3    H128121   0.720   0.815  15.589  0.6309  0.3949  0.3199
 2210TIP3    H228122   0.805   0.739  15.488 -0.1624  0.2322 -0.2351
 2211TIP3   OH228123   1.289   5.681  10.578  0.2370  0.8033 -0.2714
 2211TIP3    H128124   1.283   5.593  10.613  0.1131  0.4448 -1.1601
 2211TIP3    H228125   1.335   5.731  10.645 -1.7997  0.6548  1.3097
 2212TIP3   OH228126   4.704   2.103  16.437  0.7199 -0.1147 -0.4506
 2212TIP3    H128127   4.772   2.062  16.490  0.1151 -0.3062  0.2050
 2212TIP3    H228128   4.712   2.196  16.454 -0.3721 -0.2687  1.1395
 2213TIP3   OH228129   2.543   0.850   1.722 -0.0126  0.4208  0.3502
 2213TIP3    H128130   2.589   0.842   1.805  0.4340  0.5652  0.1249
 2213TIP3    H228131   2.495   0.932   1.728 -0.7541 -0.0367  0.8277
 2214TIP3   OH228132   5.682   3.525   5.605  0.3718  0.0147 -0.0375
 2214TIP3    H128133   5.666   3.453   5.545  0.5149 -0.1313  0.0998
 2214TIP3    H228134   5.738   3.488   5.673 -0.0600  0.0918  0.3659
 2215TIP3   OH228135   2.207   5.345  11.550 -0.2489 -0.1429 -0.3755
 2215TIP3    H128136   2.238   5.404  11.618  1.2464  0.5637 -1.6131
 2215TIP3    H228137   2.164   5.274  11.597  1.5601 -0.1531  1.3690
 2216TIP3   OH228138   2.313   4.492  16.194  0.3064  0.0771  0.1584
 2216TIP3    H128139   2.361   4.475  16.113 -1.1595  0.8849 -0.9332
 2216TIP3    H228140   2.297   4.405  16.231  1.6946 -0.2562  0.0340
 2217TIP3   OH228141   1.293   2.367  11.354 -0.6783 -0.0396  0.4816
 2217TIP3    H128142   1.326   2.416  11.430 -3.6099  3.6334 -0.3072
 2217TIP3    H228143   1.203   2.398  11.343 -0.9401 -1.6423 -3.5342
 2218TIP3   OH228144   2.444   4.039   3.465 -0.0959  0.2717 -0.8303
 2218TIP3    H128145   2.401   3.961   3.502  1.3531 -1.3362 -2.3373
 2218TIP3    H228146   2.391   4.112   3.496 -1.4689 -1.2884  0.7605
 2219TIP3   OH228147   0.328   0.954   6.281 -0.0441 -0.3524 -0.3266
 2219TIP3    H128148   0.413   0.909   6.282 -0.2355 -0.7166 -0.2728
 2219TIP3    H228149   0.264   0.884   6.273 -0.3572 -0.1018 -0.0557
 2220TIP3   OH228150   0.439   3.860   2.292 -0.0531  0.2759 -0.0132
 2220TIP3    H128151   0.481   3.938   2.255  1.2072 -0.1317  0.4862
 2220TIP3    H228152   0.358   3.850   2.242  0.1389  1.4590 -0.6015
 2221TIP3   OH228153   5.142   5.125   1.371 -0.1989  0.0749 -0.1067
 2221TIP3    H128154   5.173   5.158   1.287 -1.3702  1.9689  0.1418
 2221TIP3    H228155   5.047   5.133   1.366 -0.3661 -0.9566  0.9502
 2222TIP3   OH228156   2.816   6.732   4.474 -0.1132 -0.3159  0.4549
 2222TIP3    H128157   2.873   6.659   4.451  0.9855  0.8401 -0.6084
 2222TIP3    H228158   2.829   6.744   4.568  0.9481 -0.4411  0.3280
 2223TIP3   OH228159   1.813   4.538  14.333  0.0864 -0.2449 -0.1153
 2223TIP3    H128160   1.797   4.446  14.311 -1.6459  0.3551 -1.6286
 2223TIP3    H228161   1.871   4.569  14.264 -2.2983  0.6626 -1.8706
 2224TIP3   OH228162   1.521   0.137   1.248 -0.2001 -0.0422  0.3566
 2224TIP3    H128163   1.589   0.187   1.203 -1.0285  0.8099  0.0077
 2224TIP3    H228164   1.511   0.180   1.333  0.6365 -1.0137  0.9748
 2225TIP3   OH228165   5.700   4.257   0.123  0.3459 -0.1016  0.2994
 2225TIP3    H128166   5.655   4.173   0.110  0.3586 -0.7174  3.3504
 2225TIP3    H228167   5.793   4.234   0.126  0.3783  0.0792  0.6936
 2226TIP3   OH228168   4.261   1.576  11.207 -0.3444 -0.2855 -0.1567
 2226TIP3    H128169   4.218   1.498  11.243  0.3570 -0.9058 -0.6471
 2226TIP3    H228170   4.192   1.624  11.162 -0.5940 -1.1006 -0.6446
 2227TIP3   OH228171   3.280   4.787   3.930 -0.3099  0.3864  0.0340
 2227TIP3    H128172   3.192   4.766   3.896 -0.3957  0.2398  0.3427
 2227TIP3    H228173   3.272   4.877   3.961  0.0664  0.8979 -1.3188
 2228TIP3   OH228174   2.039   4.796  16.533 -0.0225  0.1045 -0.5127
 2228TIP3    H128175   2.087   4.733  16.586 -1.6701 -2.0317 -1.4468
 2228TIP3    H228176   2.093   4.809  16.455  0.3379 -0.1021 -0.2987
 2229TIP3   OH228177   4.381   2.021   1.476  0.4489 -0.1320  0.2682
 2229TIP3    H128178   4.420   1.991   1.394  1.2911  1.3866  0.0785
 2229TIP3    H228179   4.421   1.966   1.543 -0.1927 -1.3378 -0.3140
 2230TIP3   OH228180   5.693   2.268   6.243  0.1022  0.1913  0.5820
 2230TIP3    H128181   5.649   2.185   6.227  0.0891 -0.0702  1.8850
 2230TIP3    H228182   5.673   2.321   6.166 -0.6136 -0.7027  0.1332
 2231TIP3   OH228183   2.429   5.849   1.691  0.2798 -0.2273 -0.0450
 2231TIP3    H128184   2.464   5.839   1.603 -0.1594  0.9462 -0.3814
 2231TIP3    H228185   2.353   5.791   1.693 -0.2000  0.3598 -0.7339
 2232TIP3   OH228186   6.084   0.497   6.062  0.2456  0.0469 -0.1294
 2232TIP3    H128187   6.051   0.430   6.122 -2.8461 -0.2146 -1.8946
 2232TIP3    H228188   6.020   0.568   6.067  2.6655  2.3286  0.5995
 2233TIP3   OH228189   5.274   0.338  16.258  0.4781 -0.0903  0.6201
 2233TIP3    H128190   5.293   0.288  16.178  0.3951  1.6201 -0.5294
 2233TIP3    H228191   5.315   0.289  16.328  2.2711 -0.6256 -0.7454
 2234TIP3   OH228192   5.650   5.199   3.465 -0.6306 -0.3854 -0.6842
 2234TIP3    H128193   5.676   5.231   3.379  2.2583  1.3218  0.6708
 2234TIP3    H228194   5.669   5.105   3.463  2.1103  0.0929 -1.1352
 2235TIP3   OH228195   5.514   4.141   0.542  0.5553  0.9246  0.2611
 2235TIP3    H128196   5.608   4.156   0.534  0.4863  0.5208 -1.7275
 2235TIP3    H228197   5.495   4.072   0.478 -0.6815 -0.9640  2.5012
 2236TIP3   OH228198   2.255   5.356   2.671  0.1036 -0.3763 -0.2682
 2236TIP3    H128199   2.322   5.423   2.658 -1.9017  1.5082 -1.6446
 2236TIP3    H228200   2.196   5.365   2.596 -2.6859 -0.6565  1.7222
 2237TIP3   OH228201   6.130   2.545   0.716 -0.3630  0.3176 -0.7296
 2237TIP3    H128202   6.080   2.465   0.730  0.5920 -0.1914 -0.0952
 2237TIP3    H228203   6.099   2.605   0.783 -0.0052 -0.0621 -0.2145
 2238TIP3   OH228204   1.951   3.841  17.149  0.2940 -0.2991 -0.0571
 2238TIP3    H128205   1.913   3.920  17.188 -0.0108 -1.1672  1.5204
 2238TIP3    H228206   1.933   3.848  17.056 -1.6680  0.4450  0.3415
 2239TIP3   OH228207   2.395   3.986  12.674 -0.3133  0.2125 -0.6176
 2239TIP3    H128208   2.456   3.988  12.748  0.4053 -1.3835 -1.1317
 2239TIP3    H228209   2.413   4.067  12.626  0.2327  0.5521  0.1352
 2240TIP3   OH228210   3.813   3.989   1.919 -0.2424  0.3684  0.0097
 2240TIP3    H128211   3.890   3.963   1.869  0.0415 -0.0827  0.6687
 2240TIP3    H228212   3.763   4.043   1.859  0.3868  0.3300 -0.5619
 2241TIP3   OH228213   2.539   3.332  13.884  0.2818  0.3799  0.0007
 2241TIP3    H128214   2.498   3.418  13.886  0.9073  0.7476 -1.4913
 2241TIP3    H228215   2.620   3.343  13.935  0.5722  0.7972 -0.5460
 2242TIP3   OH228216   2.541   0.327  11.121 -0.4478  0.2770  0.6664
 2242TIP3    H128217   2.627   0.353  11.155 -1.2034  0.9091  2.1588
 2242TIP3    H228218   2.527   0.239  11.157  0.5523 -0.8607 -1.5000
 2243TIP3   OH228219   6.016   3.836   0.629 -0.0706 -0.1847 -0.0142
 2243TIP3    H128220   5.989   3.867   0.716  2.1215 -0.0548  0.6681
 2243TIP3    H228221   6.045   3.746   0.643  0.6650 -0.0370 -0.5195
 2244TIP3   OH228222   0.394   1.362  15.002  0.0579  0.0101 -0.1931
 2244TIP3    H128223   0.369   1.453  14.990 -0.8559 -0.0394  1.0446
 2244TIP3    H228224   0.459   1.345  14.935 -2.0867  0.6563 -2.5814
 2245TIP3   OH228225   1.451   3.659   3.536 -0.1275  0.5928 -0.4011
 2245TIP3    H128226   1.544   3.677   3.527  0.5461 -1.4676  1.5323
 2245TIP3    H228227   1.430   3.605   3.459  0.2816  0.9652 -0.7789
 2246TIP3   OH228228   1.107   4.727   3.472 -0.2687  0.0837  0.0517
 2246TIP3    H128229   1.149   4.641   3.478 -0.8852 -0.4222 -1.9896
 2246TIP3    H228230   1.045   4.728   3.544 -0.9766 -1.6292 -0.4826
 2247TIP3   OH228231   3.172   2.992  11.907 -0.0111  0.3480 -0.0792
 2247TIP3    H128232   3.110   3.063  11.923  1.1868  1.7810 -1.3339
 2247TIP3    H228233   3.174   2.942  11.989 -0.7160  1.9234  0.9473
 2248TIP3   OH228234   4.988   4.092  14.198 -0.0579  0.5658  0.2096
 2248TIP3    H128235   5.057   4.149  14.232 -0.2426  1.2894 -0.5935
 2248TIP3    H228236   5.033   4.035  14.135 -0.3637  1.8306 -1.2040
 2249TIP3   OH228237   0.025   3.528   1.930  0.2378  0.4729  0.1507
 2249TIP3    H128238   0.056   3.578   2.006 -2.0094  2.7174 -0.2569
 2249TIP3    H228239  -0.068   3.549   1.925  0.5286  1.5508 -3.9871
 2250TIP3   OH228240   4.052   1.138   4.847  0.5877  0.6598  0.3398
 2250TIP3    H128241   4.116   1.102   4.908  0.3406  1.6643  1.2305
 2250TIP3    H228242   3.975   1.082   4.856  0.7948  0.3866  0.4168
 2251TIP3   OH228243   5.496   0.781  15.400  0.7559 -0.0797  0.2959
 2251TIP3    H128244   5.417   0.826  15.431  0.6365  0.3136 -0.5352
 2251TIP3    H228245   5.541   0.846  15.346  0.9364 -0.7384 -0.3675
 2252TIP3   OH228246   5.886   2.051   3.715  0.1303 -0.0021 -0.3054
 2252TIP3    H128247   5.805   2.040   3.764  0.2981 -0.6405 -0.1552
 2252TIP3    H228248   5.890   2.144   3.695 -0.3038  0.1449  0.2653
 2253TIP3   OH228249   4.186   0.617   6.593  0.1288  0.4941  0.1234
 2253TIP3    H128250   4.249   0.612   6.665  1.4518  2.7127 -0.7941
 2253TIP3    H228251   4.176   0.526   6.565  1.3094 -0.1545  1.6429
 2254TIP3   OH228252   0.882   2.154   1.207 -0.5342 -0.2218 -0.2563
 2254TIP3    H128253   0.844   2.069   1.229  0.3912 -0.2915  1.2750
 2254TIP3    H228254   0.861   2.168   1.115 -0.9243 -1.9961 -0.4603
 2255TIP3   OH228255   5.472   4.353   5.262 -0.2278  0.0290  0.3585
 2255TIP3    H128256   5.495   4.313   5.346 -0.0199 -0.6474 -0.0139
 2255TIP3    H228257   5.462   4.446   5.282  0.2698 -0.0561  1.0445
 2256TIP3   OH228258   4.890   3.636   4.422 -0.6483 -0.8332 -0.0834
 2256TIP3    H128259   4.865   3.629   4.329 -1.5422  2.0651 -0.1527
 2256TIP3    H228260   4.820   3.686   4.462  1.7704  1.8464  1.1708
 2257TIP3   OH228261   6.408   4.064   1.197 -0.1651 -0.0115 -0.5477
 2257TIP3    H128262   6.502   4.083   1.192 -0.2078  0.6036  0.5578
 2257TIP3    H228263   6.400   3.976   1.162  1.1314 -0.8651  1.0995
 2258TIP3   OH228264   3.763   3.629  11.820 -0.6783  0.4241 -0.7234
 2258TIP3    H128265   3.706   3.697  11.857 -1.9067  0.2838 -2.2233
 2258TIP3    H228266   3.840   3.629  11.876 -1.7628  1.2664  0.8431
 2259TIP3   OH228267   5.225   0.392  14.187  0.7843  0.0701  0.1858
 2259TIP3    H128268   5.178   0.474  14.175  0.1671 -0.2374  0.4937
 2259TIP3    H228269   5.207   0.366  14.277 -0.8469 -1.5313 -0.5291
 2260TIP3   OH228270   3.404   2.007  15.264  0.8593  0.3472 -0.2952
 2260TIP3    H128271   3.401   2.006  15.359  0.1864 -0.5713 -0.3220
 2260TIP3    H228272   3.496   1.991  15.243  1.3226  2.0817  0.1895
 2261TIP3   OH228273   5.772   2.170  15.843  0.1010  0.1649 -0.2245
 2261TIP3    H128274   5.752   2.141  15.932  0.7490 -1.7943 -0.6602
 2261TIP3    H228275   5.724   2.251  15.833 -3.4209 -1.6347  0.5176
 2262TIP3   OH228276   4.525   1.688  10.997  0.1872 -0.7846 -0.1567
 2262TIP3    H128277   4.463   1.644  10.938 -0.3641 -0.5512  0.2368
 2262TIP3    H228278   4.495   1.778  10.999  1.3671 -0.3454 -1.0281
 2263TIP3   OH228279   2.067   2.109   2.203 -0.0833  0.2459  0.2842
 2263TIP3    H128280   2.014   2.147   2.134  0.3273 -0.4569 -0.4366
 2263TIP3    H228281   2.145   2.075   2.158  0.7407  0.8119  1.2498
 2264TIP3   OH228282   5.243   2.012  13.107  0.1289 -0.8044 -0.3540
 2264TIP3    H128283   5.272   1.931  13.148  0.2027 -0.7549 -0.3098
 2264TIP3    H228284   5.232   1.989  13.014  0.5028 -0.7723 -0.4074
 2265TIP3   OH228285   1.747   4.743   5.964 -0.4133 -0.0488 -0.0828
 2265TIP3    H128286   1.715   4.768   6.050 -1.9656  0.5093 -0.7752
 2265TIP3    H228287   1.733   4.649   5.958 -1.0014  0.0319  0.0031
 2266TIP3   OH228288   1.339   1.300   1.560  0.0045  0.3060  0.1422
 2266TIP3    H128289   1.360   1.394   1.561 -2.1685  0.8652  1.3519
 2266TIP3    H228290   1.268   1.292   1.496 -1.8011  0.0667  2.0640
 2267TIP3   OH228291   0.057   1.665   4.737  0.7128  0.3366 -0.2570
 2267TIP3    H128292   0.064   1.760   4.742  0.0823  0.4430 -1.1021
 2267TIP3    H228293   0.133   1.638   4.685  1.2008  0.3143  0.4564
 2268TIP3   OH228294   3.245   2.202   3.498  0.0739  0.0409 -0.2211
 2268TIP3    H128295   3.256   2.126   3.441  0.5814 -0.3508  0.3874
 2268TIP3    H228296   3.281   2.275   3.448  0.1171 -0.2206 -0.5730
 2269TIP3   OH228297   5.190   3.771   3.615  0.2282 -0.3049  0.1776
 2269TIP3    H128298   5.263   3.711   3.628 -1.7402 -2.7211  0.7930
 2269TIP3    H228299   5.111   3.718   3.630 -1.7844  1.5782 -2.5617
 2270TIP3   OH228300   6.320   1.535  14.726 -0.0111  0.0633  0.6768
 2270TIP3    H128301   6.378   1.544  14.802  0.2829 -0.0580  0.4719
 2270TIP3    H228302   6.240   1.581  14.750  0.2042  0.3020  0.9322
 2271TIP3   OH228303   6.629   0.741   3.140 -0.6913  0.3051  0.1889
 2271TIP3    H128304   6.542   0.765   3.107 -0.5664 -0.0849 -0.4296
 2271TIP3    H228305   6.611   0.698   3.223 -1.0963  0.2131  0.0595
 2272TIP3   OH228306   0.501   6.687  11.342 -0.2185  0.4719 -0.0478
 2272TIP3    H128307   0.459   6.772  11.356  0.9129  1.4814 -2.1597
 2272TIP3    H228308   0.439   6.638  11.289 -0.2433  0.5639 -0.1053
 2273TIP3   OH228309   5.122   5.948  13.801  0.1193 -0.2839 -0.2577
 2273TIP3    H128310   5.044   5.900  13.830 -0.4383  1.3871  1.1869
 2273TIP3    H228311   5.192   5.882  13.800 -0.1200 -0.8392  3.6918
 2274TIP3   OH228312   1.429   5.753   2.886  0.1003 -0.2865  0.6762
 2274TIP3    H128313   1.372   5.795   2.822  2.3652  0.1526 -1.2075
 2274TIP3    H228314   1.383   5.762   2.969 -1.0731  2.9708 -0.1761
 2275TIP3   OH228315   0.221   1.096  12.590 -0.3079 -0.1092  0.0291
 2275TIP3    H128316   0.244   1.090  12.683  0.5496  1.1553 -0.0767
 2275TIP3    H228317   0.184   1.184  12.580  1.3741  0.5147 -1.1661
 2276TIP3   OH228318   2.013   0.330  14.616  0.0123  0.2578  0.0922
 2276TIP3    H128319   1.931   0.286  14.595  0.5016 -2.1227  2.5614
 2276TIP3    H228320   1.991   0.393  14.684  0.1852 -0.5131  0.8916
 2277TIP3   OH228321   1.352   0.435   5.050 -0.5550 -0.4055  0.2120
 2277TIP3    H128322   1.376   0.522   5.083  0.0078 -0.4418 -0.1024
 2277TIP3    H228323   1.335   0.384   5.129  1.8806 -0.8187  0.5357
 2278TIP3   OH228324   6.344   2.167  13.476  0.6324  0.4572 -0.4963
 2278TIP3    H128325   6.366   2.134  13.563  1.3701 -0.1881 -0.9163
 2278TIP3    H228326   6.280   2.105  13.442 -0.8858  1.5823  0.1846
 2279TIP3   OH228327   3.315   2.374   1.807  0.2457 -0.4731 -0.3542
 2279TIP3    H128328   3.343   2.381   1.898 -1.4402 -1.0100  0.2345
 2279TIP3    H228329   3.274   2.459   1.788  2.5133  0.4956 -1.3645
 2280TIP3   OH228330   2.771   0.711  15.169  0.1615  0.6573  0.5184
 2280TIP3    H128331   2.797   0.740  15.256 -0.4395  2.9134  0.0076
 2280TIP3    H228332   2.816   0.770  15.109  0.0351 -0.4294 -0.6896
 2281TIP3   OH228333   4.819   6.389   1.813 -0.1274 -0.1446  0.2102
 2281TIP3    H128334   4.902   6.403   1.857 -0.4386  0.8252  0.5172
 2281TIP3    H228335   4.840   6.393   1.720 -0.0947  2.0453  0.2618
 2282TIP3   OH228336   5.661   3.884   5.523  0.4957 -0.1791  0.1691
 2282TIP3    H128337   5.599   3.853   5.457 -0.5650  1.3244  0.4156
 2282TIP3    H228338   5.625   3.853   5.606  0.8820 -0.5551  0.2014
 2283TIP3   OH228339   5.863   3.266  10.520  0.3019 -0.0292  0.2900
 2283TIP3    H128340   5.851   3.177  10.489 -1.4076  0.3696 -0.3109
 2283TIP3    H228341   5.953   3.288  10.498  0.8739 -1.7335  0.8230
 2284TIP3   OH228342   5.133   6.360  16.873 -0.7547 -0.3356 -0.2047
 2284TIP3    H128343   5.221   6.331  16.897 -1.0413 -0.8176  0.3147
 2284TIP3    H228344   5.075   6.295  16.914 -1.2779 -1.3644 -2.4494
 2285TIP3   OH228345   4.182   6.488  11.588  0.2730 -0.1925 -0.4031
 2285TIP3    H128346   4.211   6.520  11.502  0.8833  1.2491  0.3026
 2285TIP3    H228347   4.100   6.442  11.570  0.5045 -0.1088 -1.7863
 2286TIP3   OH228348   1.243   3.039   2.888 -0.0102  0.5721 -0.1534
 2286TIP3    H128349   1.159   2.992   2.894  0.0359  0.2008 -1.9856
 2286TIP3    H228350   1.222   3.128   2.918 -0.8305  0.2305  0.3272
 2287TIP3   OH228351   5.518   6.431  12.818 -0.1905 -0.7128 -0.1380
 2287TIP3    H128352   5.428   6.416  12.845  0.0960  0.4305  1.5950
 2287TIP3    H228353   5.525   6.525  12.805  0.5696 -0.8673 -1.0089
 2288TIP3   OH228354   0.067   1.657  10.482  0.7217 -0.3721  0.2113
 2288TIP3    H128355  -0.005   1.630  10.540  1.6229 -0.2608  1.4116
 2288TIP3    H228356   0.118   1.577  10.469  0.9381 -0.2296  0.1773
 2289TIP3   OH228357   0.392   3.011  17.072  0.1917 -0.2999  0.3253
 2289TIP3    H128358   0.436   3.084  17.116  2.2509 -0.6733 -0.9487
 2289TIP3    H228359   0.436   2.933  17.106  1.9087 -0.5953 -2.2609
 2290TIP3   OH228360   3.019   4.735  13.388  0.4930  0.0048 -0.3018
 2290TIP3    H128361   3.108   4.767  13.373  0.6993 -1.3423 -2.2702
 2290TIP3    H228362   2.970   4.760  13.310 -0.4531 -0.6299  0.0682
 2291TIP3   OH228363   5.984   2.189  15.528  0.6081 -0.0293 -0.6655
 2291TIP3    H128364   5.999   2.094  15.525  0.4584 -0.1180  0.6568
 2291TIP3    H228365   6.067   2.228  15.502  0.3695 -0.5124 -2.2274
 2292TIP3   OH228366   5.133   1.420   4.449  0.2797 -0.2582 -0.1896
 2292TIP3    H128367   5.039   1.416   4.428  0.1285  1.1833  0.1282
 2292TIP3    H228368   5.163   1.502   4.411  1.1053 -0.0245  0.9259
 2293TIP3   OH228369   2.868   4.192  12.839  0.4932 -0.7457  0.1218
 2293TIP3    H128370   2.964   4.183  12.839  0.7045  0.9168  0.9839
 2293TIP3    H228371   2.835   4.104  12.854  1.9557 -1.1184  1.4514
 2294TIP3   OH228372   3.254   0.525  14.897  0.3625  0.0267  0.8756
 2294TIP3    H128373   3.215   0.578  14.966 -1.8753  1.8063 -1.5929
 2294TIP3    H228374   3.207   0.441  14.901  0.2296  0.1305  1.4700
 2295TIP3   OH228375   1.632   3.472  12.928 -0.4148  0.3542  0.2069
 2295TIP3    H128376   1.643   3.567  12.931  0.1460  0.3411 -0.8759
 2295TIP3    H228377   1.608   3.453  12.837 -0.2552 -0.5586  0.3420
 2296TIP3   OH228378   0.871   3.757   3.885 -0.0858  0.5658 -0.2505
 2296TIP3    H128379   0.843   3.682   3.833  3.3118 -2.0231  1.2895
 2296TIP3    H228380   0.802   3.769   3.950 -1.1517 -0.5555 -1.1240
 2297TIP3   OH228381   6.325   1.119  15.753  0.8642 -0.2037  0.3737
 2297TIP3    H128382   6.307   1.211  15.773  1.4093  0.3654 -1.5069
 2297TIP3    H228383   6.275   1.070  15.818  0.0565  1.4150  1.0301
 2298TIP3   OH228384   1.673   5.070  17.198  0.0364  0.1647 -0.1402
 2298TIP3    H128385   1.644   5.082  17.289 -1.1906  1.5043 -0.6762
 2298TIP3    H228386   1.719   4.986  17.199  0.2449  0.2520  1.7619
 2299TIP3   OH228387   3.029   3.839   1.700 -0.3669  0.3201  0.2784
 2299TIP3    H128388   3.110   3.868   1.658  0.4045 -1.6261  0.2910
 2299TIP3    H228389   3.054   3.822   1.791 -0.7942 -0.2011  0.3063
 2300TIP3   OH228390   6.779   1.238  12.295 -0.8973  0.0062 -0.2161
 2300TIP3    H128391   6.746   1.320  12.258 -0.8737  0.0861 -0.0633
 2300TIP3    H228392   6.839   1.266  12.364 -1.1412 -0.1390  0.0594
 2301TIP3   OH228393   2.665   4.543   2.690 -0.1019 -0.0434  0.1159
 2301TIP3    H128394   2.720   4.600   2.743 -1.4982  0.1783  1.3754
 2301TIP3    H228395   2.608   4.498   2.753 -1.9351  0.3590 -1.1863
 2302TIP3   OH228396   0.158   0.800  13.970  0.5216  0.3794  0.3103
 2302TIP3    H128397   0.122   0.888  13.965  0.7394  0.6840  2.7314
 2302TIP3    H228398   0.089   0.748  14.010  1.1687 -0.0358  0.9142
 2303TIP3   OH228399   1.955   1.967   3.378 -0.7242  0.0719  0.1033
 2303TIP3    H128400   1.935   2.060   3.388  1.1551  0.4338  1.0187
 2303TIP3    H228401   2.015   1.963   3.304 -0.1134 -0.2610  0.5969
 2304TIP3   OH228402   4.796   5.566   6.069 -0.1119 -0.1217 -0.3806
 2304TIP3    H128403   4.714   5.580   6.022 -0.6068 -0.2889  0.4197
 2304TIP3    H228404   4.791   5.476   6.101 -1.0755  0.8177  2.4088
 2305TIP3   OH228405   1.440   4.695  12.739  0.3144  0.0717 -0.4602
 2305TIP3    H128406   1.448   4.712  12.832  0.4425 -1.5212 -0.1466
 2305TIP3    H228407   1.447   4.781  12.698  0.9510  0.7284  0.9476
 2306TIP3   OH228408   0.065   4.836   1.356 -0.4530  0.0154 -0.4752
 2306TIP3    H128409   0.152   4.803   1.336 -0.3505  0.7659 -1.3636
 2306TIP3    H228410   0.079   4.900   1.426 -0.2409  0.3710 -0.8395
 2307TIP3   OH228411   1.319   0.004   0.351 -0.2494 -0.2028 -0.5104
 2307TIP3    H128412   1.343   0.082   0.402 -1.1284  0.2590 -0.7827
 2307TIP3    H228413   1.294   0.038   0.266 -1.3485 -0.7012 -0.4025
 2308TIP3   OH228414   6.158   4.836  12.231  0.6843 -0.6248  0.0431
 2308TIP3    H128415   6.160   4.927  12.203  1.4340 -0.7675 -0.4007
 2308TIP3    H228416   6.090   4.833  12.298  0.4494  0.1960 -0.1449
 2309TIP3   OH228417   3.442   1.653   1.261 -0.3774 -0.4218 -0.3437
 2309TIP3    H128418   3.405   1.630   1.176 -0.9089  0.2560 -0.3015
 2309TIP3    H228419   3.396   1.596   1.323 -1.1451  0.1993 -0.3285
 2310TIP3   OH228420   1.597   5.489   1.349 -0.3340 -0.2396  0.1937
 2310TIP3    H128421   1.670   5.454   1.401  0.6879  0.3002 -0.8447
 2310TIP3    H228422   1.569   5.567   1.396  0.2604 -0.0304  0.2063
 2311TIP3   OH228423   4.879   1.427   0.759 -0.3532  0.0426 -0.7697
 2311TIP3    H128424   4.831   1.509   0.760 -0.0288  0.2391  0.1646
 2311TIP3    H228425   4.813   1.360   0.740 -0.9778  0.3174  0.3716
 2312TIP3   OH228426   3.663   3.163   0.218 -0.1882  0.4625 -0.2608
 2312TIP3    H128427   3.735   3.140   0.159 -0.6200 -2.0046  0.0691
 2312TIP3    H228428   3.690   3.130   0.304 -1.5303 -0.2043 -0.0642
 2313TIP3   OH228429   1.848   6.281   0.084 -0.0202  0.2525 -0.3715
 2313TIP3    H128430   1.914   6.228   0.040 -1.6114 -0.5270 -1.9263
 2313TIP3    H228431   1.839   6.359   0.029  1.2990  1.5925  1.1599
 2314TIP3   OH228432   5.166   5.077  16.041 -0.4328 -0.3415 -0.4454
 2314TIP3    H128433   5.261   5.071  16.046 -0.3336  1.3518  0.6917
 2314TIP3    H228434   5.136   5.066  16.131 -1.3169 -0.8003 -0.7803
 2315TIP3   OH228435   5.627   5.588  15.178 -0.5317 -0.4614 -0.2106
 2315TIP3    H128436   5.570   5.553  15.109  1.5641 -0.8222 -1.8627
 2315TIP3    H228437   5.654   5.674  15.145  1.3999 -1.1114 -0.4516
 2316TIP3   OH228438   2.053   5.869  12.630 -0.1502 -0.3599  0.0981
 2316TIP3    H128439   1.991   5.942  12.629  0.3480  0.1085  1.1745
 2316TIP3    H228440   2.000   5.792  12.650 -0.4137  0.0329  0.9725
 2317TIP3   OH228441   5.894   6.621  15.908 -0.3650  0.2688  0.2266
 2317TIP3    H128442   5.852   6.542  15.943  0.6684  0.1036  1.1682
 2317TIP3    H228443   5.987   6.608  15.926  0.0166  0.9698 -1.1053
 2318TIP3   OH228444   4.814   4.067   4.161  0.1810 -0.3879 -0.5738
 2318TIP3    H128445   4.816   4.162   4.154  1.6884 -0.2045  1.4086
 2318TIP3    H228446   4.905   4.041   4.168 -0.2500 -1.8713 -0.0507
 2319TIP3   OH228447   3.935   1.576  13.464  0.5420 -0.7679  0.3320
 2319TIP3    H128448   3.840   1.562  13.463  0.1009  1.4150  2.6694
 2319TIP3    H228449   3.951   1.633  13.389 -0.1761 -0.2996  0.5226
 2320TIP3   OH228450   4.268   6.307   5.380  0.4606 -0.3897 -0.3618
 2320TIP3    H128451   4.251   6.277   5.291 -2.1505  2.1893 -0.8863
 2320TIP3    H228452   4.189   6.281   5.429  1.1650 -0.3900  0.8146
 2321TIP3   OH228453   0.978   6.244   2.935 -0.0685 -0.4309  0.0602
 2321TIP3    H128454   0.992   6.149   2.936 -0.7812 -0.5400  0.1933
 2321TIP3    H228455   1.054   6.279   2.890 -0.9622 -1.2645 -2.2223
 2322TIP3   OH228456   0.614   0.754   3.113  0.1270  0.8226 -0.0975
 2322TIP3    H128457   0.576   0.673   3.077  0.7717  1.2299 -1.8033
 2322TIP3    H228458   0.539   0.811   3.129 -0.1900  0.6275 -0.8482
 2323TIP3   OH228459   6.114   2.893  11.664 -0.2776  0.0239  0.1239
 2323TIP3    H128460   6.123   2.863  11.574  2.6445  0.9278  0.0059
 2323TIP3    H228461   6.109   2.812  11.715  0.0468 -0.5441 -0.7150
 2324TIP3   OH228462   2.892   1.636  11.277  0.0609  0.1955  0.2942
 2324TIP3    H128463   2.952   1.693  11.230 -2.1632  1.2906 -1.4435
 2324TIP3    H228464   2.889   1.555  11.225 -1.2473  0.8356 -0.7089
 2325TIP3   OH228465   1.249   0.236  12.429 -0.2378 -0.0533 -0.4788
 2325TIP3    H128466   1.156   0.216  12.431 -0.2452 -0.0134 -0.4190
 2325TIP3    H228467   1.281   0.213  12.517 -0.4428  1.1398 -0.0682
 2326TIP3   OH228468   2.543   0.797   0.558 -0.0771 -0.1974  0.6900
 2326TIP3    H128469   2.533   0.702   0.555  2.1629 -0.4975 -1.8335
 2326TIP3    H228470   2.543   0.819   0.651  1.4303 -2.9751  1.4556
 2327TIP3   OH228471   6.228   3.223  15.901 -0.0151 -0.1456 -0.8511
 2327TIP3    H128472   6.258   3.144  15.945 -1.0867 -0.0825  0.0181
 2327TIP3    H228473   6.225   3.199  15.808  0.3529 -0.8936 -0.6722
 2328TIP3   OH228474   5.265   5.244  12.099 -0.3463 -0.1987  0.2621
 2328TIP3    H128475   5.204   5.314  12.123 -1.5424 -1.0660 -0.1323
 2328TIP3    H228476   5.302   5.271  12.016 -1.8544 -0.6393 -0.5855
 2329TIP3   OH228477   3.416   4.901   0.457 -0.2684  0.2591 -0.2934
 2329TIP3    H128478   3.511   4.894   0.470 -0.4069 -0.2937  0.5446
 2329TIP3    H228479   3.406   4.950   0.376  0.7565 -0.7549 -1.0642
 2330TIP3   OH228480   5.799   2.301  12.490  0.3481 -0.1156 -0.3127
 2330TIP3    H128481   5.819   2.210  12.467  0.8528 -0.3445  0.9569
 2330TIP3    H228482   5.727   2.325  12.432 -1.7872 -2.2949  1.2308
 2331TIP3   OH228483   2.025   0.081   6.492 -0.3930 -0.1519  0.5803
 2331TIP3    H128484   1.946   0.111   6.537 -1.7998  1.0454 -2.4559
 2331TIP3    H228485   2.077   0.161   6.480 -0.5219 -0.2633 -0.7774
 2332TIP3   OH228486   5.629   5.824   4.798 -0.2503 -0.1455 -0.1524
 2332TIP3    H128487   5.573   5.897   4.827  0.2774  0.3254 -0.3025
 2332TIP3    H228488   5.668   5.790   4.879 -0.5784 -0.3310 -0.0710
 2333TIP3   OH228489   6.444   2.116   3.957 -0.1251  0.0293 -0.2414
 2333TIP3    H128490   6.518   2.056   3.944 -0.4159 -0.2727 -0.5292
 2333TIP3    H228491   6.455   2.148   4.047 -0.1835 -0.7635  0.0578
 2334TIP3   OH228492   2.977   2.695  13.327  0.0337 -0.5383 -0.1641
 2334TIP3    H128493   2.941   2.742  13.402  0.2907 -1.5528  0.6172
 2334TIP3    H228494   2.906   2.692  13.264 -0.9804 -1.7154  0.9912
 2335TIP3   OH228495   2.178   2.552   3.321 -0.0465  0.6958 -0.1841
 2335TIP3    H128496   2.160   2.616   3.390 -0.6498 -2.5178  2.9347
 2335TIP3    H228497   2.107   2.488   3.329  1.8605 -1.7248 -1.3039
 2336TIP3   OH228498   6.222   3.436   2.418  0.5144 -0.2749 -0.4597
 2336TIP3    H128499   6.156   3.393   2.363  1.4431 -0.6915 -1.2741
 2336TIP3    H228500   6.218   3.389   2.501  0.5788 -1.0592 -0.8928
 2337TIP3   OH228501   0.253   5.677   0.722 -0.8230  0.6895 -0.6940
 2337TIP3    H128502   0.198   5.747   0.685 -3.4420 -0.3953  0.8222
 2337TIP3    H228503   0.243   5.686   0.817  0.0150 -0.8014 -0.4362
 2338TIP3   OH228504   3.091   6.102   2.462  0.0567 -0.2077 -0.4710
 2338TIP3    H128505   3.106   6.102   2.557 -2.5116  0.2191  0.0059
 2338TIP3    H228506   3.117   6.014   2.434 -2.0800 -1.5203  1.2575
 2339TIP3   OH228507   2.756   3.010   4.825 -0.0712  0.1177 -0.1412
 2339TIP3    H128508   2.747   2.968   4.740 -0.6880 -1.2852  0.5990
 2339TIP3    H228509   2.839   2.976   4.860 -0.2755 -0.0149  0.2146
 2340TIP3   OH228510   0.009   3.943   0.507  0.0465 -0.7068  0.5207
 2340TIP3    H128511   0.002   3.893   0.426  0.8140 -2.4060  1.4334
 2340TIP3    H228512   0.027   4.033   0.480  0.6967 -1.3234 -1.1753
 2341TIP3   OH228513   2.268   3.159  13.428  0.0582  0.0736  0.1529
 2341TIP3    H128514   2.320   3.135  13.352  1.3324  0.0816  0.9935
 2341TIP3    H228515   2.275   3.255  13.433  2.8368 -0.1161  2.1649
 2342TIP3   OH228516   3.457   2.180  11.241 -0.3975  0.2231 -0.2456
 2342TIP3    H128517   3.429   2.092  11.266  0.8174  0.0004  0.3817
 2342TIP3    H228518   3.551   2.181  11.257  0.0397  0.8871 -2.4819
 2343TIP3   OH228519   0.470   5.738   5.045  0.5562 -0.5331 -0.3937
 2343TIP3    H128520   0.465   5.769   5.136  1.8133  0.4541 -0.6308
 2343TIP3    H228521   0.386   5.695   5.030  0.0444 -0.0936  1.0131
 2344TIP3   OH228522   5.255   0.066  14.940  0.3973 -0.3002 -0.0817
 2344TIP3    H128523   5.338   0.114  14.944  0.4490 -0.4321  0.6266
 2344TIP3    H228524   5.275  -0.014  14.891  0.9131 -0.7323  0.7922
 2345TIP3   OH228525   0.339   2.852  13.577 -0.2420  0.1528 -0.6528
 2345TIP3    H128526   0.355   2.831  13.669 -0.8641  0.6705 -0.4167
 2345TIP3    H228527   0.390   2.787  13.528  0.6990  0.3388  0.0497
 2346TIP3   OH228528   0.401   0.103   2.962  0.5183  0.3491  0.3002
 2346TIP3    H128529   0.455   0.028   2.936  0.2473  0.3250 -0.1906
 2346TIP3    H228530   0.363   0.135   2.881  0.0380  0.5617  0.6048
 2347TIP3   OH228531   2.279   2.615   4.985  0.1643 -0.0982  0.0384
 2347TIP3    H128532   2.286   2.540   4.927 -2.3764  0.5739 -1.2564
 2347TIP3    H228533   2.281   2.577   5.073  0.6151 -1.4813 -0.5404
 2348TIP3   OH228534   4.544   5.023   1.782 -0.0377  0.0719  0.5723
 2348TIP3    H128535   4.519   4.937   1.748 -0.3367  0.6945 -0.8940
 2348TIP3    H228536   4.463   5.074   1.781  0.3585  0.7180  0.2721
 2349TIP3   OH228537   5.404   4.067   4.475  0.0088 -0.7052 -0.0794
 2349TIP3    H128538   5.457   4.073   4.554 -0.5480 -3.5248  0.6106
 2349TIP3    H228539   5.463   4.030   4.409 -0.3226 -1.1422 -0.1340
 2350TIP3   OH228540   0.342   3.153   0.686 -0.4008  0.3796  0.0332
 2350TIP3    H128541   0.339   3.138   0.780  0.7776  1.7456  0.3247
 2350TIP3    H228542   0.261   3.113   0.652 -0.8745 -0.0571  1.6168
 2351TIP3   OH228543   4.996   3.763   4.752 -0.0758 -0.0790  0.2030
 2351TIP3    H128544   5.032   3.805   4.674 -0.2797 -0.3304 -0.0278
 2351TIP3    H228545   5.070   3.716   4.790 -0.3498 -1.3540 -0.7755
 2352TIP3   OH228546   4.339   0.327   1.262  0.0712 -0.0568 -0.2872
 2352TIP3    H128547   4.401   0.316   1.189 -0.7351 -0.5546 -0.9067
 2352TIP3    H228548   4.296   0.242   1.269 -0.2016  0.1427  0.4627
 2353TIP3   OH228549   0.368   5.650  13.279 -0.5896  0.6079  0.0130
 2353TIP3    H128550   0.414   5.585  13.332 -1.6440 -0.9293 -0.8613
 2353TIP3    H228551   0.391   5.734  13.318  1.3526 -0.2276  0.7900
 2354TIP3   OH228552   1.514   3.079   3.006  0.5161  0.5999 -0.0795
 2354TIP3    H128553   1.424   3.081   2.975  0.2630  0.9537  0.6607
 2354TIP3    H228554   1.567   3.081   2.926 -0.1260 -0.6068 -0.5522
 2355TIP3   OH228555   3.461   2.932   4.196  0.2780 -0.2361 -0.1907
 2355TIP3    H128556   3.425   2.963   4.113  0.3501  0.8418  0.1609
 2355TIP3    H228557   3.392   2.879   4.235  0.0261 -0.2599 -0.6654
 2356TIP3   OH228558   3.569   3.077   3.958 -0.0388 -0.0636  0.4234
 2356TIP3    H128559   3.587   2.986   3.935 -1.1161 -0.4261  0.9223
 2356TIP3    H228560   3.647   3.126   3.930  0.8094 -1.2257  0.6967
 2357TIP3   OH228561   6.191   0.672   4.248 -0.6094  0.2364  0.4940
 2357TIP3    H128562   6.232   0.690   4.332  1.7896  2.7091 -1.0333
 2357TIP3    H228563   6.163   0.581   4.254  1.6305 -0.4200  3.1186
 2358TIP3   OH228564   2.192   0.547  11.397  0.0797 -0.2091 -0.2812
 2358TIP3    H128565   2.203   0.456  11.425  1.7887  0.7490  2.6524
 2358TIP3    H228566   2.225   0.550  11.308 -1.0444 -2.6183 -0.8628
 2359TIP3   OH228567   5.165   3.340  14.351  0.1859  0.2982 -0.1136
 2359TIP3    H128568   5.229   3.269  14.347  0.9639  1.0215 -0.9170
 2359TIP3    H228569   5.120   3.336  14.267  2.1217  2.4179 -1.3748
 2360TIP3   OH228570   4.811   2.956   4.240  0.1747  0.2780  0.1485
 2360TIP3    H128571   4.806   2.971   4.146  0.6077 -2.4998 -0.4023
 2360TIP3    H228572   4.830   2.862   4.249 -1.0657  0.1872  3.0363
 2361TIP3   OH228573   2.540   1.686   3.025  0.7168  0.1029  0.6112
 2361TIP3    H128574   2.483   1.667   3.100  2.6439 -0.3098  2.0264
 2361TIP3    H228575   2.548   1.602   2.980 -1.4323  0.5926 -0.8873
 2362TIP3   OH228576   0.307   3.156   3.429 -0.3650 -0.5843 -0.7674
 2362TIP3    H128577   0.377   3.208   3.468  1.3518 -1.4871 -2.5097
 2362TIP3    H228578   0.348   3.112   3.354 -2.9842 -0.4631 -2.4006
 2363TIP3   OH228579   1.697   2.651  15.159  0.3304 -0.2880  0.5448
 2363TIP3    H128580   1.680   2.595  15.083 -0.2689  1.0855 -0.3852
 2363TIP3    H228581   1.777   2.698  15.137  0.8732 -0.8165  1.3477
 2364TIP3   OH228582   6.209   2.938  14.459 -0.0125 -0.1708 -0.2444
 2364TIP3    H128583   6.255   2.960  14.540  0.5100  1.7235 -1.0024
 2364TIP3    H228584   6.276   2.942  14.391 -0.7978  0.1297 -1.0244
 2365TIP3   OH228585   1.598   4.659   5.054 -0.2285  0.0430 -0.3520
 2365TIP3    H128586   1.529   4.660   5.120 -0.4080  0.3296 -0.5443
 2365TIP3    H228587   1.677   4.684   5.101 -0.5841  1.5027 -0.5010
 2366TIP3   OH228588   2.556   6.786   0.990 -0.1885 -0.4143  0.4019
 2366TIP3    H128589   2.472   6.780   0.946 -0.5230  1.1591  0.7815
 2366TIP3    H228590   2.555   6.714   1.054 -1.5913  0.0852  0.9714
 2367TIP3   OH228591   0.360   0.290  15.072 -0.2917  0.2029  0.0660
 2367TIP3    H128592   0.375   0.237  15.150 -0.2511 -0.5835 -0.4649
 2367TIP3    H228593   0.319   0.231  15.010 -0.4258  0.8474 -0.4779
 2368TIP3   OH228594   2.385   5.073  13.956  0.5857  0.0157 -0.1722
 2368TIP3    H128595   2.334   5.132  13.901  1.4465  0.1191 -0.8751
 2368TIP3    H228596   2.414   5.127  14.029 -0.2523 -0.0318  0.2125
 2369TIP3   OH228597   2.896   4.711  13.620  0.8125 -0.7472 -0.2219
 2369TIP3    H128598   2.818   4.691  13.569  0.0310  1.7630 -0.1510
 2369TIP3    H228599   2.962   4.735  13.555  0.7525 -0.5246 -0.2045
 2370TIP3   OH228600   0.043   0.377   3.408 -0.2820  0.1584  0.6391
 2370TIP3    H128601   0.089   0.434   3.470 -2.3170  3.1215 -0.3734
 2370TIP3    H228602   0.054   0.420   3.323  0.1474 -2.3567 -0.6737
 2371TIP3   OH228603   0.759   0.841  16.557 -0.3399 -0.1134  0.2149
 2371TIP3    H128604   0.709   0.920  16.541 -0.8124  0.1216  2.5265
 2371TIP3    H228605   0.707   0.771  16.518 -1.8368  0.2876  1.4059
 2372TIP3   OH228606   3.637   1.871  11.814 -0.3520  0.6854 -0.0390
 2372TIP3    H128607   3.693   1.927  11.868 -0.5653  1.4720 -0.6138
 2372TIP3    H228608   3.591   1.815  11.876  0.3928  0.6623  0.5008
 2373TIP3   OH228609   5.573   2.916   4.617  0.1223  0.2173 -0.6302
 2373TIP3    H128610   5.612   3.002   4.627 -0.9473  0.9057 -2.0454
 2373TIP3    H228611   5.482   2.927   4.643  0.6949 -1.3121  2.4147
 2374TIP3   OH228612   2.414   0.788  13.961 -0.1366 -0.0900 -0.3653
 2374TIP3    H128613   2.365   0.708  13.981 -2.1715  1.1270 -0.1130
 2374TIP3    H228614   2.346   0.853  13.941  1.3181  2.0237  1.0972
 2375TIP3   OH228615   3.604   0.177   3.948 -0.0231  0.1189  0.3566
 2375TIP3    H128616   3.600   0.249   4.011 -1.9955  1.4035 -1.1414
 2375TIP3    H228617   3.586   0.099   4.000 -2.2932  1.2203  1.3343
 2376TIP3   OH228618   0.834   0.692   6.364  0.2985  0.2461  0.0099
 2376TIP3    H128619   0.790   0.747   6.430  1.1135 -0.8825  1.5640
 2376TIP3    H228620   0.893   0.751   6.319  2.0025  0.5143  2.4189
 2377TIP3   OH228621   1.559   0.530  13.038  0.9147  0.5265 -0.1565
 2377TIP3    H128622   1.533   0.599  13.099 -1.1368  0.8872 -1.3558
 2377TIP3    H228623   1.499   0.539  12.964  2.9442 -0.2538 -2.0036
 2378TIP3   OH228624   3.577   5.897   2.840 -0.4077 -0.4958 -0.4863
 2378TIP3    H128625   3.595   5.817   2.791  1.1242  0.0151 -0.8077
 2378TIP3    H228626   3.509   5.942   2.789  1.7879  0.4832 -2.7643
 2379TIP3   OH228627   0.625   4.385   5.961 -0.9797  0.1468 -0.7914
 2379TIP3    H128628   0.655   4.438   6.034 -0.0591 -0.2970 -0.8424
 2379TIP3    H228629   0.701   4.376   5.905 -0.3532 -3.2813  0.4168
 2380TIP3   OH228630   1.514   1.309   4.511 -0.0547 -0.0355  0.4917
 2380TIP3    H128631   1.432   1.261   4.499  1.2213 -1.7559 -2.6795
 2380TIP3    H228632   1.581   1.250   4.476  1.8745  3.2952 -2.0233
 2381TIP3   OH228633   5.775   0.593   1.430 -0.4931 -0.1985 -0.0350
 2381TIP3    H128634   5.781   0.620   1.522  0.1415  1.0098 -0.4141
 2381TIP3    H228635   5.865   0.595   1.398 -0.7121 -0.5686 -0.7000
 2382TIP3   OH228636   0.192   5.316  15.855  0.8454  0.7822 -0.1372
 2382TIP3    H128637   0.269   5.332  15.800  2.1548  0.4960  1.5289
 2382TIP3    H228638   0.193   5.222  15.870  0.6365  0.8848  0.5445
 2383TIP3   OH228639   5.418   3.656  13.289  0.0535  0.5634 -0.2101
 2383TIP3    H128640   5.330   3.664  13.253  0.0004 -0.3476 -0.3060
 2383TIP3    H228641   5.406   3.653  13.384 -0.2327 -1.6298 -0.2650
 2384TIP3   OH228642   4.298   1.895  15.052 -0.0503 -0.4160 -0.1265
 2384TIP3    H128643   4.381   1.941  15.066  0.4396 -1.7082  1.5574
 2384TIP3    H228644   4.320   1.823  14.993 -0.5527  0.6968 -1.7363
 2385TIP3   OH228645   3.312   3.174   4.913  0.1120 -0.6776  0.5931
 2385TIP3    H128646   3.303   3.119   4.835 -2.3290  0.5641 -0.1247
 2385TIP3    H228647   3.291   3.117   4.986 -0.0382 -1.2629  0.0993
 2386TIP3   OH228648   3.547   4.584  12.901 -0.2547 -0.0393 -0.2832
 2386TIP3    H128649   3.548   4.511  12.838 -2.2882  1.0844 -1.7365
 2386TIP3    H228650   3.465   4.573  12.948 -0.6413  1.3450 -0.6017
 2387TIP3   OH228651   6.359   2.836   3.993 -0.1286  0.2623  0.1462
 2387TIP3    H128652   6.345   2.881   4.076 -0.6181 -0.5902  0.5367
 2387TIP3    H228653   6.450   2.807   3.997  0.6822  2.5038 -0.7647
 2388TIP3   OH228654   0.475   1.386  17.073  0.3943 -0.1794 -0.2653
 2388TIP3    H128655   0.506   1.299  17.099 -0.7749 -0.7436 -0.7186
 2388TIP3    H228656   0.508   1.444  17.142  2.5197 -0.7145 -0.7594
 2389TIP3   OH228657   6.767   1.589  16.653  0.3859  0.1495  0.3767
 2389TIP3    H128658   6.781   1.500  16.620  0.4574  0.1853  0.3110
 2389TIP3    H228659   6.812   1.645  16.591  1.2738  0.1646  1.0173
 2390TIP3   OH228660   0.621   1.283  12.275 -0.5493  0.4387 -0.4967
 2390TIP3    H128661   0.660   1.281  12.363 -2.3194  0.5235  0.3421
 2390TIP3    H228662   0.633   1.194  12.242  0.9093  0.6348 -0.5562
 2391TIP3   OH228663   1.329   5.990  11.735  0.6833  0.0060 -0.0281
 2391TIP3    H128664   1.287   6.061  11.687 -1.7506 -1.8523 -0.8512
 2391TIP3    H228665   1.385   5.947  11.670 -0.4846 -0.8273 -0.5315
 2392TIP3   OH228666   2.844   1.425   5.698 -0.1731 -0.0704  0.2449
 2392TIP3    H128667   2.836   1.351   5.638  0.0796  1.7132 -2.1242
 2392TIP3    H228668   2.772   1.413   5.761  0.9239 -3.1881  1.0395
 2393TIP3   OH228669   4.533   3.836   3.101 -0.0241  0.6312  0.1416
 2393TIP3    H128670   4.556   3.881   3.183  0.4699 -0.1713  0.4549
 2393TIP3    H228671   4.617   3.828   3.055  0.0991 -0.9641  0.6013
 2394TIP3   OH228672   2.203   0.112  15.203  0.4381  0.0918  0.7895
 2394TIP3    H128673   2.173   0.166  15.277  0.4616  0.0703  0.8148
 2394TIP3    H228674   2.167   0.025  15.221 -0.3813  0.3124  0.2751
 2395TIP3   OH228675   2.283   4.427  15.654 -0.7541  0.2105  0.0626
 2395TIP3    H128676   2.346   4.397  15.589 -0.0177  0.9705  0.3935
 2395TIP3    H228677   2.216   4.359  15.657  0.1150 -0.6839 -0.2223
 2396TIP3   OH228678   0.659   1.331   5.957 -0.2340  0.7005 -0.3290
 2396TIP3    H128679   0.684   1.415   5.917 -0.8199  0.3850 -1.4081
 2396TIP3    H228680   0.568   1.344   5.985  0.1436  0.8880  0.8600
 2397TIP3   OH228681   4.479   2.791  16.236 -0.4364  0.2240 -0.0813
 2397TIP3    H128682   4.548   2.844  16.277 -0.1513 -0.1484 -0.0709
 2397TIP3    H228683   4.520   2.706  16.221 -0.2386  0.6262 -2.0188
 2398TIP3   OH228684   3.549   0.967   0.505 -0.0310 -0.0031 -0.1557
 2398TIP3    H128685   3.607   0.890   0.503  0.4634  0.2717  1.7860
 2398TIP3    H228686   3.609   1.042   0.512 -0.5593  0.4538 -0.4468
 2399TIP3   OH228687   6.308   5.789   0.855  0.4634  0.1573 -0.1788
 2399TIP3    H128688   6.232   5.846   0.858  0.3111 -0.0778  0.6068
 2399TIP3    H228689   6.355   5.806   0.937  0.5702 -0.6322 -0.0662
 2400TIP3   OH228690   2.491   0.145  16.795  0.3226  0.2722 -0.1215
 2400TIP3    H128691   2.445   0.077  16.745  0.3212  0.0201  0.2183
 2400TIP3    H228692   2.421   0.200  16.830  0.2138 -0.6367  1.1473
 2401TIP3   OH228693   4.605   1.500   1.071 -0.4254  0.3141  0.0598
 2401TIP3    H128694   4.686   1.475   1.115 -0.5036  0.7239  0.4441
 2401TIP3    H228695   4.557   1.551   1.136 -0.9264  0.2049 -0.2158
 2402TIP3   OH228696   6.154   1.572   5.876 -0.1800 -0.0423 -0.3474
 2402TIP3    H128697   6.122   1.628   5.947 -0.4201 -1.0323  0.3464
 2402TIP3    H228698   6.224   1.521   5.916  1.5133  1.2636 -1.5411
 2403TIP3   OH228699   5.702   1.785   5.528  0.3710 -0.1043  0.1872
 2403TIP3    H128700   5.686   1.780   5.622 -1.0370 -0.8235 -0.0540
 2403TIP3    H228701   5.625   1.829   5.493  1.0468  0.4837 -0.6081
 2404TIP3   OH228702   2.946   6.807   1.461  0.1109 -0.1168 -0.6343
 2404TIP3    H128703   2.890   6.841   1.531  1.4711  0.0307  0.4210
 2404TIP3    H228704   3.005   6.879   1.441  1.2392 -0.9283 -0.2910
 2405TIP3   OH228705   4.652   3.850  13.969  0.2363 -0.4214  0.0499
 2405TIP3    H128706   4.626   3.885  13.884  2.5576  1.7652  0.1339
 2405TIP3    H228707   4.678   3.926  14.020  3.0251 -1.9988  1.1890
 2406TIP3   OH228708   4.328   4.005  15.653  0.3838 -0.0396  0.4519
 2406TIP3    H128709   4.268   3.940  15.689  1.0925 -0.5018  0.8136
 2406TIP3    H228710   4.274   4.084  15.643 -0.5054 -0.6987 -0.0870
 2407TIP3   OH228711   3.066   6.522  16.390 -0.3670 -0.2411 -0.2837
 2407TIP3    H128712   3.002   6.589  16.415 -1.7756 -0.7946 -2.1920
 2407TIP3    H228713   3.016   6.460  16.337  1.2741 -1.9327  0.0526
 2408TIP3   OH228714   3.698   6.141   2.110 -0.3517 -0.1555  0.3332
 2408TIP3    H128715   3.612   6.112   2.142 -0.4926  0.7616  0.8216
 2408TIP3    H228716   3.761   6.085   2.156 -0.5833  0.7500  1.8380
 2409TIP3   OH228717   4.199   6.151  16.922 -0.0504  0.4921  0.6752
 2409TIP3    H128718   4.184   6.090  16.995 -0.6774 -0.2467 -0.0508
 2409TIP3    H228719   4.112   6.187  16.904  0.2809  1.4500  0.9558
 2410TIP3   OH228720   2.393   6.728  11.748 -0.3089  0.5409  0.1716
 2410TIP3    H128721   2.463   6.689  11.695  0.1010  1.4164  0.0553
 2410TIP3    H228722   2.316   6.723  11.692  0.1843  1.7207 -0.6425
 2411TIP3   OH228723   6.346   0.397   3.331 -0.3802  0.2114 -0.6344
 2411TIP3    H128724   6.265   0.370   3.287  0.2042  1.3390 -2.5436
 2411TIP3    H228725   6.416   0.367   3.272  0.7023 -1.4909  1.3735
 2412TIP3   OH228726   3.436   4.238   2.912  0.1827 -0.1031 -0.7345
 2412TIP3    H128727   3.433   4.159   2.858  0.0621 -0.3875 -0.3236
 2412TIP3    H228728   3.507   4.290   2.874  1.7897 -1.4159  0.3116
 2413TIP3   OH228729   1.926   1.129   3.529 -0.8000 -0.1321 -0.2714
 2413TIP3    H128730   1.943   1.042   3.566  2.3983  0.0454 -0.9831
 2413TIP3    H228731   1.951   1.190   3.598 -0.1651  0.1963 -0.7815
 2414TIP3   OH228732   3.119   2.541   1.580  0.3838 -0.2150 -0.6654
 2414TIP3    H128733   3.052   2.607   1.596  0.6821 -0.2079  0.6593
 2414TIP3    H228734   3.199   2.592   1.562  0.5399 -0.1947  0.0378
 2415TIP3   OH228735   3.935   0.950   3.055  0.4198 -0.4562  0.6995
 2415TIP3    H128736   3.842   0.967   3.067 -0.3164 -1.5842 -2.4184
 2415TIP3    H228737   3.969   0.935   3.143 -2.6631 -1.5125  1.8329
 2416TIP3   OH228738   0.241   3.928  16.446 -0.1496 -0.2581 -0.5057
 2416TIP3    H128739   0.256   3.842  16.406 -1.1418 -0.2188 -0.9757
 2416TIP3    H228740   0.323   3.976  16.429  1.1730 -1.6838  1.3786
 2417TIP3   OH228741   1.059   3.883  15.942  0.1757 -0.3126 -1.3345
 2417TIP3    H128742   1.002   3.809  15.921 -0.8788 -0.0193  0.2706
 2417TIP3    H228743   1.027   3.954  15.887 -1.3720 -0.0283 -0.1334
 2418TIP3   OH228744   4.061   2.695  17.088 -0.5628 -0.0792 -0.5039
 2418TIP3    H128745   4.032   2.671  16.999  1.0526  0.7312 -1.2901
 2418TIP3    H228746   4.137   2.640  17.104 -0.2023  0.5304 -0.0670
 2419TIP3   OH228747   5.215   4.520  12.269 -0.2338  0.2539 -0.6773
 2419TIP3    H128748   5.127   4.556  12.262  0.1407  1.1707 -0.8331
 2419TIP3    H228749   5.243   4.543  12.357 -0.1210  0.0276 -0.6537
 2420TIP3   OH228750   2.878   0.028   0.297 -0.5735  0.1772 -0.4824
 2420TIP3    H128751   2.826   0.104   0.271 -1.5512 -0.1492  0.4399
 2420TIP3    H228752   2.824  -0.017   0.362  1.7204  0.9649  2.1663
 2421TIP3   OH228753   6.015   1.441   4.871 -0.6163  0.0818  0.2253
 2421TIP3    H128754   6.107   1.464   4.866 -0.3326 -0.7688  1.2806
 2421TIP3    H228755   5.977   1.503   4.933 -0.5408 -0.2205  0.5727
 2422TIP3   OH228756   3.228   6.531  15.254 -0.0748 -0.6984 -0.0184
 2422TIP3    H128757   3.323   6.525  15.249 -0.0415  0.5618 -1.4043
 2422TIP3    H228758   3.197   6.482  15.177 -0.4049  1.2657 -1.2004
 2423TIP3   OH228759   5.822   1.436  13.829 -0.3093  0.6341 -0.7392
 2423TIP3    H128760   5.791   1.514  13.873  1.3295  1.3769 -0.8405
 2423TIP3    H228761   5.842   1.374  13.899  0.1127  0.9747 -0.5578
 2424TIP3   OH228762   4.044   2.473   5.448 -0.1975 -0.1262 -0.2043
 2424TIP3    H128763   4.029   2.412   5.375  0.7843 -1.4530  0.6391
 2424TIP3    H228764   3.979   2.447   5.514  0.0492 -0.0795  0.0563
 2425TIP3   OH228765   2.118   0.491  13.427 -0.6848 -0.3021  0.5448
 2425TIP3    H128766   2.048   0.464  13.486 -0.0054 -0.2120  1.4111
 2425TIP3    H228767   2.197   0.488  13.481 -0.0723 -0.0587 -0.3213
 2426TIP3   OH228768   1.587   5.442   4.630  0.4504 -0.0766  0.1414
 2426TIP3    H128769   1.505   5.394   4.644  1.0291 -1.2890 -0.4110
 2426TIP3    H228770   1.596   5.498   4.707 -0.1275 -1.0720  0.9566
 2427TIP3   OH228771   3.996   2.448  15.960  0.2227 -0.0433 -0.2849
 2427TIP3    H128772   3.977   2.355  15.973 -1.0976  0.0922 -1.0073
 2427TIP3    H228773   3.926   2.478  15.901  0.0366  1.6329  0.7316
 2428TIP3   OH228774   2.391   5.094  12.286 -0.2378  0.6319  0.1114
 2428TIP3    H128775   2.368   5.166  12.345 -1.4798  0.1282  0.2681
 2428TIP3    H228776   2.309   5.071  12.243  0.2191 -0.4503 -0.2199
 2429TIP3   OH228777   5.048   5.034   5.060 -0.1065  0.3542 -0.2749
 2429TIP3    H128778   5.047   5.108   5.121 -3.6289 -0.0787  0.4082
 2429TIP3    H228779   4.970   5.046   5.006 -0.0393 -2.1379 -1.0604
 2430TIP3   OH228780   3.931   4.491  14.425 -0.0619 -0.1186 -0.3119
 2430TIP3    H128781   3.885   4.574  14.439 -0.5300 -0.5315  0.6836
 2430TIP3    H228782   3.983   4.506  14.346 -1.1119  0.6977 -0.8800
 2431TIP3   OH228783   5.225   4.937   3.080 -0.3679 -0.1163 -0.3867
 2431TIP3    H128784   5.189   4.900   2.999  0.3953  1.0325 -1.2906
 2431TIP3    H228785   5.298   4.991   3.051  1.6010 -1.6996  1.3053
 2432TIP3   OH228786   6.329   2.462   2.190 -0.3972  0.7421 -0.2594
 2432TIP3    H128787   6.368   2.407   2.258 -1.0802 -1.3566 -1.4874
 2432TIP3    H228788   6.368   2.548   2.205  1.3908 -0.2305  1.2243
 2433TIP3   OH228789   6.415   2.831   5.051 -0.1176  0.1873  0.6249
 2433TIP3    H128790   6.386   2.922   5.063 -2.4252 -0.5956  1.5419
 2433TIP3    H228791   6.483   2.836   4.984 -1.6507  2.3454 -0.8875
 2434TIP3   OH228792   5.796   1.928   6.232  0.4767 -0.6329  0.1858
 2434TIP3    H128793   5.871   1.982   6.257 -1.6683  1.5328  2.4882
 2434TIP3    H228794   5.825   1.838   6.248  2.7448  0.0667  0.3886
 2435TIP3   OH228795   1.352   6.368   0.265 -0.2618 -0.4883 -0.2775
 2435TIP3    H128796   1.337   6.359   0.359 -1.1956 -1.4849 -0.4982
 2435TIP3    H228797   1.436   6.325   0.249 -0.0951 -0.3032  0.0943
 2436TIP3   OH228798   5.915   5.470   3.504  0.3852  0.0238  0.1114
 2436TIP3    H128799   5.836   5.523   3.500  0.8899  0.7336 -1.4408
 2436TIP3    H228800   5.891   5.393   3.556 -1.3402  0.1809 -0.4170
 2437TIP3   OH228801   4.275   5.502   1.586  0.4244 -0.4807 -0.0797
 2437TIP3    H128802   4.197   5.511   1.531 -0.1982  0.5526  0.9289
 2437TIP3    H228803   4.335   5.449   1.534 -1.2549 -2.0148 -0.5736
 2438TIP3   OH228804   3.948   6.515  17.201  0.0585 -0.2018 -0.3142
 2438TIP3    H128805   4.010   6.464  17.253  0.6240  1.7653  1.0757
 2438TIP3    H228806   4.003   6.566  17.141 -0.3906 -0.2670 -0.7853
 2439TIP3   OH228807   5.155   5.483  15.444 -0.0906  0.8491  0.9721
 2439TIP3    H128808   5.170   5.489  15.539  0.4311 -1.5761  1.1138
 2439TIP3    H228809   5.064   5.512  15.433 -0.4678  0.3104  2.3793
 2440TIP3   OH228810   5.471   2.578  14.509  0.1696  0.1569  0.0202
 2440TIP3    H128811   5.531   2.519  14.554  0.1823  0.5772  0.5625
 2440TIP3    H228812   5.386   2.562  14.552 -0.0217 -0.1375 -0.4621
 2441TIP3   OH228813   4.238   4.129  14.580  0.6655 -0.4677  0.0570
 2441TIP3    H128814   4.185   4.057  14.615  0.5826 -0.8289 -0.7912
 2441TIP3    H228815   4.327   4.095  14.582  0.9088  0.1910  1.6126
 2442TIP3   OH228816   2.095   4.027   2.866  0.4404 -0.1011  0.2723
 2442TIP3    H128817   2.085   4.054   2.775 -0.5613  0.1819  0.4480
 2442TIP3    H228818   2.106   4.109   2.914 -1.9768  0.0384  0.7319
 2443TIP3   OH228819   6.270   1.596   0.600 -0.4503 -0.6879  0.1396
 2443TIP3    H128820   6.198   1.533   0.590 -1.1011 -0.3491  2.1548
 2443TIP3    H228821   6.235   1.663   0.658  0.9356  0.4381 -0.2798
 2444TIP3   OH228822   1.612   2.286   0.152  0.6282  0.0264  0.1450
 2444TIP3    H128823   1.673   2.216   0.174  1.1816  1.0178  1.9297
 2444TIP3    H228824   1.532   2.266   0.202  0.2547 -0.1081 -0.4930
 2445TIP3   OH228825   2.666   1.489   4.598  0.3050 -0.2319  0.5664
 2445TIP3    H128826   2.595   1.428   4.619 -0.0671 -0.2488 -0.6378
 2445TIP3    H228827   2.628   1.576   4.607  0.7170 -0.1595  1.8662
 2446TIP3   OH228828   6.438   2.135   3.426  0.2998 -0.2119 -0.3936
 2446TIP3    H128829   6.497   2.060   3.419  0.0509 -0.3996 -0.5357
 2446TIP3    H228830   6.466   2.181   3.505  0.9785  0.0085 -0.7597
 2447TIP3   OH228831   2.058   5.309  14.520  0.1094 -0.3484 -0.0256
 2447TIP3    H128832   1.987   5.248  14.539  0.1860  0.0162  1.5914
 2447TIP3    H228833   2.108   5.267  14.450 -0.7739 -1.3677 -0.0680
 2448TIP3   OH228834   3.938   1.655   2.580  0.5834 -0.4262 -0.2686
 2448TIP3    H128835   3.865   1.594   2.579  0.1289  0.1059 -1.4964
 2448TIP3    H228836   3.927   1.705   2.661  1.3143 -2.3458  1.0682
 2449TIP3   OH228837   1.562   2.793  13.049  0.2427 -0.3290  0.2988
 2449TIP3    H128838   1.634   2.848  13.080 -0.1478  2.0011 -2.4892
 2449TIP3    H228839   1.485   2.826  13.095  0.6300 -1.7524  2.0776
 2450TIP3   OH228840   0.585   1.855   0.134  0.7603  0.0454 -0.4715
 2450TIP3    H128841   0.602   1.769   0.097 -1.0053 -0.4010 -0.3449
 2450TIP3    H228842   0.490   1.865   0.129  0.6778  0.9830  1.6752
 2451TIP3   OH228843   5.355   2.288   4.654 -0.7612  0.2687 -0.2126
 2451TIP3    H128844   5.414   2.360   4.631  0.2474  0.4639  2.5913
 2451TIP3    H228845   5.268   2.326   4.649 -0.5020  0.6947 -1.9939
 2452TIP3   OH228846   0.211   0.978   3.574 -0.2796 -0.5122  0.5836
 2452TIP3    H128847   0.242   1.061   3.611  0.4110 -0.8842  0.8462
 2452TIP3    H228848   0.274   0.913   3.603 -0.9677 -1.1873  0.6022
 2453TIP3   OH228849   4.622   1.551  13.594  0.3484 -0.5670  0.1017
 2453TIP3    H128850   4.694   1.492  13.572  0.2590 -0.1912 -1.2863
 2453TIP3    H228851   4.664   1.629  13.631  0.5247 -1.0460  0.9487
 2454TIP3   OH228852   1.334   6.149  14.378 -0.1847  0.1664 -0.8352
 2454TIP3    H128853   1.240   6.164  14.371 -0.3336  0.6059  1.3440
 2454TIP3    H228854   1.374   6.233  14.355 -0.4561  0.6103  0.2577
 2455TIP3   OH228855   2.141   6.545  14.024  0.0584 -0.3006  0.5713
 2455TIP3    H128856   2.057   6.577  14.057 -0.0587 -1.2805  1.2841
 2455TIP3    H228857   2.136   6.558  13.930  0.4572  2.7388  0.8572
 2456TIP3   OH228858   6.403   1.298   3.411 -0.1046 -0.4306  0.0998
 2456TIP3    H128859   6.335   1.345   3.460 -1.6460 -3.3628  0.9676
 2456TIP3    H228860   6.371   1.296   3.321  1.0725  1.9821 -0.4537
 2457TIP3   OH228861   2.004   1.131   2.556  0.1768 -0.7741 -0.1218
 2457TIP3    H128862   2.079   1.084   2.593 -0.3467 -1.8684 -0.4134
 2457TIP3    H228863   1.955   1.064   2.508 -0.5794  0.0826 -0.5746
 2458TIP3   OH228864   3.127   0.796   0.330 -0.5276 -0.3817 -0.1910
 2458TIP3    H128865   3.154   0.706   0.314  1.4552 -0.0100  0.7180
 2458TIP3    H228866   3.184   0.826   0.400 -1.3207  1.5043 -0.2875
 2459TIP3   OH228867   1.595   2.312   5.677  0.1586 -0.4965 -0.1804
 2459TIP3    H128868   1.639   2.229   5.695 -1.9171 -1.6325  0.0839
 2459TIP3    H228869   1.563   2.302   5.587  2.7803  1.4783 -1.4544
 2460TIP3   OH228870   3.937   1.662  11.737  0.5513 -0.0907 -0.0801
 2460TIP3    H128871   3.930   1.753  11.707 -1.3365 -1.2786 -3.9084
 2460TIP3    H228872   3.846   1.632  11.745  1.1356 -1.9585 -0.0051
 2461TIP3   OH228873   4.772   1.316   6.610  0.3933  0.1622  0.1297
 2461TIP3    H128874   4.739   1.405   6.606  1.3075  0.5732  1.0924
 2461TIP3    H228875   4.697   1.261   6.590 -0.3012  1.1342  0.0148
 2462TIP3   OH228876   6.538   3.485   2.740 -0.3090  0.0211 -0.1848
 2462TIP3    H128877   6.493   3.456   2.820 -0.2773 -0.1691 -0.2348
 2462TIP3    H228878   6.479   3.551   2.703  0.1623  0.8596  0.5304
 2463TIP3   OH228879   0.491   3.254  11.219 -0.1426 -0.6691 -0.5732
 2463TIP3    H128880   0.464   3.174  11.264  1.4178 -0.0894  1.5775
 2463TIP3    H228881   0.434   3.259  11.142 -5.5915 -0.0071  2.9406
 2464TIP3   OH228882   3.231   5.666  15.662 -0.6450  0.1653 -0.0256
 2464TIP3    H128883   3.230   5.707  15.748 -0.3895 -1.8785  0.9992
 2464TIP3    H228884   3.140   5.663  15.635 -0.9832 -1.1043  1.1628
 2465TIP3   OH228885   1.774   3.887   6.242 -0.2974  0.0227  0.6323
 2465TIP3    H128886   1.832   3.816   6.269  0.6679  1.4024  2.3301
 2465TIP3    H228887   1.828   3.966   6.245 -1.7814  1.0945  0.4465
 2466TIP3   OH228888   1.454   1.893  13.046  0.2503 -0.3092  0.3848
 2466TIP3    H128889   1.529   1.888  13.105  1.4076  0.0692 -0.9950
 2466TIP3    H228890   1.434   1.987  13.041 -0.1810 -0.3910  0.5903
 2467TIP3   OH228891   4.220   3.629  11.757  0.1352  0.3042  0.0027
 2467TIP3    H128892   4.259   3.592  11.678  1.2373 -1.0275  1.0964
 2467TIP3    H228893   4.188   3.553  11.806  1.4081  0.8385  1.8035
 2468TIP3   OH228894   0.767   2.638   5.010 -0.2011 -0.9146 -0.3369
 2468TIP3    H128895   0.712   2.717   5.005  0.0139 -0.7824 -0.6683
 2468TIP3    H228896   0.718   2.573   4.960 -0.7474 -1.2192  0.5756
 2469TIP3   OH228897   6.669   3.078   1.493  0.0689  0.1631  0.0188
 2469TIP3    H128898   6.637   3.147   1.552 -0.1122  1.1312 -1.1575
 2469TIP3    H228899   6.627   3.098   1.409  0.7769 -0.8318 -0.5880
 2470TIP3   OH228900   4.410   4.215  12.381  0.5127  0.2835  0.3138
 2470TIP3    H128901   4.467   4.155  12.333  1.2015  1.6056 -0.5975
 2470TIP3    H228902   4.331   4.222  12.328  0.0433 -0.5217  0.8959
 2471TIP3   OH228903   4.076   1.683  11.433  0.0258  0.0644 -0.0418
 2471TIP3    H128904   4.141   1.616  11.412 -0.3217 -1.0170  2.0506
 2471TIP3    H228905   3.993   1.645  11.406 -0.2244 -0.6055  1.5519
 2472TIP3   OH228906   0.011   4.132  13.815  0.4358  0.8167  0.3960
 2472TIP3    H128907  -0.048   4.085  13.873  0.2067 -2.7001 -2.3157
 2472TIP3    H228908   0.098   4.120  13.854  0.0011  1.0648  1.4719
 2473TIP3   OH228909   2.169   0.371   3.972  0.0128 -0.6754 -0.5848
 2473TIP3    H128910   2.260   0.401   3.966  0.2815 -1.2038  0.5373
 2473TIP3    H228911   2.142   0.359   3.881  1.4791 -1.7189 -0.9314
 2474TIP3   OH228912   5.259   6.476   5.087 -0.3842 -0.1858 -0.5369
 2474TIP3    H128913   5.244   6.472   5.182 -1.4774 -3.0172 -0.7402
 2474TIP3    H228914   5.176   6.508   5.051 -0.6301 -0.9655 -0.6624
 2475TIP3   OH228915   0.475   1.043  14.625 -0.1873  0.6385 -0.3875
 2475TIP3    H128916   0.563   1.069  14.598  0.3300  0.8659  1.3614
 2475TIP3    H228917   0.453   0.970  14.568  0.8433  1.0472 -1.3375
 2476TIP3   OH228918   3.407   5.713   0.274  0.1173 -0.1221  0.7704
 2476TIP3    H128919   3.480   5.762   0.312 -0.9500  0.9812  1.4794
 2476TIP3    H228920   3.366   5.668   0.347  0.2291 -0.9524  0.3364
 2477TIP3   OH228921   6.338   1.594   2.556 -0.5210  0.2139  0.2634
 2477TIP3    H128922   6.259   1.544   2.575 -1.4058  1.3766 -0.2518
 2477TIP3    H228923   6.408   1.528   2.555 -1.5449 -0.9112  0.2495
 2478TIP3   OH228924   4.152   2.981  14.520 -0.3731  0.7147  0.5144
 2478TIP3    H128925   4.124   3.017  14.436  0.8468  1.0583  0.2371
 2478TIP3    H228926   4.155   3.057  14.579  1.6716  1.0144  0.0725
 2479TIP3   OH228927   6.004   1.523   0.962 -0.5661  0.1250 -0.0559
 2479TIP3    H128928   6.090   1.500   0.926 -0.8311 -0.1195 -0.5562
 2479TIP3    H228929   5.977   1.445   1.011 -0.8303 -0.0849 -0.5323
 2480TIP3   OH228930   6.640   4.208   1.245 -0.1216 -0.1106 -0.1010
 2480TIP3    H128931   6.707   4.268   1.214 -1.2231  1.3454  0.2091
 2480TIP3    H228932   6.669   4.184   1.334  0.4726 -0.2900 -0.3380
 2481TIP3   OH228933   3.236   6.552   0.239  0.4713  0.3981  0.0898
 2481TIP3    H128934   3.207   6.643   0.231 -1.7733  0.0155  2.4840
 2481TIP3    H228935   3.197   6.507   0.164  1.8067  1.3779 -1.2519
 2482TIP3   OH228936   0.503   3.976   5.213 -0.1202  0.0278 -0.2509
 2482TIP3    H128937   0.474   4.004   5.300 -1.3461  0.2943 -0.7218
 2482TIP3    H228938   0.547   4.053   5.177  1.5162 -0.4788  0.5920
 2483TIP3   OH228939   6.299   4.244  12.035  0.2511  0.0299  0.2952
 2483TIP3    H128940   6.345   4.241  11.951  1.4116 -2.8506  0.8850
 2483TIP3    H228941   6.354   4.190  12.093 -2.6080 -1.5170  1.7443
 2484TIP3   OH228942   3.891   2.593   2.752 -0.1631  0.5479  0.1564
 2484TIP3    H128943   3.920   2.666   2.698  0.4086 -1.0316 -1.7778
 2484TIP3    H228944   3.859   2.634   2.833  1.0379  2.8347 -0.4481
 2485TIP3   OH228945   0.955   1.000   2.188  0.2907  0.0581 -0.2195
 2485TIP3    H128946   1.014   1.014   2.113 -0.7976  1.1621 -0.8941
 2485TIP3    H228947   0.875   0.965   2.149  0.0742 -0.3423  0.5637
 2486TIP3   OH228948   3.976   1.822  16.320 -0.0552  0.2197 -0.0765
 2486TIP3    H128949   3.919   1.810  16.244  0.0588 -0.3233 -0.0772
 2486TIP3    H228950   4.023   1.739  16.328 -1.1870 -0.3200  1.4976
 2487TIP3   OH228951   1.633   1.017  12.651 -0.1572 -0.7212  0.2204
 2487TIP3    H128952   1.590   1.023  12.566 -0.8555 -1.9220  0.4616
 2487TIP3    H228953   1.601   1.093  12.699  1.2334  0.6951 -0.9853
 2488TIP3   OH228954   4.280   2.593  15.848  0.6435 -0.1486  0.6403
 2488TIP3    H128955   4.280   2.593  15.943 -0.8078  2.6901  0.7599
 2488TIP3    H228956   4.188   2.579  15.824  0.5235  1.7022 -0.1886
 2489TIP3   OH228957   0.567   2.059  12.760  0.0104  0.4000 -0.0466
 2489TIP3    H128958   0.535   2.053  12.850 -0.2579  1.1520 -0.0821
 2489TIP3    H228959   0.648   2.110  12.766  1.3649 -1.6440  0.0608
 2490TIP3   OH228960   4.765   6.545   3.214 -0.6728  0.3000 -0.2607
 2490TIP3    H128961   4.673   6.566   3.228 -0.4720  0.4386  0.8850
 2490TIP3    H228962   4.814   6.610   3.264  0.0650  0.3119 -0.9638
 2491TIP3   OH228963   5.777   3.093  15.090 -0.3623 -0.0048 -0.0607
 2491TIP3    H128964   5.867   3.126  15.094  1.1616 -3.6661  0.9527
 2491TIP3    H228965   5.735   3.129  15.169  0.4999  1.0296 -0.0532
 2492TIP3   OH228966   3.969   6.291   2.613  0.9413  0.1694 -0.2663
 2492TIP3    H128967   4.031   6.224   2.640 -0.1206 -0.9369 -0.4525
 2492TIP3    H228968   3.996   6.316   2.525  0.1861 -1.5235 -1.0247
 2493TIP3   OH228969   6.646   1.189  10.895  0.0240  0.3766  0.3474
 2493TIP3    H128970   6.652   1.150  10.982 -1.2548 -0.8135 -0.0709
 2493TIP3    H228971   6.705   1.137  10.841  1.7667  1.8646  0.6980
 2494TIP3   OH228972   1.117   4.193   3.797 -0.3057  0.0673 -0.5515
 2494TIP3    H128973   1.112   4.115   3.852  1.7883  0.3743  0.2028
 2494TIP3    H228974   1.157   4.162   3.716  0.6495  0.3463 -0.2010
 2495TIP3   OH228975   1.030   2.344  13.267 -0.0752  0.0684  0.1991
 2495TIP3    H128976   0.975   2.420  13.247  0.3649  0.5961  0.9707
 2495TIP3    H228977   1.001   2.277  13.204 -0.6226  0.7901 -0.3376
 2496TIP3   OH228978   6.374   4.947   1.823 -0.2607 -0.1890  0.3661
 2496TIP3    H128979   6.290   4.968   1.782 -1.1722 -1.3284  1.5980
 2496TIP3    H228980   6.367   4.982   1.911  0.1383 -1.2090  0.8188
 2497TIP3   OH228981   1.472   6.085   1.697 -0.2178  0.0932 -0.5507
 2497TIP3    H128982   1.462   6.032   1.618 -2.6423  0.3896 -0.5273
 2497TIP3    H228983   1.540   6.149   1.675  0.0516 -0.6334 -1.9337
 2498TIP3   OH228984   6.329   3.657  14.376 -0.0017 -0.3327 -0.1195
 2498TIP3    H128985   6.260   3.638  14.438 -0.1650  1.1519  0.1998
 2498TIP3    H228986   6.284   3.695  14.300  0.3043 -1.0238 -0.6563
 2499TIP3   OH228987   4.131   2.877   4.969  0.1501  0.0521  0.2157
 2499TIP3    H128988   4.045   2.890   4.929 -0.0438 -0.6800  0.3751
 2499TIP3    H228989   4.190   2.860   4.895  0.2720  1.1016  0.0647
 2500TIP3   OH228990   2.477   4.505   3.947  0.4276  0.1372  0.2250
 2500TIP3    H128991   2.569   4.507   3.922  0.2300  0.7927 -0.4940
 2500TIP3    H228992   2.433   4.560   3.882 -0.4452 -0.0164  0.6656
 2501TIP3   OH228993   6.247   6.704  13.341  0.1421 -0.5443 -0.0294
 2501TIP3    H128994   6.202   6.724  13.423 -1.2155 -0.2008 -0.8422
 2501TIP3    H228995   6.257   6.788  13.297 -0.8190 -0.9302 -1.0441
 2502TIP3   OH228996   5.009   5.931   6.680 -0.2970  0.9420 -0.3864
 2502TIP3    H128997   5.096   5.954   6.714  0.7507 -1.6852 -1.0241
 2502TIP3    H228998   4.952   6.000   6.713  2.0371  2.8697 -0.0749
 2503TIP3   OH228999   1.877   3.516   3.611  0.3075  0.4447  0.9597
 2503TIP3    H129000   1.898   3.434   3.566 -0.6354  1.1884 -0.9642
 2503TIP3    H229001   1.818   3.490   3.682 -0.8316 -0.4821 -0.2733
 2504TIP3   OH229002   0.769   6.523  14.671 -0.0416  0.4050 -0.0535
 2504TIP3    H129003   0.765   6.532  14.766 -0.5372 -0.1340 -0.0238
 2504TIP3    H229004   0.796   6.610  14.641  0.9012  0.3645  0.6251
 2505TIP3   OH229005   2.385   1.183   0.146 -0.0079 -0.4672  0.3582
 2505TIP3    H129006   2.432   1.105   0.175  2.4841  1.0985  0.8452
 2505TIP3    H229007   2.300   1.179   0.191  1.4635 -1.0969  3.3365
 2506TIP3   OH229008   4.247   6.279   4.810 -0.3500 -0.1155  0.4468
 2506TIP3    H129009   4.264   6.372   4.824  1.2821 -0.6775  2.7936
 2506TIP3    H229010   4.306   6.255   4.737 -2.3188  1.0278 -1.6378
 2507TIP3   OH229011   0.298   0.897   1.423  0.3984 -0.3097  0.0869
 2507TIP3    H129012   0.337   0.866   1.504 -0.2438  0.2770  0.6355
 2507TIP3    H229013   0.356   0.967   1.393  0.6236 -0.5115  0.0502
 2508TIP3   OH229014   3.019   4.105  14.188  0.4034  0.4422 -0.2693
 2508TIP3    H129015   3.010   4.105  14.283  2.5441  0.1023 -0.0200
 2508TIP3    H229016   3.110   4.079  14.172 -0.6348 -2.3428 -2.4960
 2509TIP3   OH229017   4.287   2.853  11.789  0.4253 -0.2132 -0.3477
 2509TIP3    H129018   4.330   2.927  11.832  1.4735 -0.6401 -0.6305
 2509TIP3    H229019   4.194   2.864  11.810  0.5677  1.1540 -0.3614
 2510TIP3   OH229020   4.777   0.960  16.588  0.5366 -0.4090  0.4246
 2510TIP3    H129021   4.805   0.966  16.680  0.9512 -0.8411  0.3345
 2510TIP3    H229022   4.825   1.030  16.544 -0.0482  0.1227  0.6253
 2511TIP3   OH229023   4.178   4.489  17.033  0.4869 -0.0866 -0.4631
 2511TIP3    H129024   4.117   4.550  16.991 -0.2356  0.4899  1.3710
 2511TIP3    H229025   4.125   4.415  17.059  0.2228  0.9785  2.3121
 2512TIP3   OH229026   2.493   6.339  11.593  0.2739 -0.0408 -0.1143
 2512TIP3    H129027   2.402   6.349  11.621  0.6691  1.1343  0.7969
 2512TIP3    H229028   2.494   6.257  11.544 -1.3947  0.2085 -0.6149
 2513TIP3   OH229029   4.069   0.491  10.927  0.0776  0.6696  0.4366
 2513TIP3    H129030   4.020   0.547  10.867  0.6131 -0.7584 -1.4272
 2513TIP3    H229031   4.008   0.476  11.000 -1.2222  1.1714 -0.5016
 2514TIP3   OH229032   5.635   1.171  11.658  0.0355  0.2425  0.2975
 2514TIP3    H129033   5.723   1.155  11.624 -0.0909  1.4965 -0.7130
 2514TIP3    H229034   5.649   1.213  11.742  0.4340  1.0841 -0.1763
 2515TIP3   OH229035   4.661   0.424   5.187 -0.5916 -0.4492  0.7944
 2515TIP3    H129036   4.631   0.507   5.222 -1.2828  0.5708 -1.9675
 2515TIP3    H229037   4.592   0.396   5.127  0.7532 -1.7325 -0.2389
 2516TIP3   OH229038   6.568   6.371  10.712  0.1149  0.0986  0.0282
 2516TIP3    H129039   6.548   6.291  10.664 -0.6119  0.4438 -0.2621
 2516TIP3    H229040   6.528   6.359  10.798  0.4661 -0.0645  0.1707
 2517TIP3   OH229041   2.458   3.274   3.454 -0.5668  0.1172 -0.5588
 2517TIP3    H129042   2.412   3.350   3.489  2.5103  2.6163 -1.5178
 2517TIP3    H229043   2.544   3.277   3.494  0.2517 -1.8525 -2.0020
 2518TIP3   OH229044   3.319   1.011  12.166 -0.5330 -0.4954  0.2455
 2518TIP3    H129045   3.368   1.072  12.110  0.8403 -0.6187  1.2603
 2518TIP3    H229046   3.232   1.049  12.172  0.0125  0.8504  0.0627
 2519TIP3   OH229047   1.063   5.447  13.792  0.3620 -0.0842  0.3988
 2519TIP3    H129048   1.026   5.386  13.855 -0.7892  1.4133  1.2427
 2519TIP3    H229049   0.987   5.492  13.755  1.1730  2.8720  1.9471
 2520TIP3   OH229050   3.150   6.338  13.724  0.2053  0.1203  0.2704
 2520TIP3    H129051   3.169   6.339  13.631 -2.1294 -0.8547 -0.2912
 2520TIP3    H229052   3.121   6.427  13.744 -2.8480 -0.4927 -0.8689
 2521TIP3   OH229053   2.203   6.230  14.555 -0.2687  0.1056 -0.5276
 2521TIP3    H129054   2.274   6.171  14.529  1.2297  2.0503 -1.1196
 2521TIP3    H229055   2.175   6.199  14.641  1.6428 -0.4303 -0.0594
 2522TIP3   OH229056   6.681   6.768  14.271 -0.3146 -0.3224  0.1849
 2522TIP3    H129057   6.593   6.737  14.296 -0.5471 -0.6459 -0.9777
 2522TIP3    H229058   6.672   6.863  14.265 -0.8653 -0.4337 -0.9301
 2523TIP3   OH229059   2.860   2.270   1.946  0.3207 -0.4401 -0.1348
 2523TIP3    H129060   2.947   2.256   1.983  0.1723 -2.5226 -0.4429
 2523TIP3    H229061   2.800   2.263   2.021  0.3982  1.0527  0.0870
 2524TIP3   OH229062   4.536   6.309   3.034  0.6636 -0.2409 -0.2287
 2524TIP3    H129063   4.573   6.391   3.003 -1.5794  1.3933  1.0676
 2524TIP3    H229064   4.573   6.242   2.977  1.4671  1.8294 -2.2837
 2525TIP3   OH229065   2.965   4.646  15.787 -0.0417  0.0111  0.5383
 2525TIP3    H129066   3.017   4.568  15.770 -0.5789 -0.5322  1.2680
 2525TIP3    H229067   2.874   4.617  15.776 -0.2156  1.1716 -1.6641
 2526TIP3   OH229068   5.314   6.622  11.185  0.3719 -0.3963  0.8249
 2526TIP3    H129069   5.396   6.618  11.234  1.1601 -0.9485 -0.5021
 2526TIP3    H229070   5.269   6.698  11.222  0.8417 -0.8849  2.5095
 2527TIP3   OH229071   0.355   6.469   1.615 -1.0117  0.4535  0.5379
 2527TIP3    H129072   0.269   6.477   1.656 -1.3999 -1.5093  0.1912
 2527TIP3    H229073   0.368   6.375   1.603  0.7511  0.7609 -0.3390
 2528TIP3   OH229074   0.621   2.917   5.291  0.1181 -0.0615  0.3135
 2528TIP3    H129075   0.583   2.980   5.352  0.3081  0.6031 -0.2403
 2528TIP3    H229076   0.688   2.872   5.342  0.4633  0.6761  0.5235
 2529TIP3   OH229077   4.411   5.733  13.263  0.1710 -0.1407 -0.2240
 2529TIP3    H129078   4.500   5.696  13.266 -0.0961 -0.7842  1.5754
 2529TIP3    H229079   4.354   5.656  13.260 -0.3477  0.1783  0.9726
 2530TIP3   OH229080   4.547   5.726   0.849 -0.2170 -0.1082 -0.0853
 2530TIP3    H129081   4.532   5.662   0.779  0.8450 -1.2318  0.6731
 2530TIP3    H229082   4.604   5.680   0.911 -0.5082  1.1357  1.1359
 2531TIP3   OH229083   3.683   0.208   2.721 -0.2328 -0.9392  0.4736
 2531TIP3    H129084   3.716   0.123   2.693 -0.3832 -0.9257  0.2565
 2531TIP3    H229085   3.760   0.266   2.717 -0.0885 -1.1040  0.7988
 2532TIP3   OH229086   5.624   0.506  12.886  0.2515 -0.8434  1.0602
 2532TIP3    H129087   5.590   0.522  12.798 -1.3671  0.4920  1.8542
 2532TIP3    H229088   5.717   0.527  12.881  0.3981 -1.7868 -0.5459
 2533TIP3   OH229089   0.032   3.131  13.236  0.1135 -0.4317 -0.2356
 2533TIP3    H129090   0.088   3.159  13.163  0.8127 -0.8307  0.1330
 2533TIP3    H229091   0.085   3.067  13.283  1.3190  2.5826  2.9567
 2534TIP3   OH229092   3.016   1.212   1.819  0.3102 -0.3590 -0.2667
 2534TIP3    H129093   3.087   1.273   1.840  0.3649 -0.4793 -0.0985
 2534TIP3    H229094   2.973   1.195   1.903 -1.1068  1.1652 -0.6372
 2535TIP3   OH229095   1.643   1.264  15.569 -0.1481  0.2421  0.0833
 2535TIP3    H129096   1.722   1.215  15.546  0.7233  1.2709  0.7515
 2535TIP3    H229097   1.621   1.233  15.657 -1.8408 -1.6695 -0.9513
 2536TIP3   OH229098   5.056   2.232   4.456  0.2724 -0.0951  0.0434
 2536TIP3    H129099   4.978   2.244   4.401 -0.8548 -0.8086  1.3989
 2536TIP3    H229100   5.066   2.315   4.501 -1.3340 -0.7606  1.7886
 2537TIP3   OH229101   2.346   0.533  14.004 -0.2658  0.9203  0.4066
 2537TIP3    H129102   2.291   0.457  14.024 -0.7446  1.2402  0.3293
 2537TIP3    H229103   2.421   0.497  13.957 -0.8756  0.5707 -0.3265
 2538TIP3   OH229104   1.702   2.762   0.469 -0.6723 -0.0109 -0.3072
 2538TIP3    H129105   1.707   2.668   0.457  2.1155  0.1164 -0.8081
 2538TIP3    H229106   1.733   2.777   0.558  0.8539  0.5201 -0.8969
 2539TIP3   OH229107   1.589   0.301   3.859  0.2883  0.0366  0.1159
 2539TIP3    H129108   1.499   0.327   3.839  0.4196  0.3923 -0.0135
 2539TIP3    H229109   1.583   0.206   3.874 -0.3501  0.2918  1.5969
 2540TIP3   OH229110   5.190   4.467  13.361 -0.2060  0.0096 -0.3614
 2540TIP3    H129111   5.244   4.409  13.415 -0.2426  1.2078  1.0227
 2540TIP3    H229112   5.245   4.544  13.347 -1.7163  1.5842  1.6949
 2541TIP3   OH229113   5.327   1.854   4.435 -0.2764 -0.7968  0.2420
 2541TIP3    H129114   5.359   1.810   4.356  0.8857 -0.3978  0.4721
 2541TIP3    H229115   5.345   1.947   4.419  0.0304 -0.7248  1.0039
 2542TIP3   OH229116   0.062   1.950   4.497 -0.0160 -0.0550  0.3224
 2542TIP3    H129117   0.101   1.948   4.409 -1.1610  1.9192 -0.2871
 2542TIP3    H229118   0.136   1.968   4.555  0.4923  0.4322 -0.4505
 2543TIP3   OH229119   6.164   1.308  13.631  0.6477 -0.2647 -0.2771
 2543TIP3    H129120   6.091   1.355  13.591  0.6909 -0.6647 -0.8322
 2543TIP3    H229121   6.183   1.237  13.570  0.8444 -0.7647  0.3593
 2544TIP3   OH229122   1.759   0.149  14.330  0.5806 -0.1087 -0.1900
 2544TIP3    H129123   1.781   0.242  14.324 -0.7710  0.1399 -1.8461
 2544TIP3    H229124   1.676   0.147  14.377  1.3742 -0.6482  1.2739
 2545TIP3   OH229125   4.447   3.088   0.427  0.2593  0.6015 -0.3309
 2545TIP3    H129126   4.378   3.021   0.422  0.5288  0.2802  0.1400
 2545TIP3    H229127   4.528   3.038   0.416  0.4661  0.8376  0.1148
 2546TIP3   OH229128   2.342   0.581  11.611 -0.4133 -0.8755 -0.2278
 2546TIP3    H129129   2.360   0.668  11.646  1.3274 -1.4682  0.4589
 2546TIP3    H229130   2.280   0.596  11.539  0.0627  0.9561 -0.3047
 2547TIP3   OH229131   5.672   1.084   4.333 -0.0502  0.7533  0.6675
 2547TIP3    H129132   5.642   1.174   4.346 -1.4861  0.5326 -0.7468
 2547TIP3    H229133   5.591   1.033   4.331  0.2558  0.1357 -3.5940
 2548TIP3   OH229134   5.654   5.592  11.577  0.4047  0.0397 -0.6201
 2548TIP3    H129135   5.579   5.548  11.617  0.9390  0.4056  0.8828
 2548TIP3    H229136   5.628   5.607  11.487  0.0887 -3.1391 -1.1939
 2549TIP3   OH229137   0.950   5.842  11.621  0.4141 -0.4003  0.0243
 2549TIP3    H129138   0.971   5.928  11.584 -1.2847 -0.2716 -0.7257
 2549TIP3    H229139   0.996   5.840  11.705  2.4272  0.2575 -1.0141
 2550TIP3   OH229140   4.129   3.846  15.111 -0.8790  0.0677  0.0476
 2550TIP3    H129141   4.112   3.939  15.093 -1.6192 -0.5839 -3.1136
 2550TIP3    H229142   4.042   3.807  15.117 -0.5628 -0.6379  0.0629
 2551TIP3   OH229143   1.285   1.766   4.200 -0.0059 -0.7172 -0.2246
 2551TIP3    H129144   1.213   1.829   4.200 -1.3852 -2.1300 -2.5973
 2551TIP3    H229145   1.251   1.691   4.249 -0.0640 -1.2887 -1.1300
 2552TIP3   OH229146   5.832   0.772  15.625 -0.1187 -0.5624 -0.0042
 2552TIP3    H129147   5.834   0.757  15.720  1.2002  0.2852  0.1334
 2552TIP3    H229148   5.907   0.828  15.608  0.6376 -2.0226 -1.8103
 2553TIP3   OH229149   6.798   5.023   0.793  0.1492  0.9369 -0.2701
 2553TIP3    H129150   6.792   5.111   0.755 -1.9667  0.6035 -0.8500
 2553TIP3    H229151   6.813   5.038   0.886 -1.6097  2.0069 -0.1045
 2554TIP3   OH229152   5.402   0.320   5.318  0.4700  0.0860 -0.4963
 2554TIP3    H129153   5.376   0.411   5.301  1.0341  0.0696 -1.5839
 2554TIP3    H229154   5.443   0.322   5.404  1.5071  1.1104 -0.9825
 2555TIP3   OH229155   4.324   4.814  14.284  0.3499 -0.1001  0.0545
 2555TIP3    H129156   4.399   4.767  14.249  0.4555 -0.4072  0.6803
 2555TIP3    H229157   4.351   4.905  14.286  0.2781 -0.0505 -0.8187
 2556TIP3   OH229158   3.058   5.394  11.150 -0.1409 -0.2210  0.2290
 2556TIP3    H129159   3.091   5.471  11.104 -1.6998 -0.2822 -1.0629
 2556TIP3    H229160   3.060   5.324  11.085 -2.7097 -0.2274  0.0670
 2557TIP3   OH229161   6.452   2.301   2.365  0.1947 -0.0260 -0.3190
 2557TIP3    H129162   6.399   2.222   2.378 -2.4626  1.8437  1.2442
 2557TIP3    H229163   6.540   2.277   2.395 -1.0421 -1.8252  2.2286
 2558TIP3   OH229164   2.993   4.868  11.608 -0.6335 -0.0079  0.3269
 2558TIP3    H129165   2.992   4.802  11.539  1.8668  2.6177 -2.5668
 2558TIP3    H229166   3.073   4.850  11.658 -0.6999  0.0087  0.4403
 2559TIP3   OH229167   3.990   4.069  16.882  0.3828  0.0070  0.0805
 2559TIP3    H129168   3.920   4.074  16.817  0.3372  0.4003  0.1589
 2559TIP3    H229169   3.958   4.006  16.947  0.2668 -0.1033 -0.0836
 2560TIP3   OH229170   4.305   5.686   0.632 -0.3344  0.4478  0.1171
 2560TIP3    H129171   4.266   5.760   0.586 -1.9741 -0.7791 -0.5385
 2560TIP3    H229172   4.311   5.715   0.724 -2.7884  0.7228  0.2481
 2561TIP3   OH229173   2.119   3.298   3.592  0.1373  0.0651 -0.8949
 2561TIP3    H129174   2.162   3.319   3.675 -0.8796  0.3256 -0.4256
 2561TIP3    H229175   2.102   3.204   3.597 -0.5764  0.2167 -0.5013
 2562TIP3   OH229176   5.150   3.257  14.633 -0.4981 -0.2232  0.3107
 2562TIP3    H129177   5.070   3.236  14.680 -2.2934  0.8373 -2.0831
 2562TIP3    H229178   5.128   3.244  14.541  1.2902  2.4622 -0.6123
 2563TIP3   OH229179   6.668   0.894  11.780 -0.1394  0.5327  0.1700
 2563TIP3    H129180   6.698   0.803  11.775 -0.1950  0.5597 -0.8836
 2563TIP3    H229181   6.628   0.901  11.867  0.2644 -0.3219  0.4405
 2564TIP3   OH229182   1.716   4.982  13.699 -0.0891  0.4740  0.0669
 2564TIP3    H129183   1.746   4.993  13.789  0.5981 -0.3198 -0.0475
 2564TIP3    H229184   1.687   5.069  13.672 -0.5211  0.6743  1.1240
 2565TIP3   OH229185   0.979   4.960  15.625  0.8171  0.3828 -0.5580
 2565TIP3    H129186   0.990   4.921  15.538  1.4206  2.4586 -1.4755
 2565TIP3    H229187   0.987   4.887  15.685  0.9749 -1.0320 -2.2248
 2566TIP3   OH229188   1.794   5.923  16.906  0.0703  0.1228 -0.1414
 2566TIP3    H129189   1.756   5.857  16.964 -0.7256 -0.2777 -1.0862
 2566TIP3    H229190   1.763   6.006  16.942 -0.6982 -0.1350 -0.1780
 2567TIP3   OH229191   0.575   5.064   5.435  0.1174  0.7134 -0.0586
 2567TIP3    H129192   0.611   5.052   5.523 -0.1861  0.9083  0.0918
 2567TIP3    H229193   0.648   5.044   5.377  0.3844  0.8145  0.2408
 2568TIP3   OH229194   5.349   0.903  11.190 -0.2423  0.0705 -0.4508
 2568TIP3    H129195   5.411   0.831  11.198 -1.0563 -0.5934  0.0594
 2568TIP3    H229196   5.403   0.979  11.168  0.5716 -0.8058 -1.6555
 2569TIP3   OH229197   5.231   0.820  10.947 -0.4781  0.1708 -0.4820
 2569TIP3    H129198   5.265   0.853  11.031 -0.8315  2.2404 -1.0884
 2569TIP3    H229199   5.184   0.740  10.970  2.3763 -1.2746  0.7750
 2570TIP3   OH229200   0.635   2.694  15.174 -0.0211  0.4478  0.0533
 2570TIP3    H129201   0.560   2.696  15.115 -0.3557 -0.1446  0.4502
 2570TIP3    H229202   0.635   2.605  15.210 -1.0340  1.3126  2.4586
 2571TIP3   OH229203   0.364   2.592   1.826  0.0459 -0.1883  0.3612
 2571TIP3    H129204   0.320   2.577   1.910 -1.3492 -0.7163 -0.4326
 2571TIP3    H229205   0.306   2.653   1.779 -0.1994 -1.3744 -0.9465
 2572TIP3   OH229206   1.260   3.229   1.892  0.0326 -0.3799 -0.1123
 2572TIP3    H129207   1.314   3.152   1.877 -0.6923 -0.7971 -0.7018
 2572TIP3    H229208   1.321   3.303   1.894  0.5607 -0.7612 -1.4118
 2573TIP3   OH229209   1.688   1.377   3.820  0.1531 -0.3069 -0.3407
 2573TIP3    H129210   1.742   1.325   3.878  0.3695 -0.1044 -0.3624
 2573TIP3    H229211   1.635   1.432   3.878  1.2604  0.8033 -0.3538
 2574TIP3   OH229212   4.452   0.416  13.872 -0.2356 -0.0812  1.0175
 2574TIP3    H129213   4.482   0.506  13.883 -1.0833  0.3080  0.1868
 2574TIP3    H229214   4.487   0.389  13.787 -1.0561 -0.0837  0.6682
 2575TIP3   OH229215   4.268   3.765   4.739 -0.0303 -0.1586 -0.1969
 2575TIP3    H129216   4.274   3.670   4.740  0.4516 -0.1543  1.6155
 2575TIP3    H229217   4.178   3.784   4.765  0.5257 -0.1514  1.8822
 2576TIP3   OH229218   6.209   1.801   1.721  0.0039  0.0589  0.2675
 2576TIP3    H129219   6.153   1.808   1.644 -0.4081  0.9179  0.6287
 2576TIP3    H229220   6.226   1.892   1.747 -0.9959 -0.2069  1.9931
 2577TIP3   OH229221   3.341   2.126   4.853 -0.3403 -0.1091 -0.4628
 2577TIP3    H129222   3.431   2.153   4.871  0.3169 -1.5658 -1.3430
 2577TIP3    H229223   3.311   2.085   4.934 -0.5279  1.1509  0.1136
 2578TIP3   OH229224   5.189   2.264  11.526 -0.2642  0.3939 -0.4006
 2578TIP3    H129225   5.200   2.321  11.602  0.7793 -0.3040 -0.0061
 2578TIP3    H229226   5.210   2.176  11.558  1.2648  0.2304 -1.7431
 2579TIP3   OH229227   5.840   3.215  17.074  0.1093 -0.0038  0.3981
 2579TIP3    H129228   5.899   3.281  17.036 -0.6253  1.3563  1.5077
 2579TIP3    H229229   5.784   3.189  17.001  0.4703  0.5530 -0.0879
 2580TIP3   OH229230   3.888   0.940   2.157  0.4207 -0.0098 -0.2735
 2580TIP3    H129231   3.847   0.861   2.190  1.4589 -0.6285 -0.4290
 2580TIP3    H229232   3.814   0.997   2.133 -0.3313 -0.6376  0.4913
 2581TIP3   OH229233   3.708   3.444   2.890  0.5331 -0.5032  0.3695
 2581TIP3    H129234   3.683   3.352   2.882  0.1433 -0.3945  0.3244
 2581TIP3    H229235   3.747   3.466   2.805  0.7522 -0.6608  0.4272
 2582TIP3   OH229236   5.526   0.585  12.009 -0.4486  0.4217 -0.7362
 2582TIP3    H129237   5.512   0.661  12.066 -0.8102  0.9099 -1.4529
 2582TIP3    H229238   5.548   0.624  11.924  1.5618 -0.2836 -0.5948
 2583TIP3   OH229239   0.154   0.419  15.691 -0.0346  0.3047  0.3071
 2583TIP3    H129240   0.101   0.489  15.652 -0.4606 -0.0824  0.1854
 2583TIP3    H229241   0.117   0.407  15.779  0.9737  1.2298  0.8811
 2584TIP3   OH229242   3.220   5.630  15.127  1.0605  0.1433 -0.3149
 2584TIP3    H129243   3.212   5.543  15.164  1.3891 -0.0254 -0.6369
 2584TIP3    H229244   3.181   5.688  15.192 -1.1640 -0.4520 -1.0151
 2585TIP3   OH229245   5.697   1.301   4.700 -0.4101 -0.1997  0.2414
 2585TIP3    H129246   5.761   1.308   4.629 -0.4943  0.5307  0.2261
 2585TIP3    H229247   5.681   1.392   4.726 -1.4061 -0.3797  0.2754
 2586TIP3   OH229248   6.296   5.005   3.303  0.1985 -0.6220 -0.0565
 2586TIP3    H129249   6.359   5.039   3.367  0.8602 -2.2339  0.1940
 2586TIP3    H229250   6.216   5.055   3.320  1.3535  1.4448 -0.3674
 2587TIP3   OH229251   4.037   4.527   3.182 -0.0413 -0.1395  0.7853
 2587TIP3    H129252   4.038   4.459   3.249  0.5678  0.6479  1.6075
 2587TIP3    H229253   4.099   4.593   3.215  0.8677 -0.0862 -0.9143
 2588TIP3   OH229254   2.574   3.307  12.061  0.9458 -0.0348  0.3591
 2588TIP3    H129255   2.610   3.222  12.035  2.6099  0.8243 -0.2881
 2588TIP3    H229256   2.568   3.357  11.980 -0.4636  0.3447  0.6645
 2589TIP3   OH229257   1.301   4.320  16.071  0.6544 -0.1702 -0.0270
 2589TIP3    H129258   1.240   4.392  16.058  1.1051  0.0660 -0.8859
 2589TIP3    H229259   1.387   4.361  16.078  1.0307 -0.6623 -1.4316
 2590TIP3   OH229260   4.982   0.322  14.357 -0.3042 -0.0444 -0.2491
 2590TIP3    H129261   4.910   0.261  14.374  0.2494 -0.6032  0.1081
 2590TIP3    H229262   4.943   0.389  14.300 -2.0775  1.5517  2.5777
 2591TIP3   OH229263   1.338   1.140   0.802  0.1875  0.2885  0.0112
 2591TIP3    H129264   1.269   1.163   0.739  0.9984  0.8201 -0.7053
 2591TIP3    H229265   1.406   1.099   0.748 -0.5595 -2.5613  1.0086
 2592TIP3   OH229266   5.374   4.649  13.243 -0.2869 -0.2813 -0.3197
 2592TIP3    H129267   5.428   4.571  13.230 -1.4470 -1.3376  0.8413
 2592TIP3    H229268   5.427   4.706  13.299  0.8983  0.1679 -1.8253
 2593TIP3   OH229269   4.961   4.577   5.708  0.0382  0.3160  0.1967
 2593TIP3    H129270   4.882   4.591   5.761 -0.9287  0.8436 -1.3107
 2593TIP3    H229271   4.945   4.494   5.663  0.5041  0.2488  0.1540
 2594TIP3   OH229272   0.552   5.073   3.924  0.0605 -0.9474 -0.4076
 2594TIP3    H129273   0.518   5.158   3.895 -0.4640 -0.5868  1.2056
 2594TIP3    H229274   0.479   5.031   3.968  1.3080 -0.6334  2.1131
 2595TIP3   OH229275   5.887   2.808  16.175  0.0192 -0.1907 -0.1460
 2595TIP3    H129276   5.855   2.767  16.094 -0.8767  0.0129  0.0988
 2595TIP3    H229277   5.944   2.741  16.214 -1.3545 -1.1910  0.2039
 2596TIP3   OH229278   2.016   2.096  12.495  0.0914 -0.3867  0.3334
 2596TIP3    H129279   2.099   2.049  12.504  1.4082  1.6096 -0.5570
 2596TIP3    H229280   1.964   2.045  12.433  0.8551 -1.4045  0.5204
 2597TIP3   OH229281   4.426   0.047   3.389  0.7654 -0.1307 -0.5339
 2597TIP3    H129282   4.468   0.008   3.313  1.5454 -0.2887 -0.0285
 2597TIP3    H229283   4.332   0.029   3.376  1.0194 -1.4053 -0.7368
 2598TIP3   OH229284   5.450   1.401   2.833 -0.2039  0.3605  0.2408
 2598TIP3    H129285   5.545   1.410   2.829 -0.2700  1.5109  0.7115
 2598TIP3    H229286   5.428   1.347   2.757  0.9318 -1.0592  0.8645
 2599TIP3   OH229287   6.723   0.881  14.275 -0.7033 -0.0055 -0.0659
 2599TIP3    H129288   6.715   0.817  14.203 -0.9190  0.1783 -0.2080
 2599TIP3    H229289   6.648   0.940  14.263 -1.2443 -0.4870  0.8265
 2600TIP3   OH229290   2.746   6.698   5.229 -0.2057 -0.1764  0.1153
 2600TIP3    H129291   2.810   6.697   5.159 -1.4438  0.9808 -1.0987
 2600TIP3    H229292   2.760   6.782   5.273 -0.2432 -0.3529  0.4662
 2601TIP3   OH229293   1.680   6.442   2.352  0.0861  0.7281 -0.2756
 2601TIP3    H129294   1.736   6.484   2.286  2.3659  0.3430  1.2729
 2601TIP3    H229295   1.666   6.510   2.418  0.7849  0.1284  0.5083
 2602TIP3   OH229296   6.640   0.786   4.701  0.1472  0.4519 -0.1395
 2602TIP3    H129297   6.684   0.748   4.777 -0.7109 -1.7297 -0.6857
 2602TIP3    H229298   6.549   0.798   4.729  0.0989  0.8023 -0.4351
 2603TIP3   OH229299   3.057   4.544   2.165 -0.3501 -0.4847 -0.5160
 2603TIP3    H129300   3.041   4.630   2.203  0.5224 -0.5763  0.0988
 2603TIP3    H229301   3.068   4.486   2.240  0.4319 -0.8634 -0.9088
 2604TIP3   OH229302   5.162   0.115   3.339 -0.6183  0.1042 -0.2718
 2604TIP3    H129303   5.082   0.066   3.322 -0.4249  0.2983 -1.9268
 2604TIP3    H229304   5.157   0.191   3.281  1.0969 -0.2569 -0.9755
 2605TIP3   OH229305   4.088   3.172   5.552 -0.0307 -0.9290  0.2915
 2605TIP3    H129306   4.062   3.218   5.473 -1.6578 -0.0326  1.2782
 2605TIP3    H229307   4.156   3.226   5.591 -0.2086 -0.6353  0.1967
 2606TIP3   OH229308   4.916   6.096   2.797  0.7480  0.6184 -0.1180
 2606TIP3    H129309   4.987   6.151   2.832  1.0415  1.0453 -1.3411
 2606TIP3    H229310   4.938   6.008   2.826  1.0392  0.9358  0.6645
 2607TIP3   OH229311   0.613   1.862  11.793  0.5493 -0.4585 -0.2192
 2607TIP3    H129312   0.673   1.925  11.755  2.3485 -1.3116  1.0738
 2607TIP3    H229313   0.609   1.886  11.886 -0.7734 -0.7007 -0.1951
 2608TIP3   OH229314   5.969   2.788   5.032  0.2381 -0.2777 -0.1823
 2608TIP3    H129315   6.052   2.761   4.992 -0.1897 -0.3659 -1.0285
 2608TIP3    H229316   5.976   2.883   5.038  0.7185 -0.3522  0.4728
 2609TIP3   OH229317   6.071   2.597   1.828  0.2753 -0.4568 -0.1236
 2609TIP3    H129318   5.999   2.621   1.885  0.0509 -1.9935  0.2685
 2609TIP3    H229319   6.118   2.528   1.875  1.5651 -0.0025 -0.6989
 2610TIP3   OH229320   0.418   4.268   2.465 -0.1609  0.2769 -0.4338
 2610TIP3    H129321   0.478   4.194   2.458 -0.0538  0.1139  1.7323
 2610TIP3    H229322   0.471   4.344   2.439  2.3221  0.6971  4.6662
 2611TIP3   OH229323   4.491   4.430  13.421 -0.1630  0.2060 -0.2005
 2611TIP3    H129324   4.541   4.466  13.495  0.8072 -1.1682 -0.1536
 2611TIP3    H229325   4.424   4.375  13.462 -0.9744  1.1044 -0.3010
 2612TIP3   OH229326   1.749   6.464   1.091 -0.6951  0.0634 -0.1398
 2612TIP3    H129327   1.658   6.455   1.119 -1.1249  1.8845 -0.8377
 2612TIP3    H229328   1.746   6.456   0.996 -0.1172  0.1173 -0.1700
 2613TIP3   OH229329   0.494   3.587   1.116  0.2712  0.6480 -0.0398
 2613TIP3    H129330   0.575   3.631   1.143 -0.2022  1.1768  0.5348
 2613TIP3    H229331   0.455   3.556   1.198 -0.5295  1.1316 -0.2329
 2614TIP3   OH229332   6.714   4.966  11.751  0.0033 -0.0341 -0.1557
 2614TIP3    H129333   6.806   4.947  11.769  0.3767  1.4739 -0.3482
 2614TIP3    H229334   6.680   5.001  11.833 -0.5420 -1.0055  0.0507
 2615TIP3   OH229335   6.142   4.061  15.643 -0.2865  0.1058 -0.1187
 2615TIP3    H129336   6.131   4.150  15.611  1.1390 -0.1319 -1.3485
 2615TIP3    H229337   6.172   4.071  15.733  0.5447  0.8847 -0.4758
 2616TIP3   OH229338   0.973   6.014  12.272  0.3446  0.7689  0.1983
 2616TIP3    H129339   0.936   6.029  12.359 -3.2915 -1.3791 -0.7623
 2616TIP3    H229340   0.968   6.099  12.228 -1.7667  1.0210  0.8157
 2617TIP3   OH229341   0.363   4.773   0.633 -0.2754  0.3026  0.0426
 2617TIP3    H129342   0.414   4.776   0.714  1.5857  2.0014 -1.1179
 2617TIP3    H229343   0.316   4.856   0.632  1.5615  1.3996 -1.6842
 2618TIP3   OH229344   5.590   6.630  16.780  0.0668 -0.1573 -0.1306
 2618TIP3    H129345   5.677   6.660  16.753  0.5047  0.7865  2.0460
 2618TIP3    H229346   5.595   6.535  16.776  0.5061 -0.0811 -1.9744
 2619TIP3   OH229347   5.267   1.817  15.512 -0.2857 -0.5355 -0.1508
 2619TIP3    H129348   5.258   1.766  15.431 -1.9816  1.2790 -1.2043
 2619TIP3    H229349   5.268   1.908  15.483 -0.5076  0.1533  1.8578
 2620TIP3   OH229350   2.683   0.022  11.561  0.5078 -0.1401  0.1244
 2620TIP3    H129351   2.676  -0.070  11.537  0.4385  0.2559 -1.4732
 2620TIP3    H229352   2.635   0.069  11.493  1.6338  1.1687  0.1854
 2621TIP3   OH229353   6.223   3.254  15.609 -0.2799  0.1146 -0.1355
 2621TIP3    H129354   6.310   3.259  15.570 -0.7346 -1.0866 -1.3842
 2621TIP3    H229355   6.195   3.345  15.619  0.3868  0.4770 -1.4336
 2622TIP3   OH229356   5.003   2.233   2.829 -0.0838  0.0689 -0.4190
 2622TIP3    H129357   4.933   2.213   2.891 -2.1276  3.6884 -1.2252
 2622TIP3    H229358   5.069   2.279   2.881 -0.2666  0.2891 -0.3825
 2623TIP3   OH229359   3.778   6.230   4.081  0.3826  0.0355  0.1213
 2623TIP3    H129360   3.779   6.252   3.987  1.2113 -0.7446 -0.0746
 2623TIP3    H229361   3.871   6.229   4.106  0.1832 -0.0612  0.8769
 2624TIP3   OH229362   0.445   4.029   4.906  0.4272 -0.6023 -0.4162
 2624TIP3    H129363   0.400   4.098   4.857 -0.7446 -0.3159  1.0004
 2624TIP3    H229364   0.381   4.001   4.972  2.9800  1.4083  3.2752
 2625TIP3   OH229365   2.445   5.006   2.527 -0.5093  0.1861 -0.1382
 2625TIP3    H129366   2.438   5.096   2.557 -0.8238  0.5826 -1.3488
 2625TIP3    H229367   2.526   5.003   2.477 -0.9576  0.0454 -0.8738
 2626TIP3   OH229368   1.203   5.995   3.308 -0.7567 -0.1807  0.1060
 2626TIP3    H129369   1.240   6.081   3.326  0.4121 -0.2272 -1.8435
 2626TIP3    H229370   1.174   5.963   3.394 -0.0888  1.6180  1.0515
 2627TIP3   OH229371   5.598   5.280   0.558 -0.2051  0.2563  0.1111
 2627TIP3    H129372   5.622   5.270   0.650 -0.5979  0.7742  0.2721
 2627TIP3    H229373   5.520   5.225   0.547  0.8034 -1.1551 -0.3310
 2628TIP3   OH229374   3.856   5.872   1.241  0.2299  0.0973  0.5319
 2628TIP3    H129375   3.895   5.785   1.240 -1.3756 -0.6958  1.5205
 2628TIP3    H229376   3.762   5.855   1.249 -0.0561  1.9254  1.4541
 2629TIP3   OH229377   4.712   0.215   1.915  0.5358  0.5265  0.0401
 2629TIP3    H129378   4.723   0.276   1.842 -0.6695  1.0863  0.3005
 2629TIP3    H229379   4.716   0.128   1.874 -1.5572  0.8346 -0.9871
 2630TIP3   OH229380   2.766   5.334   0.512  0.6685  0.6735  0.3224
 2630TIP3    H129381   2.761   5.329   0.607  0.1982 -0.5154  0.2516
 2630TIP3    H229382   2.697   5.395   0.487  2.1010  2.6449  0.8323
 2631TIP3   OH229383   0.701   5.112  15.003 -0.2564  0.0857 -0.2211
 2631TIP3    H129384   0.690   5.140  14.912 -0.7025  1.0275  0.1047
 2631TIP3    H229385   0.673   5.020  15.004 -0.1102  0.0291 -1.0601
 2632TIP3   OH229386   4.620   2.815  14.564 -0.3475 -0.2065  0.0260
 2632TIP3    H129387   4.532   2.847  14.585  0.4978  1.7550  0.7536
 2632TIP3    H229388   4.679   2.884  14.595  1.4222 -1.1546 -1.0882
 2633TIP3   OH229389   0.369   2.472   3.407  1.0266  0.3496  0.2160
 2633TIP3    H129390   0.458   2.486   3.438 -0.2244  2.1617  3.5126
 2633TIP3    H229391   0.331   2.411   3.471  0.2760 -1.7308 -2.0505
 2634TIP3   OH229392   0.168   4.715   4.909 -0.0674  0.0161  0.8240
 2634TIP3    H129393   0.185   4.689   4.818  0.4479  1.5650  0.4431
 2634TIP3    H229394   0.217   4.652   4.962  0.6113 -0.1850 -0.0226
 2635TIP3   OH229395   4.716   4.341   3.656 -0.4114  0.1845  0.4213
 2635TIP3    H129396   4.809   4.344   3.679 -0.3542  1.5947  0.0803
 2635TIP3    H229397   4.677   4.283   3.722  0.9512 -1.7793 -0.4134
 2636TIP3   OH229398   3.550   5.518  13.404 -0.0079 -0.3001 -0.1158
 2636TIP3    H129399   3.491   5.478  13.340  0.0107  0.3391 -0.5347
 2636TIP3    H229400   3.512   5.604  13.421 -0.1527 -0.5538  0.9294
 2637TIP3   OH229401   4.360   6.792   5.681 -0.3274  0.0673 -0.0908
 2637TIP3    H129402   4.400   6.800   5.594  1.7766 -0.2791  0.7878
 2637TIP3    H229403   4.387   6.706   5.712 -0.9953  0.2104  0.9282
 2638TIP3   OH229404   6.298   1.366  10.452  0.1679  0.1897 -0.0585
 2638TIP3    H129405   6.298   1.438  10.515  0.6208  0.1384  0.0055
 2638TIP3    H229406   6.372   1.386  10.394 -0.6545  0.6130 -1.0049
 2639TIP3   OH229407   6.531   1.438  12.789  0.2219  0.4908 -0.5140
 2639TIP3    H129408   6.584   1.365  12.819 -1.3156 -0.8385 -0.8728
 2639TIP3    H229409   6.530   1.430  12.694 -0.3310  0.6934 -0.5307
 2640TIP3   OH229410   0.390   1.277  15.699 -0.6408 -0.5999  0.1088
 2640TIP3    H129411   0.469   1.262  15.750 -1.1318 -0.2676  0.9884
 2640TIP3    H229412   0.422   1.299  15.612  0.2018 -1.6340  0.1271
 2641TIP3   OH229413   6.179   5.291   1.161  0.4770  0.1041  0.0813
 2641TIP3    H129414   6.109   5.315   1.100 -0.7555 -0.4453  1.2088
 2641TIP3    H229415   6.256   5.339   1.131 -0.1298 -0.0386 -1.7798
 2642TIP3   OH229416   6.344   1.733   1.462 -0.1165 -0.1160 -0.2511
 2642TIP3    H129417   6.309   1.757   1.548 -1.4038 -2.5469 -0.0061
 2642TIP3    H229418   6.434   1.709   1.479  0.2292  1.2626  0.0338
 2643TIP3   OH229419   0.696   1.596   6.827  0.9198 -0.0147 -0.0433
 2643TIP3    H129420   0.636   1.664   6.797  1.0823  0.9116  1.6394
 2643TIP3    H229421   0.644   1.543   6.887  0.1284 -2.8221 -2.9163
 2644TIP3   OH229422   3.467   4.413   1.845  0.1344 -0.3754 -0.1510
 2644TIP3    H129423   3.445   4.400   1.937 -2.0136 -0.3853 -0.6045
 2644TIP3    H229424   3.417   4.345   1.799  1.9015 -0.9824 -1.2830
 2645TIP3   OH229425   2.224   4.052  15.266 -0.6644 -0.3216 -0.2936
 2645TIP3    H129426   2.182   4.056  15.352 -1.2828 -0.7167 -0.5676
 2645TIP3    H229427   2.304   4.001  15.280 -1.2767 -1.2522 -0.1448
 2646TIP3   OH229428   3.775   2.464  17.176  0.2444 -0.2560  0.5063
 2646TIP3    H129429   3.850   2.440  17.121 -0.7098 -3.3638  0.4128
 2646TIP3    H229430   3.813   2.471  17.264  0.8558 -0.5653  0.2781
 2647TIP3   OH229431   2.666   1.617   5.549 -0.0299 -0.1919 -0.2794
 2647TIP3    H129432   2.579   1.593   5.579 -0.1808  1.6377  0.9009
 2647TIP3    H229433   2.724   1.549   5.584 -0.7518 -0.3970  0.5321
 2648TIP3   OH229434   5.635   5.346   2.135 -0.2243 -0.3210 -0.1914
 2648TIP3    H129435   5.654   5.352   2.041 -0.3334  0.9333 -0.1461
 2648TIP3    H229436   5.716   5.375   2.177 -1.0083  1.6743  0.0470
 2649TIP3   OH229437   6.761   5.997  10.826  0.0087  0.3358 -0.8561
 2649TIP3    H129438   6.810   5.935  10.880  1.9797 -0.4152 -3.3051
 2649TIP3    H229439   6.671   5.967  10.829  0.8398 -2.5595 -1.7117
 2650TIP3   OH229440   4.243   2.299  13.611  0.1967 -0.2703 -0.1423
 2650TIP3    H129441   4.203   2.356  13.677  0.8372  0.2038 -0.1459
 2650TIP3    H229442   4.328   2.276  13.648 -1.4952 -4.5612  1.7218
 2651TIP3   OH229443   1.951   2.363   5.205  0.7761  0.2149 -0.8499
 2651TIP3    H129444   1.997   2.291   5.247  0.1911  1.5114  2.2429
 2651TIP3    H229445   1.858   2.341   5.215  0.6133  0.9560 -0.6651
 2652TIP3   OH229446   6.443   2.991   5.935 -0.9436  0.4298 -0.6739
 2652TIP3    H129447   6.488   3.014   5.854 -0.3262 -1.6247 -0.9544
 2652TIP3    H229448   6.380   2.924   5.911  0.8324 -1.9278  0.8298
 2653TIP3   OH229449   0.647   2.428  13.553 -0.5791 -0.0199 -0.1649
 2653TIP3    H129450   0.721   2.393  13.604  0.1317  0.6936 -0.6803
 2653TIP3    H229451   0.635   2.364  13.483 -0.5962 -0.2478  0.0423
 2654TIP3   OH229452   1.737   3.534   2.902  0.0859  0.1657 -0.2006
 2654TIP3    H129453   1.701   3.453   2.865 -0.2056 -0.2976  1.0608
 2654TIP3    H229454   1.802   3.505   2.965  0.2346  0.9290  0.0119
 2655TIP3   OH229455   4.088   3.021  15.309 -0.2020  0.0004 -0.8303
 2655TIP3    H129456   4.055   3.032  15.220 -0.7386  1.0424 -0.5262
 2655TIP3    H229457   4.183   3.027  15.301 -0.2457  0.0309 -1.3405
 2656TIP3   OH229458   4.423   5.019   3.379  0.5853  1.1369 -0.1951
 2656TIP3    H129459   4.510   5.060   3.377  1.1752 -0.0789 -1.0225
 2656TIP3    H229460   4.365   5.086   3.415  1.7986  2.1086  0.0021
 2657TIP3   OH229461   2.332   5.259   3.967  0.4210 -0.1964 -0.4920
 2657TIP3    H129462   2.240   5.269   3.989  0.4115  1.7523 -1.1372
 2657TIP3    H229463   2.352   5.337   3.913  2.6242 -0.1185  0.3231
 2658TIP3   OH229464   5.760   1.201   3.365  0.1188 -0.0420 -0.0332
 2658TIP3    H129465   5.766   1.117   3.411 -1.6160 -0.6145 -0.7616
 2658TIP3    H229466   5.753   1.177   3.273 -0.1669  0.9091 -0.2709
 2659TIP3   OH229467   4.844   4.510  15.520  0.5890  0.2861 -0.2223
 2659TIP3    H129468   4.779   4.478  15.457  0.6002 -0.2793  0.0416
 2659TIP3    H229469   4.825   4.603  15.529 -0.4514  0.0592  0.1554
 2660TIP3   OH229470   2.063   6.469   2.800 -0.1937  0.1160  0.2935
 2660TIP3    H129471   2.158   6.474   2.793 -0.2987  1.0524 -0.5928
 2660TIP3    H229472   2.036   6.558   2.821 -0.9951  0.2222 -1.1043
 2661TIP3   OH229473   1.439   5.787  14.782 -0.5179  0.1569  0.0286
 2661TIP3    H129474   1.377   5.855  14.810 -0.5985 -0.0320  0.3047
 2661TIP3    H229475   1.440   5.725  14.854 -0.1570  0.0576 -0.0640
 2662TIP3   OH229476   0.952   5.274   1.042  0.3898  0.4490  0.3268
 2662TIP3    H129477   0.947   5.179   1.027 -1.0333  0.4806  0.5480
 2662TIP3    H229478   0.981   5.310   0.958  0.6035 -0.1371  0.1433
 2663TIP3   OH229479   1.101   3.628   0.549 -0.6793  0.1029 -0.1317
 2663TIP3    H129480   1.060   3.686   0.614  0.0663  0.9179 -0.3630
 2663TIP3    H229481   1.158   3.571   0.601 -1.1112 -0.1532  0.0624
 2664TIP3   OH229482   5.550   2.213   0.505  0.1430  0.4868  0.3458
 2664TIP3    H129483   5.645   2.208   0.519  0.2020  1.2158  0.2554
 2664TIP3    H229484   5.537   2.183   0.416  0.4794  1.9293 -0.2142
 2665TIP3   OH229485   3.285   3.100   4.400  0.4043 -0.8230  0.6534
 2665TIP3    H129486   3.270   3.141   4.315 -1.5957 -0.0346  1.3316
 2665TIP3    H229487   3.280   3.006   4.383 -3.8544 -0.7107  0.4032
 2666TIP3   OH229488   2.326   2.184   4.398 -0.1930 -0.0667 -0.3210
 2666TIP3    H129489   2.393   2.249   4.419  1.2650 -2.0784  1.8891
 2666TIP3    H229490   2.296   2.207   4.310  2.7851  1.4398 -1.0738
 2667TIP3   OH229491   0.699   2.963  14.062 -0.2994 -0.3316  0.5083
 2667TIP3    H129492   0.681   2.989  13.972 -1.1020 -0.0229  0.7499
 2667TIP3    H229493   0.771   2.900  14.055 -0.6271 -0.6236 -0.3867
 2668TIP3   OH229494   6.564   1.837   0.287 -0.0865 -0.1503 -0.5272
 2668TIP3    H129495   6.511   1.809   0.212 -1.2641 -0.4029  0.3671
 2668TIP3    H229496   6.525   1.793   0.362  1.0537  0.1175  0.2531
 2669TIP3   OH229497   3.824   0.623   3.649 -0.0432  0.9490 -0.3749
 2669TIP3    H129498   3.744   0.610   3.701  0.7539 -0.2338  0.5913
 2669TIP3    H229499   3.851   0.712   3.671 -1.1182  1.3906 -0.7595
 2670TIP3   OH229500   4.639   4.902  11.497  0.0859  0.0698 -0.2915
 2670TIP3    H129501   4.689   4.897  11.415 -0.2137 -0.2933 -0.4544
 2670TIP3    H229502   4.631   4.811  11.526 -1.0101  0.0481 -0.5949
 2671TIP3   OH229503   0.385   4.799  15.831 -0.1425 -0.0083  0.0478
 2671TIP3    H129504   0.456   4.761  15.779 -0.0215 -0.6086  0.6253
 2671TIP3    H229505   0.378   4.741  15.907 -0.2136  0.9311  0.7701
 2672TIP3   OH229506   4.325   4.400  15.373 -0.0308 -0.3594  0.5823
 2672TIP3    H129507   4.319   4.418  15.279 -0.4177  1.0421  0.8407
 2672TIP3    H229508   4.256   4.336  15.390 -1.3338  0.8943  0.2335
 2673TIP3   OH229509   4.237   2.829  11.428  0.5886 -0.3407 -0.0633
 2673TIP3    H129510   4.208   2.849  11.339  0.0698  0.3235  0.2512
 2673TIP3    H229511   4.171   2.768  11.462  0.8145 -0.6360 -0.1404
 2674TIP3   OH229512   1.679   3.640  13.714 -0.2500 -0.0629 -0.0429
 2674TIP3    H129513   1.614   3.637  13.644  1.3292  1.2814 -1.6775
 2674TIP3    H229514   1.713   3.550  13.719 -1.0446 -0.3903 -0.3328
 2675TIP3   OH229515   0.254   0.460  11.297  0.5286 -0.7655  0.2943
 2675TIP3    H129516   0.319   0.529  11.288 -0.1707  0.1415  1.8200
 2675TIP3    H229517   0.284   0.391  11.238  0.5055  1.3591 -2.3737
 2676TIP3   OH229518   4.709   3.755   2.546 -0.0628 -0.4724 -0.2195
 2676TIP3    H129519   4.792   3.802   2.555  0.2529 -0.8460 -1.0956
 2676TIP3    H229520   4.643   3.823   2.552  0.4260  0.3224 -2.7181
 2677TIP3   OH229521   2.697   1.265   5.495 -0.0938 -0.0168 -0.4668
 2677TIP3    H129522   2.744   1.185   5.474 -0.5300 -0.2885 -0.4125
 2677TIP3    H229523   2.604   1.240   5.494 -0.1640 -0.0427  1.6614
 2678TIP3   OH229524   3.809   4.581   3.333  0.0185  0.3060  0.2712
 2678TIP3    H129525   3.830   4.663   3.377 -1.6529  2.0180 -1.8845
 2678TIP3    H229526   3.881   4.567   3.271  0.6510 -0.2839  1.1098
 2679TIP3   OH229527   5.454   3.315  13.632 -0.3782 -0.6582  0.4812
 2679TIP3    H129528   5.409   3.233  13.653 -1.3055 -0.5056 -0.7987
 2679TIP3    H229529   5.439   3.328  13.539 -0.0868  0.8758  0.6132
 2680TIP3   OH229530   1.035   5.484   0.534 -0.8887 -0.4255  0.3224
 2680TIP3    H129531   0.967   5.456   0.596 -2.1384 -1.0535 -1.2820
 2680TIP3    H229532   0.987   5.510   0.456  0.7018 -0.3760 -0.6699
 2681TIP3   OH229533   0.865   6.372   0.743 -0.4447 -0.0721  0.2208
 2681TIP3    H129534   0.866   6.311   0.816  1.7881 -0.1605  0.1815
 2681TIP3    H229535   0.908   6.326   0.672  0.2379  1.1191 -0.1700
 2682TIP3   OH229536   5.434   1.169  11.462  0.5834 -0.9135  0.7572
 2682TIP3    H129537   5.488   1.167  11.542  0.3322 -3.8082  0.9769
 2682TIP3    H229538   5.497   1.178  11.391  0.7952  1.9713  1.2001
 2683TIP3   OH229539   3.460   5.997   5.624  0.2865 -0.0256  0.3283
 2683TIP3    H129540   3.365   5.988   5.625 -0.0049  2.2756  1.5393
 2683TIP3    H229541   3.475   6.090   5.607  2.4277 -0.7230 -2.1823
 2684TIP3   OH229542   6.409   5.175  11.990  0.2012  0.1432  0.0340
 2684TIP3    H129543   6.489   5.125  12.006  1.3122  1.2982 -1.6363
 2684TIP3    H229544   6.348   5.110  11.955 -0.3943 -1.1995  3.2088
 2685TIP3   OH229545   3.735   6.625   5.821  0.3718  0.3012 -0.0334
 2685TIP3    H129546   3.670   6.626   5.750  0.8413 -0.1809 -0.4722
 2685TIP3    H229547   3.819   6.618   5.776  0.7136  0.6405  0.5503
 2686TIP3   OH229548   1.970   4.566  10.555  0.7510 -0.8577  0.3581
 2686TIP3    H129549   2.026   4.532  10.485 -0.3480 -2.0519  0.0156
 2686TIP3    H229550   1.995   4.514  10.632  1.7745  0.2741  0.8225
 2687TIP3   OH229551   1.194   0.751  14.736 -0.3513  0.5994  0.5538
 2687TIP3    H129552   1.148   0.669  14.754  1.9756 -0.7390  0.7405
 2687TIP3    H229553   1.138   0.818  14.775 -1.7313 -0.9929  1.4807
 2688TIP3   OH229554   4.617   3.956   5.953 -0.0675  0.1190  0.1941
 2688TIP3    H129555   4.640   3.912   5.872  0.0525 -0.2979  0.4539
 2688TIP3    H229556   4.548   3.902   5.992 -0.7475  0.7837 -0.0555
 2689TIP3   OH229557   5.054   5.632  16.809 -0.7587 -0.2245 -0.7310
 2689TIP3    H129558   5.041   5.537  16.805 -1.9969 -0.0546 -1.3783
 2689TIP3    H229559   5.019   5.664  16.726 -1.5181  0.9192 -0.0038
 2690TIP3   OH229560   3.819   0.156   0.666  0.0234 -0.0563 -0.2219
 2690TIP3    H129561   3.789   0.239   0.703  1.4965 -0.2121  1.4623
 2690TIP3    H229562   3.859   0.180   0.583  0.2482  0.8987  0.1478
 2691TIP3   OH229563   5.410   2.421   5.023  0.0556  0.3270  0.0277
 2691TIP3    H129564   5.481   2.483   5.036 -0.3115  0.8158 -0.2430
 2691TIP3    H229565   5.346   2.444   5.091 -0.6480  1.0948 -0.8674
 2692TIP3   OH229566   1.569   6.675   2.489 -0.3248  0.2686 -0.0143
 2692TIP3    H129567   1.549   6.735   2.417  1.3467  0.7236 -0.1491
 2692TIP3    H229568   1.597   6.732   2.561 -1.1010 -0.2309  0.6951
 2693TIP3   OH229569   0.964   2.389  11.560 -0.3929  0.2068  0.2150
 2693TIP3    H129570   0.877   2.379  11.522  0.4475  0.2444 -1.8527
 2693TIP3    H229571   1.010   2.448  11.500  1.7182 -1.4628  0.0791
 2694TIP3   OH229572   1.846   5.812  11.936 -0.0272 -0.0783 -0.2035
 2694TIP3    H129573   1.767   5.843  11.891 -0.3062 -0.9149 -0.2989
 2694TIP3    H229574   1.908   5.884  11.927 -0.5109  0.2733 -0.8203
 2695TIP3   OH229575   0.638   6.051   2.890 -0.7519  0.7810  0.6138
 2695TIP3    H129576   0.592   5.994   2.830  1.0121 -0.7789  0.6369
 2695TIP3    H229577   0.661   5.994   2.964  1.5077  1.3295  0.4078
 2696TIP3   OH229578   0.799   5.718  13.051 -0.5555  0.4398  0.2827
 2696TIP3    H129579   0.807   5.678  13.137 -0.6323 -1.5349 -0.5726
 2696TIP3    H229580   0.887   5.751  13.032 -0.0506 -0.7576  0.4021
 2697TIP3   OH229581   2.925   1.563   4.655 -0.2423 -0.5615 -0.3247
 2697TIP3    H129582   2.969   1.502   4.714 -0.2224  0.0856  0.3567
 2697TIP3    H229583   2.835   1.531   4.650 -0.6144  0.1370  1.1868
 2698TIP3   OH229584   6.062   0.938   4.437 -0.6588  0.0858  0.2170
 2698TIP3    H129585   5.983   0.895   4.405 -0.2437  0.2515 -1.1324
 2698TIP3    H229586   6.124   0.867   4.452 -0.5810  0.0569 -0.2121
 2699TIP3   OH229587   5.013   0.186   6.099  0.3669 -0.2170 -0.0666
 2699TIP3    H129588   5.021   0.092   6.084  0.9454 -0.1322 -0.2995
 2699TIP3    H229589   5.076   0.205   6.168 -0.4746 -0.1647  0.7145
 2700TIP3   OH229590   2.631   5.810   5.416  0.8738 -0.2894 -0.4065
 2700TIP3    H129591   2.638   5.877   5.484 -0.7559 -0.4637 -0.0192
 2700TIP3    H229592   2.667   5.731   5.457 -1.7590 -0.8625  1.0059
 2701TIP3   OH229593   0.671   4.164   4.531  0.0033  0.0212  0.0256
 2701TIP3    H129594   0.580   4.187   4.548  0.0741  0.0730  0.3382
 2701TIP3    H229595   0.670   4.070   4.514  0.0202 -0.1662  1.0040
 2702TIP3   OH229596   4.936   6.160   5.295  0.6077  0.7611 -0.0986
 2702TIP3    H129597   4.902   6.179   5.382  0.1187  0.1929 -0.1523
 2702TIP3    H229598   5.029   6.142   5.308  0.8992  2.2875  0.0635
 2703TIP3   OH229599   5.308   6.269   6.797 -0.2088  0.7210 -0.3184
 2703TIP3    H129600   5.259   6.288   6.717 -0.4037 -2.2635 -1.0298
 2703TIP3    H229601   5.399   6.284   6.773 -0.4218  2.1508 -0.3161
 2704TIP3   OH229602   1.003   1.321  16.000 -0.1548  0.4425  0.4626
 2704TIP3    H129603   1.037   1.410  16.001  1.3061 -0.1061  1.9015
 2704TIP3    H229604   1.028   1.284  16.084 -1.6867 -1.0067  0.3393
 2705TIP3   OH229605   5.488   5.032  11.165 -0.1847  0.6318  0.3605
 2705TIP3    H129606   5.514   5.121  11.186  2.3596 -0.2176  1.1872
 2705TIP3    H229607   5.566   4.993  11.126 -0.5270 -1.7975  1.8867
 2706TIP3   OH229608   0.462   4.816   5.359  0.0915 -0.3932 -0.3884
 2706TIP3    H129609   0.372   4.812   5.327  0.3462 -0.8535 -1.0869
 2706TIP3    H229610   0.484   4.909   5.359 -0.7128 -0.1714  0.7864
 2707TIP3   OH229611   0.393   1.626   4.371 -0.1252 -0.6293  0.0696
 2707TIP3    H129612   0.477   1.662   4.344  0.5921 -2.6974 -0.6043
 2707TIP3    H229613   0.348   1.607   4.288 -0.5729 -1.0734  0.4134
 2708TIP3   OH229614   0.978   6.411  12.997  0.6017  0.0469 -0.0700
 2708TIP3    H129615   0.937   6.488  13.035  0.6620  0.2707 -0.4558
 2708TIP3    H229616   1.052   6.445  12.946  0.5300 -0.2473 -0.3748
 2709TIP3   OH229617   5.989   1.826   1.542  0.2707 -0.3751  0.3405
 2709TIP3    H129618   5.899   1.837   1.574  0.3407 -1.5805  1.0149
 2709TIP3    H229619   5.987   1.862   1.453 -0.6168  0.5382  0.7002
 2710TIP3   OH229620   6.132   4.082   5.648 -0.2148  0.0540 -0.1527
 2710TIP3    H129621   6.102   4.058   5.736 -1.4951  0.1972 -0.5256
 2710TIP3    H229622   6.051   4.088   5.596  0.4880  0.3544 -1.2456
 2711TIP3   OH229623   4.128   3.420   1.668 -0.5739  0.2532 -0.2933
 2711TIP3    H129624   4.076   3.377   1.600 -2.9839  0.1953  1.4623
 2711TIP3    H229625   4.064   3.470   1.719  0.7298 -1.1786  3.0732
 2712TIP3   OH229626   5.318   6.773  11.853  0.7864  0.0182  0.1408
 2712TIP3    H129627   5.276   6.825  11.921 -0.9215  0.2767 -1.0529
 2712TIP3    H229628   5.410   6.800  11.855  0.4245  1.2364  1.1975
 2713TIP3   OH229629   0.067   3.468   3.248 -0.1094 -0.2749  0.2271
 2713TIP3    H129630   0.016   3.523   3.189 -0.5882 -0.6093  0.3240
 2713TIP3    H229631   0.047   3.502   3.335  1.4602  0.9465  0.1572
 2714TIP3   OH229632   4.912   0.975   2.055  0.5785  0.5917  0.1831
 2714TIP3    H129633   4.992   0.949   2.010 -1.2675 -1.8696 -1.9947
 2714TIP3    H229634   4.847   0.982   1.986 -1.5330  0.5895  2.0440
 2715TIP3   OH229635   0.754   2.130   0.675  0.4110  0.1290 -0.3582
 2715TIP3    H129636   0.795   2.044   0.679  2.0802  0.9151  1.2769
 2715TIP3    H229637   0.747   2.150   0.582 -0.8476 -2.1081 -0.8013
 2716TIP3   OH229638   4.319   5.002   3.122  0.2167  0.0627  0.1816
 2716TIP3    H129639   4.352   5.011   3.211 -0.6147 -1.8364  0.7276
 2716TIP3    H229640   4.285   5.089   3.100  1.6767  0.9358  1.1560
 2717TIP3   OH229641   1.255   4.620  16.312 -0.1937  0.2920  0.1951
 2717TIP3    H129642   1.258   4.550  16.378 -3.1861 -0.1082  0.0865
 2717TIP3    H229643   1.326   4.679  16.335  0.2211 -0.9855  2.4582
 2718TIP3   OH229644   5.743   2.658   0.622 -0.3248  0.5652  0.5629
 2718TIP3    H129645   5.827   2.674   0.580  1.9642 -2.2076  3.5787
 2718TIP3    H229646   5.687   2.624   0.553  1.0559  2.1234 -1.4591
 2719TIP3   OH229647   3.946   1.048  15.584 -0.1289  0.0859 -0.0013
 2719TIP3    H129648   3.983   1.105  15.651  0.3340  0.1749 -0.3338
 2719TIP3    H229649   3.953   0.960  15.621  2.5804 -0.1969 -0.9878
 2720TIP3   OH229650   1.826   4.690   2.044  0.1035  0.6074 -0.1476
 2720TIP3    H129651   1.905   4.668   1.995  1.6701  0.1523  2.3876
 2720TIP3    H229652   1.768   4.616   2.030  1.5400 -0.7473  0.7026
 2721TIP3   OH229653   5.933   0.430  13.468  0.0064 -0.3140 -0.1897
 2721TIP3    H129654   5.914   0.358  13.528  0.7429 -0.1470  0.2481
 2721TIP3    H229655   6.026   0.422  13.449 -0.3437 -0.8099 -1.9056
 2722TIP3   OH229656   1.584   5.333  15.830 -0.0538  0.1681 -0.3760
 2722TIP3    H129657   1.679   5.339  15.824 -0.1808  0.7126 -2.7104
 2722TIP3    H229658   1.553   5.423  15.826 -0.7066 -0.0792 -1.5131
 2723TIP3   OH229659   6.319   5.570   2.398 -0.0670 -0.0168 -0.3232
 2723TIP3    H129660   6.340   5.597   2.309 -1.6050  0.2052 -0.6476
 2723TIP3    H229661   6.257   5.497   2.387  0.0243 -0.2433  0.5584
 2724TIP3   OH229662   0.094   1.185   5.695  0.1260  0.4100  0.3270
 2724TIP3    H129663   0.015   1.143   5.661  0.7500 -1.5780  1.2164
 2724TIP3    H229664   0.086   1.179   5.790  1.3114  0.2395  0.4306
 2725TIP3   OH229665   2.826   5.880  13.977 -0.4464  0.4305  0.7605
 2725TIP3    H129666   2.754   5.896  13.916  0.4394 -0.2801 -0.5173
 2725TIP3    H229667   2.875   5.807  13.938  0.2649  0.0829  2.2238
 2726TIP3   OH229668   6.658   5.998  12.395 -0.6874 -0.5577 -0.3172
 2726TIP3    H129669   6.614   6.052  12.329  1.5074  1.0501 -0.5681
 2726TIP3    H229670   6.639   6.041  12.478  1.4967  1.0556 -0.5657
 2727TIP3   OH229671   1.305   3.174  12.461  0.2507  0.2950  0.1819
 2727TIP3    H129672   1.361   3.099  12.485 -1.3222 -1.8963 -2.3662
 2727TIP3    H229673   1.310   3.177  12.366 -2.7726  0.9197 -0.0568
 2728TIP3   OH229674   0.188   5.714   5.303 -0.2199  0.3011 -0.4325
 2728TIP3    H129675   0.217   5.663   5.228 -0.0197 -2.3268  1.2856
 2728TIP3    H229676   0.093   5.707   5.302 -0.1630 -1.1399  0.3642
 2729TIP3   OH229677   0.877   5.444   4.181  0.2055 -0.0479  0.2001
 2729TIP3    H129678   0.948   5.379   4.186  0.5812  0.2457 -1.0763
 2729TIP3    H229679   0.850   5.443   4.089 -0.6774  0.6742  0.4397
 2730TIP3   OH229680   6.672   4.430  13.431 -0.7422 -0.6198  0.1242
 2730TIP3    H129681   6.710   4.393  13.352 -0.1810  0.0536  0.0697
 2730TIP3    H229682   6.589   4.469  13.402 -0.5257 -0.3516 -0.1413
 2731TIP3   OH229683   0.526   3.182   3.606  0.4668  0.1211  0.5767
 2731TIP3    H129684   0.463   3.134   3.659  1.6031  1.1793  3.0442
 2731TIP3    H229685   0.610   3.168   3.650  1.1974  2.4540  0.0691
 2732TIP3   OH229686   1.813   3.308  16.807  0.0423  0.2721  0.1362
 2732TIP3    H129687   1.843   3.330  16.895  0.6229  0.1945 -0.0350
 2732TIP3    H229688   1.816   3.212  16.804  0.4625  0.2885 -0.1085
 2733TIP3   OH229689   5.693   6.092   4.126 -0.5953 -0.4905 -0.4866
 2733TIP3    H129690   5.706   6.157   4.057  0.2529  0.7951  0.8348
 2733TIP3    H229691   5.780   6.082   4.166 -1.2443 -0.5417  0.9644
 2734TIP3   OH229692   2.978   5.923  11.194 -0.0877 -0.1350 -0.1484
 2734TIP3    H129693   2.899   5.872  11.210 -0.5666  0.3425 -0.9007
 2734TIP3    H229694   3.023   5.877  11.123  0.6214 -0.7311  0.6744
 2735TIP3   OH229695   5.722   5.879  13.966  0.3637 -0.1830 -0.1769
 2735TIP3    H129696   5.774   5.950  13.927  1.6913  0.8436  3.1077
 2735TIP3    H229697   5.639   5.921  13.990  0.3779 -0.2528 -0.0065
 2736TIP3   OH229698   0.802   5.115  13.855 -0.4221  0.2820 -0.0995
 2736TIP3    H129699   0.722   5.159  13.886 -1.0687 -0.7445 -0.2744
 2736TIP3    H229700   0.783   5.022  13.864 -0.3152 -0.0638 -2.7773
 2737TIP3   OH229701   4.601   5.163  13.052 -0.1535 -0.2087  0.1923
 2737TIP3    H129702   4.525   5.221  13.046 -0.3972 -0.5242  0.2158
 2737TIP3    H229703   4.581   5.105  13.126  1.6072  1.8885  2.5140
 2738TIP3   OH229704   3.170   2.504  15.940 -0.3333 -0.1479  0.1308
 2738TIP3    H129705   3.254   2.549  15.930  0.8588 -2.2368  0.0436
 2738TIP3    H229706   3.158   2.495  16.035 -1.1735  1.3390  0.1884
 2739TIP3   OH229707   4.352   5.981  15.867 -0.4168  0.1305  0.0159
 2739TIP3    H129708   4.370   5.952  15.957  0.4662  3.4050  1.0587
 2739TIP3    H229709   4.430   5.955  15.818 -0.6023 -1.0965  0.3381
 2740TIP3   OH229710   1.404   1.889  12.687 -0.1338 -0.3793  0.4771
 2740TIP3    H129711   1.436   1.979  12.688 -2.3036  0.4583  0.0997
 2740TIP3    H229712   1.314   1.895  12.718 -0.2533 -2.4770  0.7017
 2741TIP3   OH229713   3.232   6.229  12.720  0.3449 -0.7086 -0.2236
 2741TIP3    H129714   3.307   6.171  12.734  0.9879  0.0558 -0.3768
 2741TIP3    H229715   3.232   6.244  12.625  1.4515  1.1266  0.0051
 2742TIP3   OH229716   2.764   2.303  15.527 -0.2031 -0.6772  0.3142
 2742TIP3    H129717   2.838   2.355  15.560 -1.3189 -0.0523  1.9450
 2742TIP3    H229718   2.802   2.218  15.506  1.0363 -0.2608  0.7901
 2743TIP3   OH229719   6.195   3.459  16.326 -0.0182  0.4017  0.0741
 2743TIP3    H129720   6.109   3.466  16.285  0.4048  1.1315 -0.7080
 2743TIP3    H229721   6.179   3.406  16.404 -1.1890  0.5913 -0.0105
 2744TIP3   OH229722   5.889   3.686  11.424 -0.5027  0.1714  0.0935
 2744TIP3    H129723   5.803   3.726  11.416 -0.1684  0.7808 -0.5729
 2744TIP3    H229724   5.949   3.750  11.386  0.1229 -0.6916 -0.4289
 2745TIP3   OH229725   3.642   1.548   4.660  0.0159 -0.0235  0.1596
 2745TIP3    H129726   3.584   1.556   4.736 -0.8091 -0.6270 -0.3897
 2745TIP3    H229727   3.730   1.560   4.695 -0.4634  1.3828  0.9373
 2746TIP3   OH229728   0.011   0.742   4.475  0.3736 -0.0849 -0.5891
 2746TIP3    H129729   0.099   0.772   4.455  0.5487 -0.8668 -1.0353
 2746TIP3    H229730  -0.018   0.798   4.548  0.9497  0.6565 -0.9216
 2747TIP3   OH229731   5.872   2.053   2.886 -0.0882  0.4806 -0.7153
 2747TIP3    H129732   5.813   2.032   2.958 -0.2274 -0.8445 -1.1909
 2747TIP3    H229733   5.945   1.991   2.896 -0.2129  0.1311 -1.8147
 2748TIP3   OH229734   1.710   3.019  16.245  0.2015  0.3787  0.3339
 2748TIP3    H129735   1.653   2.979  16.311  0.8267  0.3359  0.8529
 2748TIP3    H229736   1.685   2.976  16.163  0.3464 -0.5488  0.7625
 2749TIP3   OH229737   3.653   0.952   4.641  1.1465 -0.2301 -0.0824
 2749TIP3    H129738   3.602   0.979   4.565  1.0947 -0.1904 -0.0340
 2749TIP3    H229739   3.588   0.916   4.701  1.1274  0.1474  0.1281
 2750TIP3   OH229740   4.220   4.127  11.963 -0.4231 -0.0298 -0.1767
 2750TIP3    H129741   4.243   4.159  11.875 -1.5204  0.1051 -0.4307
 2750TIP3    H229742   4.200   4.035  11.950 -1.6887  0.2455 -0.2926
 2751TIP3   OH229743   4.103   2.374  16.660 -0.0956  0.3953 -0.1330
 2751TIP3    H129744   4.197   2.381  16.672 -0.0926 -0.3522  0.3754
 2751TIP3    H229745   4.090   2.289  16.617 -0.6555 -0.4380  1.5958
 2752TIP3   OH229746   3.158   5.913  14.150 -0.0009  0.6967 -0.4549
 2752TIP3    H129747   3.077   5.961  14.166 -0.0956  0.3282  0.2131
 2752TIP3    H229748   3.149   5.833  14.202  1.3779  1.2823  0.7485
 2753TIP3   OH229749   3.596   0.651   4.810 -0.4231  0.0285 -0.0902
 2753TIP3    H129750   3.676   0.617   4.850  1.5788  2.0445 -2.0934
 2753TIP3    H229751   3.609   0.638   4.716 -1.6984  1.8445 -0.5623
 2754TIP3   OH229752   5.738   5.333  12.547  0.2211 -0.2411  0.6157
 2754TIP3    H129753   5.753   5.239  12.552  1.6058  0.0174  2.3992
 2754TIP3    H229754   5.799   5.364  12.480  0.0749 -0.5661  0.3351
 2755TIP3   OH229755   6.386   4.409  15.389 -0.6137 -0.4801 -0.0886
 2755TIP3    H129756   6.379   4.315  15.406 -2.6171 -0.3983 -0.1939
 2755TIP3    H229757   6.358   4.419  15.298  0.1018  0.1760 -0.2450
 2756TIP3   OH229758   1.713   3.618  10.242 -0.2468 -0.2380  0.7762
 2756TIP3    H129759   1.673   3.576  10.318 -1.3038 -0.7451 -0.0234
 2756TIP3    H229760   1.644   3.615  10.175  0.4406  0.7631  0.0027
 2757TIP3   OH229761   5.492   0.355  15.178 -0.1764  0.7171  0.4315
 2757TIP3    H129762   5.407   0.399  15.176 -1.6022 -1.8564 -0.0758
 2757TIP3    H229763   5.515   0.351  15.271 -0.0049  2.4045  0.4994
 2758TIP3   OH229764   3.487   4.676   0.891 -0.6307  0.3319 -0.0834
 2758TIP3    H129765   3.448   4.737   0.953  1.0845  1.9618 -0.5388
 2758TIP3    H229766   3.419   4.662   0.825 -1.1101  1.6183  0.1183
 2759TIP3   OH229767   5.059   5.491   1.720 -0.1047  0.1951 -0.4852
 2759TIP3    H129768   5.003   5.507   1.796  1.3689 -0.3641  0.7474
 2759TIP3    H229769   5.041   5.565   1.662 -2.5491 -0.2607 -0.4196
 2760TIP3   OH229770   6.738   5.367   2.934  0.0316 -0.2691  0.2801
 2760TIP3    H129771   6.706   5.452   2.902  0.0742 -0.0060  0.9244
 2760TIP3    H229772   6.660   5.312   2.939 -0.0745 -0.1116  0.3536
 2761TIP3   OH229773   1.188   1.596  11.160 -0.7714 -0.0118  0.3972
 2761TIP3    H129774   1.105   1.599  11.208 -1.3363  2.0531 -0.5685
 2761TIP3    H229775   1.174   1.654  11.085  1.3480 -0.1125 -0.1384
 2762TIP3   OH229776   3.087   0.656  16.789  0.2555 -0.1396 -0.1296
 2762TIP3    H129777   3.114   0.566  16.806 -1.3942 -0.1854  2.7524
 2762TIP3    H229778   2.992   0.652  16.777  0.1692  1.2064 -0.1296
 2763TIP3   OH229779   2.679   2.846  13.787  0.3919 -0.7106  0.0270
 2763TIP3    H129780   2.728   2.771  13.819 -0.7193 -1.3587  0.2642
 2763TIP3    H229781   2.591   2.834  13.822  0.0790  0.4840 -0.2826
 2764TIP3   OH229782   0.671   6.408   1.253 -0.5082 -0.0094  0.5266
 2764TIP3    H129783   0.602   6.474   1.250  0.0440  0.6048  1.1885
 2764TIP3    H229784   0.716   6.423   1.336  0.7436 -0.0842 -0.1193
 2765TIP3   OH229785   5.321   3.762   2.335  0.0934  0.0146 -0.3596
 2765TIP3    H129786   5.366   3.752   2.418  0.8829  2.2011 -0.4675
 2765TIP3    H229787   5.355   3.691   2.280  3.1017  1.2603 -0.2627
 2766TIP3   OH229788   0.526   3.806  14.792  0.6363 -0.2026  0.0762
 2766TIP3    H129789   0.524   3.718  14.827 -0.2400 -0.2455 -0.0713
 2766TIP3    H229790   0.611   3.812  14.747  1.1990 -0.5681  1.0650
 2767TIP3   OH229791   2.652   5.517   5.509 -0.2238  0.1751 -0.5339
 2767TIP3    H129792   2.704   5.510   5.589  0.4196  0.8677 -0.8760
 2767TIP3    H229793   2.591   5.443   5.513 -0.1753  0.1757  0.5689
 2768TIP3   OH229794   0.620   6.598   1.656 -0.2227  0.4007  0.5468
 2768TIP3    H129795   0.547   6.558   1.609  0.7154 -1.9875  0.9926
 2768TIP3    H229796   0.593   6.595   1.748  0.2121  0.0167  0.6614
 2769TIP3   OH229797   3.772   2.623  16.359  0.0930  0.1420 -0.2666
 2769TIP3    H129798   3.858   2.585  16.345  0.2951  0.1711  0.7856
 2769TIP3    H229799   3.763   2.688  16.290 -0.3537 -1.9010 -2.2409
 2770TIP3   OH229800   5.087   6.344  12.580  0.3475 -0.7402  0.2910
 2770TIP3    H129801   5.145   6.273  12.606  0.4702 -0.0168  2.0753
 2770TIP3    H229802   5.144   6.421  12.574 -0.3216 -0.0896  1.7508
 2771TIP3   OH229803   6.108   0.554  13.261 -0.0240  0.1515 -0.4742
 2771TIP3    H129804   6.065   0.629  13.219  1.0310  0.0907 -1.7153
 2771TIP3    H229805   6.124   0.493  13.189  0.8518 -0.4316  0.2026
 2772TIP3   OH229806   2.744   5.963  14.563 -0.5791  0.2835  0.0470
 2772TIP3    H129807   2.677   5.995  14.623 -0.6096 -1.6222  1.0869
 2772TIP3    H229808   2.719   5.873  14.545  2.5762 -1.1119  1.8782
 2773TIP3   OH229809   5.120   0.335   2.329 -0.0018 -0.4610 -0.7157
 2773TIP3    H129810   5.211   0.359   2.312 -0.2338  1.1237  0.0500
 2773TIP3    H229811   5.069   0.399   2.279 -0.6680  0.3228  0.8907
 2774TIP3   OH229812   4.252   2.634  15.502 -0.0415  0.2007  0.0209
 2774TIP3    H129813   4.306   2.713  15.494 -0.3388  0.4702  0.6402
 2774TIP3    H229814   4.208   2.644  15.586 -1.7611  0.4134 -0.8668
 2775TIP3   OH229815   0.647   1.078   3.520 -0.6292 -0.0331  0.4520
 2775TIP3    H129816   0.586   1.150   3.505 -0.0198  0.2698 -0.7353
 2775TIP3    H229817   0.665   1.044   3.432  0.3532 -0.5828  0.8511
 2776TIP3   OH229818   0.427   6.306   3.264  0.4638  0.7619 -0.3669
 2776TIP3    H129819   0.475   6.369   3.319  1.2247  0.0754 -0.2329
 2776TIP3    H229820   0.466   6.315   3.177  0.4801  0.5605 -0.3793
 2777TIP3   OH229821   4.396   1.252  16.495  0.1626 -0.3602  0.7231
 2777TIP3    H129822   4.473   1.265  16.551  0.1471  1.1039  0.4509
 2777TIP3    H229823   4.340   1.327  16.514  0.3209  0.3880 -1.5004
 2778TIP3   OH229824   0.932   6.606  16.726 -0.6231 -0.0582  0.9331
 2778TIP3    H129825   0.844   6.621  16.760 -0.5881 -0.5098  1.2445
 2778TIP3    H229826   0.970   6.542  16.787 -0.3550 -0.4493  0.3653
 2779TIP3   OH229827   2.393   5.724   0.169  0.2340 -0.0081  0.4168
 2779TIP3    H129828   2.425   5.815   0.171  1.1529 -0.3109  0.0228
 2779TIP3    H229829   2.470   5.673   0.143 -0.2428 -0.9192  0.7876
 2780TIP3   OH229830   4.153   1.846  10.632 -0.1714 -0.2516 -0.2584
 2780TIP3    H129831   4.149   1.793  10.552  0.2063 -1.0197  0.2215
 2780TIP3    H229832   4.160   1.936  10.601  0.7310 -0.5989 -1.0954
 2781TIP3   OH229833   2.011   3.075   2.742 -0.2465 -0.1047 -0.0076
 2781TIP3    H129834   1.940   3.115   2.791 -0.2743  0.2633 -0.3404
 2781TIP3    H229835   1.984   3.083   2.650  0.4966  0.5737 -0.1770
 2782TIP3   OH229836   0.951   5.743  12.126 -0.0457  0.0143 -0.2470
 2782TIP3    H129837   0.866   5.736  12.170  0.9479 -2.3448  1.4769
 2782TIP3    H229838   0.980   5.832  12.145 -1.6769  0.5580 -0.0823
 2783TIP3   OH229839   4.829   5.090  12.514  0.2677  0.0680 -0.5081
 2783TIP3    H129840   4.737   5.074  12.494 -0.1870  2.9761 -1.2103
 2783TIP3    H229841   4.871   5.098  12.428  0.4726  1.9634 -0.2743
 2784TIP3   OH229842   1.350   1.838  11.233  0.5755 -0.1575 -0.3980
 2784TIP3    H129843   1.407   1.780  11.182  1.4124  2.4168 -2.6189
 2784TIP3    H229844   1.387   1.835  11.321  0.8449 -2.5732 -0.5034
 2785TIP3   OH229845   2.849   2.426  10.514  0.0200 -0.0961 -0.0089
 2785TIP3    H129846   2.903   2.381  10.578 -1.2912  1.2576  2.1711
 2785TIP3    H229847   2.839   2.514  10.548  0.2362  1.0787 -2.7312
 2786TIP3   OH229848   1.655   1.674  15.061 -0.5884  0.0458  0.2014
 2786TIP3    H129849   1.687   1.621  15.134  0.8487  1.0253  0.3333
 2786TIP3    H229850   1.674   1.764  15.087 -0.3911  0.4363 -1.2203
 2787TIP3   OH229851   0.762   3.841  14.657 -0.2610  0.4571 -0.4091
 2787TIP3    H129852   0.856   3.842  14.641 -0.0413  2.5274  0.6876
 2787TIP3    H229853   0.725   3.893  14.586 -0.5829 -0.1527 -0.7024
 2788TIP3   OH229854   2.533   0.354  15.690  0.0097  0.2895  0.0782
 2788TIP3    H129855   2.458   0.312  15.732 -1.0051 -0.5867 -2.4375
 2788TIP3    H229856   2.499   0.438  15.659 -1.0299 -1.3498 -3.8111
 2789TIP3   OH229857   6.076   3.774  11.947  0.1130 -0.1136 -0.4095
 2789TIP3    H129858   6.020   3.818  11.884 -0.7938 -2.1988 -1.1652
 2789TIP3    H229859   6.149   3.741  11.895 -0.1058 -0.9597 -0.1969
 2790TIP3   OH229860   1.711   2.059   6.141  0.0990 -0.2794  0.2674
 2790TIP3    H129861   1.678   1.971   6.157  0.7866 -0.3776  1.2469
 2790TIP3    H229862   1.804   2.053   6.161 -0.1266  1.0263  1.8878
 2791TIP3   OH229863   0.889   1.695   0.974  0.4308 -0.1663 -0.0879
 2791TIP3    H129864   0.809   1.740   1.002  0.8496 -0.4369  1.6939
 2791TIP3    H229865   0.858   1.615   0.933 -0.2554  0.6612 -1.2397
 2792TIP3   OH229866   0.320   5.157   5.512 -0.2219  0.0805 -0.0117
 2792TIP3    H129867   0.412   5.133   5.499 -0.5994 -0.5402 -1.7031
 2792TIP3    H229868   0.303   5.223   5.444 -1.5696 -1.3433 -1.1087
 2793TIP3   OH229869   6.282   3.954   2.238  0.4085  0.2067 -0.0230
 2793TIP3    H129870   6.259   3.861   2.235 -1.3714  0.5680  1.0297
 2793TIP3    H229871   6.245   3.990   2.157  0.9661  0.0488 -0.3569
 2794TIP3   OH229872   3.043   6.552  14.757  0.2627  0.0892  0.3078
 2794TIP3    H129873   3.058   6.493  14.831 -2.2816  0.1191  0.9418
 2794TIP3    H229874   3.010   6.497  14.687 -0.6858  0.5053  0.4027
 2795TIP3   OH229875   5.966   1.921  12.164  0.5171 -0.2324 -0.4160
 2795TIP3    H129876   6.045   1.878  12.197  0.9415  0.3807 -0.6098
 2795TIP3    H229877   5.994   1.964  12.083  0.3981  1.3777  0.3742
 2796TIP3   OH229878   3.267   6.237  14.682  0.4086 -0.6053 -0.0332
 2796TIP3    H129879   3.174   6.229  14.662  0.6884 -2.8979 -0.6217
 2796TIP3    H229880   3.311   6.204  14.604  1.6966 -0.8636  0.7837
 2797TIP3   OH229881   0.470   5.988   2.402 -0.5668  0.4458  0.7266
 2797TIP3    H129882   0.394   6.046   2.402  0.5715  2.0140  1.3392
 2797TIP3    H229883   0.536   6.034   2.454  0.6354 -1.1094  0.6779
 2798TIP3   OH229884   4.303   2.279  11.737  0.3870 -0.6745  0.5349
 2798TIP3    H129885   4.227   2.258  11.792 -0.2171 -1.0033 -0.4021
 2798TIP3    H229886   4.329   2.367  11.764 -0.1697 -0.6590  1.0431
 2799TIP3   OH229887   1.750   4.282  15.833  0.5233 -0.3106  0.1030
 2799TIP3    H129888   1.771   4.358  15.887  3.1250 -0.6169 -0.3176
 2799TIP3    H229889   1.788   4.208  15.881  1.1993 -0.8296 -1.1737
 2800TIP3   OH229890   1.991   4.791  13.388 -0.7921  0.2708  0.3550
 2800TIP3    H129891   1.955   4.725  13.447 -1.5820  0.7445  0.4131
 2800TIP3    H229892   2.084   4.794  13.409  0.0520 -3.2628 -1.9298
 2801TIP3   OH229893   5.250   3.295  11.243  0.1858 -0.3512 -0.3358
 2801TIP3    H129894   5.309   3.351  11.294 -1.2243 -0.2797  1.2977
 2801TIP3    H229895   5.234   3.344  11.163  0.6527  0.6032  0.1365
 2802TIP3   OH229896   3.890   3.718   2.329 -0.1831 -0.2069  0.0258
 2802TIP3    H129897   3.840   3.740   2.251 -0.4067 -0.2255  0.1653
 2802TIP3    H229898   3.884   3.796   2.384 -0.9122 -0.5870  0.4870
 2803TIP3   OH229899   2.909   5.725   1.101  0.0751  0.1573  0.6025
 2803TIP3    H129900   2.954   5.687   1.177  0.3020 -0.9056 -0.0275
 2803TIP3    H229901   2.816   5.713   1.120  0.0326  1.6991  1.5807
 2804TIP3   OH229902   1.726   2.954  13.209 -0.1655 -0.6389 -0.1067
 2804TIP3    H129903   1.682   3.031  13.245  1.1321  0.8003 -1.4342
 2804TIP3    H229904   1.762   2.909  13.285 -0.5372  0.3252  0.6632
 2805TIP3   OH229905   4.315   5.406  13.904 -0.1129  0.4411 -0.4838
 2805TIP3    H129906   4.271   5.323  13.923  0.8508 -0.3395 -1.5693
 2805TIP3    H229907   4.394   5.405  13.958 -0.3355  0.8837 -0.1394
 2806TIP3   OH229908   2.881   1.115   5.227 -0.4501  0.1534 -0.0475
 2806TIP3    H129909   2.826   1.085   5.300  0.7835 -1.3741  0.3038
 2806TIP3    H229910   2.822   1.114   5.151 -1.0189 -1.1542  0.3704
 2807TIP3   OH229911   0.040   6.816  14.701  0.0696 -0.2172  0.1746
 2807TIP3    H129912  -0.028   6.882  14.712  0.7771  0.7364 -0.9430
 2807TIP3    H229913   0.114   6.849  14.753  0.7378  0.3695 -1.0972
 2808TIP3   OH229914   5.105   4.902   1.528  0.0030  0.1829 -0.0391
 2808TIP3    H129915   5.104   4.954   1.608  2.4745 -0.2494  0.3729
 2808TIP3    H229916   5.134   4.964   1.460  0.4790 -0.0429 -0.0479
 2809TIP3   OH229917   6.748   6.503   4.697 -0.5954  0.2942  0.1021
 2809TIP3    H129918   6.835   6.491   4.735 -0.2117 -2.4358 -1.4000
 2809TIP3    H229919   6.692   6.523   4.772  0.7345 -1.3561  1.6399
 2810TIP3   OH229920   5.996   2.950  13.214 -0.0099  0.3032  0.5666
 2810TIP3    H129921   6.058   2.942  13.142  0.4445 -0.6206  1.0404
 2810TIP3    H229922   6.033   2.896  13.284 -1.2205 -0.0780  0.9371
 2811TIP3   OH229923   2.642   6.024   4.980 -0.4156  0.4911  0.1454
 2811TIP3    H129924   2.603   6.098   4.934  1.2031  1.3017  0.0238
 2811TIP3    H229925   2.732   6.051   4.998  0.2616 -1.4948 -0.0216
 2812TIP3   OH229926   4.367   6.743  15.573  0.5550 -0.3342  0.2620
 2812TIP3    H129927   4.373   6.694  15.655  0.9314 -1.6950 -0.5546
 2812TIP3    H229928   4.451   6.729  15.530  0.4150  0.4770 -0.3034
 2813TIP3   OH229929   0.640   0.990   0.100  0.3093 -0.7221  0.5937
 2813TIP3    H129930   0.652   1.076   0.142  0.2192  0.2281 -1.2135
 2813TIP3    H229931   0.637   0.928   0.173 -0.3982  0.8881  2.0116
 2814TIP3   OH229932   2.845   6.612  11.813 -0.1023  0.3796  0.4159
 2814TIP3    H129933   2.879   6.652  11.733  0.4860 -0.2101  0.3692
 2814TIP3    H229934   2.853   6.681  11.879 -1.0133  1.0218 -0.1268
 2815TIP3   OH229935   3.321   5.577   4.599 -0.7578 -0.1209  0.2152
 2815TIP3    H129936   3.397   5.526   4.627 -1.7035 -0.8517  1.6175
 2815TIP3    H229937   3.349   5.668   4.605  0.9270 -0.3980 -2.2341
 2816TIP3   OH229938   6.665   1.090   5.634 -0.0647 -0.2893  0.0641
 2816TIP3    H129939   6.586   1.066   5.586 -0.6209 -0.2734  0.9582
 2816TIP3    H229940   6.637   1.097   5.725  0.6076  1.3173  0.1800
 2817TIP3   OH229941   6.480   0.926   5.029  0.2739 -0.6299 -0.2920
 2817TIP3    H129942   6.458   0.996   5.091 -0.7066 -0.3153 -0.9573
 2817TIP3    H229943   6.575   0.923   5.028  0.4441  2.0280 -1.6225
 2818TIP3   OH229944   5.859   2.263   6.459  0.3087 -0.4604  0.8971
 2818TIP3    H129945   5.804   2.273   6.382 -0.2184 -1.6262  1.1007
 2818TIP3    H229946   5.809   2.206   6.517  2.0467 -2.2530  0.7392
 2819TIP3   OH229947   4.506   6.043  15.349 -0.4784 -0.2846  0.7399
 2819TIP3    H129948   4.578   6.106  15.358 -0.3162 -0.5290  1.1786
 2819TIP3    H229949   4.547   5.957  15.358 -0.8804 -0.4147  1.4511
 2820TIP3   OH229950   6.407   3.656   1.674 -0.4923 -0.0436 -0.0575
 2820TIP3    H129951   6.406   3.566   1.643 -1.8799  0.0656 -0.4232
 2820TIP3    H229952   6.369   3.653   1.761  1.7899 -0.1119  1.0015
 2821TIP3   OH229953   2.573   5.098  15.214 -0.4107 -0.5128  0.1916
 2821TIP3    H129954   2.610   5.046  15.143 -3.1201 -2.4977  0.0678
 2821TIP3    H229955   2.525   5.168  15.170 -1.2202 -1.1232  0.0887
 2822TIP3   OH229956   4.255   1.050  15.410 -0.2578  0.0190  0.5127
 2822TIP3    H129957   4.212   0.965  15.415  2.4992 -1.5890 -0.4192
 2822TIP3    H229958   4.223   1.099  15.486 -3.3294 -1.0786  0.0466
 2823TIP3   OH229959   5.946   1.990  12.933 -0.1615 -0.1110  0.2098
 2823TIP3    H129960   5.918   2.022  12.847  1.4061  0.1783 -0.2274
 2823TIP3    H229961   5.926   2.062  12.993 -1.0848 -0.2391  0.0743
 2824TIP3   OH229962   5.897   6.361  12.114  0.5299  1.1951  0.2082
 2824TIP3    H129963   5.894   6.333  12.205  0.0102  0.1632 -0.1081
 2824TIP3    H229964   5.963   6.430  12.112  0.7333  1.0488  1.3116
 2825TIP3   OH229965   0.835   1.788  12.762  0.1924 -0.6313  0.0340
 2825TIP3    H129966   0.832   1.769  12.856 -0.4360 -0.2334  0.1093
 2825TIP3    H229967   0.911   1.845  12.751 -0.3120  0.1654  0.4879
 2826TIP3   OH229968   5.599   0.118  15.551 -0.3727  0.5774 -0.3625
 2826TIP3    H129969   5.533   0.124  15.619 -0.5917  0.4577 -0.5649
 2826TIP3    H229970   5.683   0.121  15.598 -0.4993  1.7167 -0.1687
 2827TIP3   OH229971   3.738   4.298  13.306 -0.6692 -0.1391  0.2394
 2827TIP3    H129972   3.712   4.366  13.368  1.2043  0.3353  0.5867
 2827TIP3    H229973   3.785   4.234  13.359  1.7779  0.7299 -0.7114
 2828TIP3   OH229974   1.950   5.095  10.723 -0.8843  0.0959  0.3857
 2828TIP3    H129975   2.038   5.132  10.713 -1.2421  0.5371 -1.5747
 2828TIP3    H229976   1.960   5.027  10.789  0.9198  0.1804  0.2481
 2829TIP3   OH229977   6.581   5.000   2.191 -0.6281 -0.4241  0.7445
 2829TIP3    H129978   6.602   4.919   2.237  1.0057  1.0441  2.7798
 2829TIP3    H229979   6.663   5.027   2.152 -0.4635  1.5138  2.2830
 2830TIP3   OH229980   3.581   6.575  12.090  0.2124  0.1008  0.7277
 2830TIP3    H129981   3.671   6.547  12.109 -0.4368 -2.4740  0.3956
 2830TIP3    H229982   3.527   6.524  12.150 -1.1801 -0.5084 -0.9656
 2831TIP3   OH229983   3.784   2.107   1.179  0.1312  0.1927 -0.1273
 2831TIP3    H129984   3.715   2.172   1.194 -1.2529 -1.1861 -0.2037
 2831TIP3    H229985   3.790   2.059   1.261 -0.8462 -1.3407 -0.8974
 2832TIP3   OH229986   3.825   3.345  16.739  0.4179  0.2008  0.5600
 2832TIP3    H129987   3.860   3.288  16.670 -0.4854  0.9038 -0.5062
 2832TIP3    H229988   3.791   3.285  16.804  0.5698 -0.4816  0.0293
 2833TIP3   OH229989   5.864   1.300   3.757 -0.0027  0.1642  0.3971
 2833TIP3    H129990   5.792   1.238   3.765 -0.7545  0.9964  0.2865
 2833TIP3    H229991   5.836   1.375   3.811  0.8202  0.4571  0.4231
 2834TIP3   OH229992   3.340   5.053  12.063  0.1874 -0.5236 -0.2333
 2834TIP3    H129993   3.301   5.046  11.976  2.0733 -0.5236 -1.1247
 2834TIP3    H229994   3.362   4.963  12.087  0.9649 -0.3863 -0.3994
 2835TIP3   OH229995   0.590   5.149  16.748  0.4725  0.2429  0.2430
 2835TIP3    H129996   0.595   5.054  16.741 -0.1317  0.1008  1.3576
 2835TIP3    H229997   0.583   5.165  16.842  0.4798  1.3870  0.0614
 2836TIP3   OH229998   0.773   0.433   0.719  0.4524 -0.3941 -0.4532
 2836TIP3    H129999   0.727   0.491   0.780 -0.1892 -1.2404 -0.1151
 2836TIP3    H230000   0.827   0.492   0.667 -1.5936  0.7289 -1.4071
 2837TIP3   OH230001   6.404   0.649   2.979  0.8050 -0.5115  0.3307
 2837TIP3    H130002   6.313   0.660   3.005  1.2951  0.5944  1.6883
 2837TIP3    H230003   6.420   0.555   2.985 -0.4217 -0.8246 -0.6606
 2838TIP3   OH230004   3.977   3.848   4.842  0.4270 -0.2352 -0.0530
 2838TIP3    H130005   3.941   3.936   4.835 -1.5592 -0.9822  0.0922
 2838TIP3    H230006   3.952   3.818   4.929  2.4870 -0.4007  0.5400
 2839TIP3   OH230007   1.691   6.151   6.198  0.1216  0.2707 -0.2061
 2839TIP3    H130008   1.681   6.246   6.188 -0.9042  0.3794  1.5397
 2839TIP3    H230009   1.601   6.118   6.207  0.5175 -0.7588  0.0830
 2840TIP3   OH230010   5.933   1.966  11.676  0.4790  0.2048  0.3376
 2840TIP3    H130011   5.956   2.046  11.723 -2.1361  0.3559  1.5054
 2840TIP3    H230012   5.969   1.896  11.731  0.3727  0.4990  0.7963
 2841TIP3   OH230013   5.967   1.428   1.510 -0.0691 -0.6120 -0.0634
 2841TIP3    H130014   6.059   1.450   1.494 -0.3478 -0.5022 -1.6688
 2841TIP3    H230015   5.960   1.422   1.606  0.9527  2.1313  0.2597
 2842TIP3   OH230016   5.116   4.991   0.952 -0.4076  0.2950 -0.2013
 2842TIP3    H130017   5.072   4.928   1.009 -0.2271  0.9523  0.6848
 2842TIP3    H230018   5.195   4.946   0.923 -0.2157  0.1455  0.5265
 2843TIP3   OH230019   5.995   1.894   3.195  0.2540 -0.2513 -0.2115
 2843TIP3    H130020   6.069   1.849   3.235 -1.0804 -3.2616 -0.8645
 2843TIP3    H230021   6.012   1.890   3.101 -0.4127 -0.4310 -0.3330
 2844TIP3   OH230022   0.908   0.582   0.487 -0.4798 -0.0385 -0.2674
 2844TIP3    H130023   0.982   0.596   0.428  1.3839 -0.6745  1.7599
 2844TIP3    H230024   0.889   0.668   0.523  0.7218 -0.1515  0.7320
 2845TIP3   OH230025   3.749   4.561  16.355  0.1120 -0.3494  0.1968
 2845TIP3    H130026   3.834   4.572  16.311  0.1943  1.2277  0.6814
 2845TIP3    H230027   3.767   4.584  16.447 -0.9562  0.6071  0.1811
 2846TIP3   OH230028   5.104   0.105   3.901  0.0372 -0.1547 -0.2366
 2846TIP3    H130029   5.101   0.058   3.985 -0.9648 -0.3066 -0.3536
 2846TIP3    H230030   5.039   0.061   3.847 -0.1469  0.6861 -0.7099
 2847TIP3   OH230031   0.680   3.282   0.886 -0.2342 -0.1646  0.4076
 2847TIP3    H130032   0.585   3.294   0.888 -0.4085 -1.4489  1.6401
 2847TIP3    H230033   0.708   3.328   0.806 -1.4967  2.6989  1.4641
 2848TIP3   OH230034   5.477   0.554  13.144 -0.3422 -0.1969 -0.4404
 2848TIP3    H130035   5.513   0.546  13.056 -0.4030  0.3850 -0.5222
 2848TIP3    H230036   5.478   0.465  13.178  0.8744 -0.2542 -0.5590
 2849TIP3   OH230037   1.801   6.615   6.040 -0.3701  0.1616  0.1143
 2849TIP3    H130038   1.797   6.534   6.090 -0.4414 -0.1377 -0.3719
 2849TIP3    H230039   1.847   6.591   5.959 -1.4167  0.3248 -0.5565
 2850TIP3   OH230040   5.521   0.185  12.485  0.3765 -0.0906 -0.1486
 2850TIP3    H130041   5.489   0.255  12.428 -0.0770 -0.5574 -0.4721
 2850TIP3    H230042   5.450   0.121  12.488  0.6647 -0.3981  0.3924
 2851TIP3   OH230043   3.615   6.812  14.763 -0.0146  0.4909  0.3383
 2851TIP3    H130044   3.613   6.751  14.689 -0.8320  0.0497  0.7077
 2851TIP3    H230045   3.684   6.778  14.819 -1.4636 -1.0401  1.2868
 2852TIP3   OH230046   6.342   6.819   1.408 -0.0853  0.0852  0.1588
 2852TIP3    H130047   6.393   6.779   1.478 -0.3323 -0.3124  0.1172
 2852TIP3    H230048   6.304   6.897   1.447 -0.2109 -0.1280  0.4672
 2853TIP3   OH230049   0.904   5.173   0.253  0.0798 -0.3391  0.4856
 2853TIP3    H130050   0.859   5.129   0.181  3.5609 -1.1035 -1.4460
 2853TIP3    H230051   0.917   5.105   0.318  1.6041 -1.1295 -0.5887
 2854TIP3   OH230052   0.910   2.020  13.264 -0.3463 -0.3121  0.0451
 2854TIP3    H130053   0.822   1.998  13.297  0.0480  0.1778  1.5074
 2854TIP3    H230054   0.960   1.939  13.275 -0.1412 -0.0730  0.9781
 2855TIP3   OH230055   1.390   5.260   2.613  0.1521 -0.0663  0.0570
 2855TIP3    H130056   1.330   5.262   2.538  0.9759 -0.5702 -0.6384
 2855TIP3    H230057   1.419   5.350   2.623 -0.3592  0.0982  0.1087
 2856TIP3   OH230058   4.013   0.271  11.145 -0.0947 -0.2607 -0.0861
 2856TIP3    H130059   4.010   0.336  11.216 -1.4492  0.4664 -0.7458
 2856TIP3    H230060   3.967   0.195  11.181 -2.0055  0.5934 -0.5782
 2857TIP3   OH230061   0.771   5.382   0.635 -0.1388 -0.1005 -0.0711
 2857TIP3    H130062   0.775   5.287   0.623 -0.7310  0.1193 -2.6972
 2857TIP3    H230063   0.727   5.394   0.719  1.5631 -2.1138  1.2143
 2858TIP3   OH230064   0.705   6.517  11.724  0.2888  0.0005 -0.4699
 2858TIP3    H130065   0.640   6.571  11.769 -2.6608 -0.4875 -3.6994
 2858TIP3    H230066   0.748   6.578  11.663  1.0343 -0.1852 -0.1316
 2859TIP3   OH230067   0.617   2.968  12.454 -0.2949 -0.1938  0.0582
 2859TIP3    H130068   0.670   2.945  12.531 -1.4155 -1.1427  0.5881
 2859TIP3    H230069   0.681   2.988  12.386  0.7420  1.0261  1.3235
 2860TIP3   OH230070   4.290   2.580   2.938 -0.1569 -0.1803  0.2541
 2860TIP3    H130071   4.328   2.633   3.008  0.8157 -0.3719 -0.1172
 2860TIP3    H230072   4.338   2.606   2.859 -1.1570 -0.0540 -0.3360
 2861TIP3   OH230073   0.291   0.197   3.196  0.1593  0.5973  0.5516
 2861TIP3    H130074   0.347   0.135   3.149  0.2516  1.3691 -0.3709
 2861TIP3    H230075   0.309   0.281   3.155 -0.0047  1.2372  1.7637
 2862TIP3   OH230076   2.292   5.950   2.887 -0.5990  0.2118  0.3991
 2862TIP3    H130077   2.303   5.948   2.982 -0.1764  1.1268  0.3852
 2862TIP3    H230078   2.199   5.936   2.872 -1.0132  1.9839  1.0668
 2863TIP3   OH230079   5.170   6.363   2.274 -0.6781 -0.0504  0.2166
 2863TIP3    H130080   5.107   6.403   2.334  0.8152 -0.0508  1.8507
 2863TIP3    H230081   5.230   6.315   2.331  0.1913 -0.9238 -1.3768
 2864TIP3   OH230082   6.402   0.631   6.546  0.4672  0.6230 -0.3210
 2864TIP3    H130083   6.489   0.590   6.543  0.1198 -0.0633 -1.7146
 2864TIP3    H230084   6.412   0.712   6.496  0.3394  0.6160 -0.3580
 2865TIP3   OH230085   1.083   3.609  11.771  0.0023 -0.2538  0.4567
 2865TIP3    H130086   1.046   3.521  11.770 -0.8176  0.0782  0.9440
 2865TIP3    H230087   1.177   3.595  11.786  0.0492 -1.0857 -0.5332
 2866TIP3   OH230088   1.419   3.006  11.811  0.3789  0.2032 -0.2569
 2866TIP3    H130089   1.418   2.935  11.875  2.0062 -1.7306 -2.2556
 2866TIP3    H230090   1.333   3.003  11.770  0.6491 -1.0570 -0.7521
 2867TIP3   OH230091   2.136   5.837   3.111 -0.4371 -0.6575  0.1770
 2867TIP3    H130092   2.191   5.789   3.173  1.4078 -0.3386 -1.1356
 2867TIP3    H230093   2.089   5.901   3.165 -0.5984 -1.8577  1.5203
 2868TIP3   OH230094   4.993   3.037   0.684  0.3301 -0.2968 -0.2817
 2868TIP3    H130095   5.080   3.074   0.668  0.6870 -0.8860  0.2527
 2868TIP3    H230096   5.008   2.943   0.690 -0.4031 -0.4348 -0.5135
 2869TIP3   OH230097   4.204   1.630  11.667  0.0806 -0.5098  0.8584
 2869TIP3    H130098   4.167   1.690  11.601 -0.8849 -0.5731  1.3354
 2869TIP3    H230099   4.132   1.614  11.728 -0.2311 -3.4702 -0.1393
 2870TIP3   OH230100   4.803   4.513   2.862  0.2488 -0.8249  0.0340
 2870TIP3    H130101   4.790   4.589   2.918 -3.2482 -0.1041 -1.4956
 2870TIP3    H230102   4.825   4.442   2.922 -1.5919  0.2790  2.1510
 2871TIP3   OH230103   0.731   0.647  13.171  0.8707  0.0493  0.3225
 2871TIP3    H130104   0.764   0.719  13.117 -0.1419 -0.3469 -0.8950
 2871TIP3    H230105   0.791   0.575  13.153  0.0073 -0.3684 -1.0909
 2872TIP3   OH230106   3.929   4.544  13.475 -0.5773 -0.1105 -0.3018
 2872TIP3    H130107   3.936   4.603  13.550  0.5499  0.3742 -0.7655
 2872TIP3    H230108   3.941   4.601  13.399 -0.0993 -0.8454 -0.7852
 2873TIP3   OH230109   3.590   1.168   0.883 -0.1168  0.1032 -0.6052
 2873TIP3    H130110   3.527   1.223   0.837  0.1745  0.1724 -0.9268
 2873TIP3    H230111   3.589   1.085   0.835 -0.2018 -0.0062 -0.4146
 2874TIP3   OH230112   0.087   0.254  13.667  0.1514 -0.4649  0.2564
 2874TIP3    H130113   0.059   0.323  13.727  0.2765 -1.9144  2.0629
 2874TIP3    H230114   0.183   0.255  13.673  0.1390 -1.1114  0.7134
 2875TIP3   OH230115   0.315   5.586   3.431 -0.0492 -0.3899  0.0299
 2875TIP3    H130116   0.222   5.600   3.452 -0.0038 -1.0712  0.7504
 2875TIP3    H230117   0.314   5.552   3.342 -0.5472 -0.8653  0.2033
 2876TIP3   OH230118   5.708   6.403   4.676  0.2138  0.4791 -0.1510
 2876TIP3    H130119   5.672   6.411   4.765 -0.3269  1.5136 -0.4500
 2876TIP3    H230120   5.648   6.344   4.631 -1.6567  2.8206 -0.8873
 2877TIP3   OH230121   4.709   2.012   0.862  0.2871 -0.9483 -0.1600
 2877TIP3    H130122   4.688   1.945   0.927 -0.8885 -0.2867  0.1667
 2877TIP3    H230123   4.787   1.979   0.818  0.4519 -1.9398  0.8324
 2878TIP3   OH230124   3.878   5.049   3.140  0.3557 -0.1153 -0.1800
 2878TIP3    H130125   3.925   5.121   3.182  2.8833 -2.2453  0.9491
 2878TIP3    H230126   3.936   5.021   3.070  0.4021 -2.2843  0.6704
 2879TIP3   OH230127   3.283   4.108   5.370  0.2316 -0.4258 -0.3347
 2879TIP3    H130128   3.229   4.033   5.344  0.0180 -0.1043 -0.8338
 2879TIP3    H230129   3.264   4.119   5.463  0.0231 -0.7960 -0.3275
 2880TIP3   OH230130   5.350   1.313  14.060 -0.5949  0.4155  0.1212
 2880TIP3    H130131   5.307   1.390  14.096  0.4742  2.2624 -2.3060
 2880TIP3    H230132   5.284   1.270  14.006 -0.4778  1.1754 -0.6495
 2881TIP3   OH230133   3.798   6.371   2.935  0.2233  0.5061  0.2133
 2881TIP3    H130134   3.722   6.382   2.877 -0.6706 -1.4620  0.9120
 2881TIP3    H230135   3.862   6.325   2.882 -0.2607 -0.5247  0.5071
 2882TIP3   OH230136   0.635   0.749  15.283 -0.1171 -0.5335  0.6798
 2882TIP3    H130137   0.690   0.812  15.331 -0.8026 -1.0727  2.2403
 2882TIP3    H230138   0.642   0.776  15.192  1.6878  0.2085  0.9877
 2883TIP3   OH230139   5.217   1.796   2.350 -0.0242 -0.9875  0.4846
 2883TIP3    H130140   5.154   1.811   2.280  1.7757 -0.8765 -1.2099
 2883TIP3    H230141   5.196   1.861   2.417  0.7609  1.7860 -1.8161
 2884TIP3   OH230142   3.709   0.408  12.611  0.1451 -0.1528 -0.3856
 2884TIP3    H130143   3.736   0.474  12.675 -0.6409 -0.4598  0.2823
 2884TIP3    H230144   3.728   0.447  12.526  1.0785  0.3172  0.0276
 2885TIP3   OH230145   2.900   3.153   5.414 -0.3229 -0.0620 -0.8998
 2885TIP3    H130146   2.936   3.106   5.489 -1.6811 -0.0523 -0.2162
 2885TIP3    H230147   2.934   3.106   5.338 -0.9985 -1.6807 -0.2442
 2886TIP3   OH230148   0.176   1.977  13.869  0.0748 -0.2326 -0.0329
 2886TIP3    H130149   0.089   1.945  13.843 -0.0406 -0.9904  1.2088
 2886TIP3    H230150   0.175   1.974  13.964  1.2347  0.4120  0.0127
 2887TIP3   OH230151   4.161   0.224   2.748  0.4055 -0.2298  0.2397
 2887TIP3    H130152   4.154   0.238   2.653  2.6930  0.8814  0.1788
 2887TIP3    H230153   4.103   0.291   2.786 -0.6168 -0.7563 -0.3360
 2888TIP3   OH230154   5.203   2.279  16.297 -0.2659 -0.3774 -0.1284
 2888TIP3    H130155   5.230   2.327  16.219 -1.2896 -0.2912 -0.4450
 2888TIP3    H230156   5.181   2.348  16.361  1.1834 -0.4391  0.4917
 2889TIP3   OH230157   0.215   4.649   4.656  0.3591 -0.1123 -0.0262
 2889TIP3    H130158   0.205   4.745   4.653  1.1024 -0.0033 -3.9415
 2889TIP3    H230159   0.307   4.634   4.636  0.0231 -1.6696 -0.5087
 2890TIP3   OH230160   4.421   4.161   5.972 -0.6055 -0.6632  0.2313
 2890TIP3    H130161   4.481   4.110   5.918 -1.5207  0.8082 -2.3588
 2890TIP3    H230162   4.343   4.106   5.979 -0.5325 -0.8003 -0.0337
 2891TIP3   OH230163   2.064   1.569  10.931 -0.1602 -0.3170  0.0513
 2891TIP3    H130164   2.082   1.661  10.913  2.4408 -0.8529 -0.3904
 2891TIP3    H230165   2.065   1.526  10.845 -1.1119 -0.8238  0.2739
 2892TIP3   OH230166   1.376   4.121   2.387  1.1518 -0.0893  0.1854
 2892TIP3    H130167   1.288   4.084   2.392  0.0263  2.4472  0.1833
 2892TIP3    H230168   1.371   4.188   2.319  3.0630  0.2273  0.2884
 2893TIP3   OH230169   0.430   2.398  15.568 -0.0464 -0.2865 -0.2456
 2893TIP3    H130170   0.428   2.397  15.664  1.7551  1.1083 -0.1426
 2893TIP3    H230171   0.348   2.355  15.542 -0.6194 -0.6188  1.8981
 2894TIP3   OH230172   2.232   4.381   1.604 -0.0803 -0.1999  0.0545
 2894TIP3    H130173   2.210   4.405   1.514 -2.0424  0.5075  0.6733
 2894TIP3    H230174   2.202   4.291   1.613 -5.1059  1.3029  1.4445
 2895TIP3   OH230175   2.201   2.128  17.168 -0.0442 -0.3527 -0.2652
 2895TIP3    H130176   2.172   2.215  17.194  0.8282 -0.1757  0.1313
 2895TIP3    H230177   2.276   2.143  17.111  1.5968 -0.8551  1.6424
 2896TIP3   OH230178   6.744   4.328  15.355 -0.2365  0.6566 -0.2836
 2896TIP3    H130179   6.685   4.378  15.299 -1.5690 -0.0941  0.4058
 2896TIP3    H230180   6.692   4.307  15.432  1.2308  0.7651  0.7866
 2897TIP3   OH230181   5.448   2.422   3.060 -0.0412  0.0774  0.5101
 2897TIP3    H130182   5.543   2.419   3.075 -0.2508 -0.9644  1.9066
 2897TIP3    H230183   5.410   2.400   3.145 -1.5603  1.0755  0.1248
 2898TIP3   OH230184   6.395   3.916  10.676 -0.1842 -0.0154 -0.0307
 2898TIP3    H130185   6.306   3.881  10.679 -0.0369 -0.6073 -1.8337
 2898TIP3    H230186   6.451   3.841  10.697 -0.0891  0.3281  0.9829
 2899TIP3   OH230187   6.246   4.393  10.594  0.1057 -0.6195  0.1370
 2899TIP3    H130188   6.305   4.317  10.603  0.0990 -0.9320 -1.9594
 2899TIP3    H230189   6.188   4.369  10.522  0.4486  1.5943 -0.9326
 2900TIP3   OH230190   1.876   3.317  14.997  0.5528 -0.0694  0.2162
 2900TIP3    H130191   1.889   3.324  15.092  2.1431  1.2975 -0.0466
 2900TIP3    H230192   1.922   3.393  14.961 -1.5765  0.4807 -1.5605
 2901TIP3   OH230193   4.004   5.007  12.158 -0.4020 -0.7781  0.0066
 2901TIP3    H130194   4.033   4.943  12.093  1.6563 -2.1514  2.0949
 2901TIP3    H230195   3.977   4.954  12.233 -1.9022  0.7688  0.6190
 2902TIP3   OH230196   6.591   2.031  13.752 -0.2746 -0.0262 -0.6124
 2902TIP3    H130197   6.659   2.037  13.685 -2.6609  0.7725 -3.1419
 2902TIP3    H230198   6.540   2.112  13.742 -1.9521 -0.8364  0.7777
 2903TIP3   OH230199   0.739   1.815   1.640 -0.4796  0.1138  0.2833
 2903TIP3    H130200   0.716   1.765   1.562  0.5349 -1.2142  0.8060
 2903TIP3    H230201   0.697   1.900   1.627  0.0952  0.1048 -1.9470
 2904TIP3   OH230202   5.978   4.345  16.632 -0.3041  0.0229  0.7951
 2904TIP3    H130203   6.030   4.334  16.712  0.3765 -4.3001  0.0141
 2904TIP3    H230204   5.901   4.289  16.646 -3.0564  3.3623  0.4016
 2905TIP3   OH230205   5.191   1.016  11.572  0.0633  0.4112 -0.6768
 2905TIP3    H130206   5.271   1.069  11.575 -0.1167  0.6641 -0.2235
 2905TIP3    H230207   5.176   1.000  11.479  0.1701  1.0844 -0.8163
 2906TIP3   OH230208   0.278   5.077   1.135 -0.3083  0.2074 -0.2098
 2906TIP3    H130209   0.291   5.123   1.218 -0.7322  1.2089 -0.6844
 2906TIP3    H230210   0.324   5.130   1.070 -0.3689 -0.3143 -0.6933
 2907TIP3   OH230211   4.791   1.087  13.649  0.4410  0.3810 -0.1278
 2907TIP3    H130212   4.802   1.006  13.599 -1.8403 -0.8556  1.1884
 2907TIP3    H230213   4.796   1.157  13.583 -1.6923 -1.1070 -2.0392
 2908TIP3   OH230214   0.159   6.388  16.381 -0.8735  0.5843  0.1931
 2908TIP3    H130215   0.146   6.471  16.335 -0.2746 -0.5743 -2.2366
 2908TIP3    H230216   0.246   6.359  16.354 -1.5066 -1.3467  0.0789
 2909TIP3   OH230217   2.052   5.321  14.937  0.1831 -1.1526 -0.2503
 2909TIP3    H130218   2.110   5.325  14.861  1.2271 -1.1481  0.5319
 2909TIP3    H230219   2.025   5.229  14.943 -0.3347 -1.0540 -0.9260
 2910TIP3   OH230220   2.494   1.095  13.119 -0.1342  0.0152 -0.2141
 2910TIP3    H130221   2.516   1.105  13.211 -0.7294  0.5031 -0.1125
 2910TIP3    H230222   2.402   1.068  13.119 -0.2420  0.3651 -0.6729
 2911TIP3   OH230223   1.600   4.899  10.677 -0.3069  0.1502 -0.3193
 2911TIP3    H130224   1.680   4.888  10.627  0.0126 -0.4207  0.2936
 2911TIP3    H230225   1.542   4.948  10.620  0.7772  1.3127 -0.4604
 2912TIP3   OH230226   0.135   5.574  12.741  0.1139  0.6255 -0.2120
 2912TIP3    H130227   0.166   5.487  12.714 -1.0972  0.3921 -0.9075
 2912TIP3    H230228   0.205   5.634  12.714  1.7185 -0.2593  1.7056
 2913TIP3   OH230229   4.356   3.099   2.507  0.6429  0.2186  0.0135
 2913TIP3    H130230   4.383   3.136   2.423 -0.6746  1.6071  0.1602
 2913TIP3    H230231   4.376   3.167   2.571  0.3389 -0.2649  0.6407
 2914TIP3   OH230232   2.214   3.941   1.081  0.0147  0.3835  0.1299
 2914TIP3    H130233   2.191   3.856   1.044  0.2289  0.0208  0.8128
 2914TIP3    H230234   2.133   3.971   1.123  0.0988  0.2415  0.3977
 2915TIP3   OH230235   6.690   3.596   3.708  0.2555  1.3029 -0.4145
 2915TIP3    H130236   6.616   3.655   3.724 -0.4545 -0.2306  2.7297
 2915TIP3    H230237   6.751   3.615   3.780  0.3487 -1.1864  0.2411
 2916TIP3   OH230238   2.178   4.004  16.640  0.3077 -0.3000  0.3427
 2916TIP3    H130239   2.153   3.912  16.654  0.5670 -0.5082 -0.5071
 2916TIP3    H230240   2.227   4.028  16.720 -0.1044 -0.7735  0.7433
 2917TIP3   OH230241   3.243   0.077  13.131 -0.0311  0.2226  0.2796
 2917TIP3    H130242   3.249   0.115  13.044  0.4357 -2.5972 -1.0270
 2917TIP3    H230243   3.221   0.151  13.188 -1.4935  1.9726 -2.3516
 2918TIP3   OH230244   1.375   4.444  16.791  0.6700  0.1082  0.2784
 2918TIP3    H130245   1.411   4.383  16.857 -0.2351  0.1989  0.8737
 2918TIP3    H230246   1.337   4.515  16.843  1.4992  1.0797 -0.4058
 2919TIP3   OH230247   6.765   2.451   3.668  0.1349  0.3836  0.1979
 2919TIP3    H130248   6.808   2.447   3.583  1.0346  1.0067  0.5893
 2919TIP3    H230249   6.818   2.515   3.717  0.5229 -1.0284  1.6950
 2920TIP3   OH230250   0.577   1.329   3.136  0.1433 -0.5721  0.0870
 2920TIP3    H130251   0.517   1.379   3.191  0.8630 -0.3621  0.7086
 2920TIP3    H230252   0.561   1.360   3.047 -1.0535 -0.9277  0.1608
 2921TIP3   OH230253   6.606   0.637   4.922 -0.3054  0.1090  0.1218
 2921TIP3    H130254   6.645   0.550   4.916  1.2387  0.8773 -3.1047
 2921TIP3    H230255   6.641   0.674   5.003 -0.5545 -2.0069  1.2664
 2922TIP3   OH230256   3.814   0.192   1.975  0.3439  0.3321 -0.1526
 2922TIP3    H130257   3.730   0.145   1.978  0.1824  0.3762 -2.1054
 2922TIP3    H230258   3.859   0.166   2.055 -1.0666 -0.6016  0.3903
 2923TIP3   OH230259   6.455   3.533  16.291 -0.2368 -0.4685  1.1060
 2923TIP3    H130260   6.363   3.508  16.299 -0.1973 -0.7772  0.6523
 2923TIP3    H230261   6.488   3.531  16.380 -1.1933  1.7303  1.5737
 2924TIP3   OH230262   1.319   3.850  14.473  0.0722 -0.6684  0.2083
 2924TIP3    H130263   1.275   3.765  14.484  0.7287 -1.0987 -0.4363
 2924TIP3    H230264   1.283   3.885  14.391  1.2004 -1.2118 -0.5478
 2925TIP3   OH230265   3.159   5.647   5.576 -0.3006 -0.0616  0.4198
 2925TIP3    H130266   3.193   5.629   5.664 -2.6325 -0.1252  1.3637
 2925TIP3    H230267   3.100   5.574   5.558 -0.7279  0.5523 -0.7411
 2926TIP3   OH230268   3.984   5.301   2.671  0.0916  0.4729  0.3883
 2926TIP3    H130269   3.926   5.254   2.612  0.4578  1.4155 -0.7574
 2926TIP3    H230270   4.048   5.235   2.699 -0.3734 -0.0988  0.1240
 2927TIP3   OH230271   2.704   6.621   2.181 -0.2319 -0.3882  0.1866
 2927TIP3    H130272   2.764   6.673   2.235 -1.0309 -0.2325  0.9662
 2927TIP3    H230273   2.736   6.532   2.187 -0.7847 -0.5179  1.6525
 2928TIP3   OH230274   5.478   1.705  14.131  0.0149  0.2759 -0.7632
 2928TIP3    H130275   5.460   1.798  14.147  3.7051  0.8564  1.1355
 2928TIP3    H230276   5.428   1.659  14.199  0.0549  1.0816 -0.1720
 2929TIP3   OH230277   5.552   0.733   2.129 -0.1324 -0.5660 -0.1965
 2929TIP3    H130278   5.509   0.649   2.110  0.7168 -0.6429 -1.8867
 2929TIP3    H230279   5.538   0.745   2.223 -1.7950 -1.7326 -0.2432
 2930TIP3   OH230280   4.136   2.342  14.434 -0.4539 -0.3231 -0.0219
 2930TIP3    H130281   4.186   2.302  14.362 -2.4835 -0.4506 -1.4479
 2930TIP3    H230282   4.127   2.271  14.498  1.0022 -0.3431  0.2012
 2931TIP3   OH230283   5.183   6.780   5.850  0.8165 -0.3937  0.6991
 2931TIP3    H130284   5.089   6.793   5.859  0.5032  1.1918 -3.0436
 2931TIP3    H230285   5.191   6.693   5.811  0.6433  0.3528 -1.0942
 2932TIP3   OH230286   2.347   3.008  16.755  0.4937  0.1582 -0.1813
 2932TIP3    H130287   2.428   2.982  16.799 -0.5813 -0.8796  1.3134
 2932TIP3    H230288   2.298   2.926  16.746 -0.9286  0.9472  0.1415
 2933TIP3   OH230289   6.263   4.476  12.169 -0.0920 -0.1513 -0.0990
 2933TIP3    H130290   6.269   4.384  12.144  1.9964 -0.1412  0.1287
 2933TIP3    H230291   6.320   4.521  12.107 -0.2118  0.8246  0.4800
 2934TIP3   OH230292   0.048   1.457  12.795  0.3948  0.3558 -0.3705
 2934TIP3    H130293   0.011   1.386  12.847 -0.4939  1.8404  1.1488
 2934TIP3    H230294   0.142   1.449  12.805  0.2957 -0.4411 -0.0180
 2935TIP3   OH230295   2.634   6.515  13.400 -0.4287 -0.0473  0.3212
 2935TIP3    H130296   2.560   6.536  13.456 -2.8653 -0.6233 -2.4411
 2935TIP3    H230297   2.685   6.451  13.449 -1.0035  1.2995  2.8145
 2936TIP3   OH230298   3.033   5.724  13.790  0.1173 -0.5947  0.9088
 2936TIP3    H130299   2.975   5.658  13.828  0.7420 -0.5976  1.8691
 2936TIP3    H230300   3.112   5.721  13.843  0.3531  0.5809  0.6652
 2937TIP3   OH230301   5.585   6.643  15.535 -0.3161 -0.3736 -0.0156
 2937TIP3    H130302   5.582   6.592  15.617 -0.1294 -0.5007 -0.0865
 2937TIP3    H230303   5.576   6.577  15.466  2.3704 -0.6323 -0.2114
 2938TIP3   OH230304   6.376   1.978  12.380  0.2691 -0.5828  0.1455
 2938TIP3    H130305   6.463   1.940  12.389 -0.1957 -1.2753  1.9801
 2938TIP3    H230306   6.388   2.070  12.404  0.1898 -1.0750  2.1970
 2939TIP3   OH230307   1.110   3.899  16.338  0.1805 -0.0648  0.2434
 2939TIP3    H130308   1.139   3.956  16.409 -1.8171 -0.5238  1.5227
 2939TIP3    H230309   1.189   3.852  16.311  1.0718  0.4208  1.8764
 2940TIP3   OH230310   2.926   1.412  10.602  0.4112  0.4314 -0.1697
 2940TIP3    H130311   2.894   1.323  10.587  1.7311 -0.1937  0.5129
 2940TIP3    H230312   2.906   1.459  10.522  0.9724 -0.8894 -1.1188
 2941TIP3   OH230313   2.916   0.589  15.986  0.4686  0.7808  0.1077
 2941TIP3    H130314   2.904   0.593  15.891  2.3413  1.2444 -0.1413
 2941TIP3    H230315   2.851   0.524  16.015  0.6424 -0.2361 -1.6307
 2942TIP3   OH230316   3.708   5.758  16.297  0.3205  0.2200 -0.2948
 2942TIP3    H130317   3.667   5.672  16.309  1.7504 -0.7581 -2.0075
 2942TIP3    H230318   3.704   5.798  16.384 -0.5389 -1.4981  0.5147
 2943TIP3   OH230319   3.464   3.160   3.561  0.1452 -0.4299 -0.5261
 2943TIP3    H130320   3.423   3.242   3.532 -0.1345 -0.4576 -0.2145
 2943TIP3    H230321   3.394   3.096   3.556 -0.6198  0.0186  2.4428
 2944TIP3   OH230322   4.732   0.307   4.072  0.6819  0.0974  0.8766
 2944TIP3    H130323   4.825   0.313   4.048  0.5353  0.9217  0.4722
 2944TIP3    H230324   4.698   0.395   4.056 -0.2024 -0.2350  0.8958
 2945TIP3   OH230325   1.310   0.151   4.469  0.1050 -0.0921 -0.4011
 2945TIP3    H130326   1.299   0.075   4.527  3.4747 -0.3486  0.0829
 2945TIP3    H230327   1.296   0.116   4.381 -2.5223 -0.2490 -0.0191
 2946TIP3   OH230328   3.340   4.812  16.594 -0.4787  0.1789 -0.1894
 2946TIP3    H130329   3.392   4.839  16.669  0.8876 -1.6131 -0.4264
 2946TIP3    H230330   3.265   4.872  16.593 -0.7719  0.0046  2.8544
 2947TIP3   OH230331   0.168   6.000  16.736 -0.3391 -0.4154 -0.5058
 2947TIP3    H130332   0.242   6.043  16.779 -0.7388  0.9069 -1.0930
 2947TIP3    H230333   0.148   6.056  16.661 -2.3077 -0.4242 -0.0402
 2948TIP3   OH230334   5.940   3.886  14.318  0.7547 -0.6051  0.0271
 2948TIP3    H130335   5.968   3.977  14.304  0.0067 -0.5102 -0.9422
 2948TIP3    H230336   6.021   3.835  14.309  0.9801 -0.1429 -0.6208
 2949TIP3   OH230337   6.570   0.060   4.744  0.2051 -0.5437  0.4850
 2949TIP3    H130338   6.479   0.082   4.726  0.4302  0.8977  0.9373
 2949TIP3    H230339   6.602   0.020   4.663 -0.2614  0.8988 -0.4568
 2950TIP3   OH230340   4.415   5.720   5.420 -0.1677 -0.1257 -0.1663
 2950TIP3    H130341   4.420   5.770   5.339  1.3014 -0.9331 -0.6007
 2950TIP3    H230342   4.328   5.739   5.455  0.2548  2.5390 -0.4160
 2951TIP3   OH230343   3.879   1.287   4.446  0.0270  0.0745  0.1638
 2951TIP3    H130344   3.925   1.220   4.495 -0.1217 -0.2821 -0.1787
 2951TIP3    H230345   3.934   1.303   4.369  1.0043  1.6721  1.1373
 2952TIP3   OH230346   2.286   0.281  14.552  0.7433  0.4642  0.5601
 2952TIP3    H130347   2.209   0.315  14.599  0.6440  1.6541 -0.4357
 2952TIP3    H230348   2.254   0.200  14.511  0.8503 -0.6476  2.5329
 2953TIP3   OH230349   2.503   1.365  11.887  0.4287 -0.1134 -0.2662
 2953TIP3    H130350   2.486   1.451  11.849  0.1974  0.6855  1.5238
 2953TIP3    H230351   2.419   1.320  11.884  0.0183  0.5596  0.7382
 2954TIP3   OH230352   5.237   5.378   0.583  0.3219  1.3085 -0.6059
 2954TIP3    H130353   5.198   5.291   0.577 -2.3173  2.4864 -2.7966
 2954TIP3    H230354   5.273   5.382   0.671 -0.6465 -1.5143  0.0311
 2955TIP3   OH230355   5.678   2.067   3.092  0.1965  0.3797 -0.0950
 2955TIP3    H130356   5.608   2.005   3.069  1.1856 -0.8682  0.1738
 2955TIP3    H230357   5.673   2.073   3.187 -0.0360  0.9021 -0.1369
 2956TIP3   OH230358   0.076   0.189  14.201 -0.0940  0.1315  0.1276
 2956TIP3    H130359   0.094   0.133  14.126  0.0232 -0.4433  0.5802
 2956TIP3    H230360  -0.017   0.210  14.195  0.2982  1.6671 -1.2413
 2957TIP3   OH230361   3.192   3.722   3.704  0.1648  0.6927  0.2086
 2957TIP3    H130362   3.146   3.784   3.648  2.2577  0.6313 -1.7687
 2957TIP3    H230363   3.279   3.760   3.716  1.0892 -1.2000 -0.0104
 2958TIP3   OH230364   0.896   1.202   3.470  0.8334  0.1827 -0.2601
 2958TIP3    H130365   0.803   1.201   3.492  0.8920  1.3997  0.1244
 2958TIP3    H230366   0.898   1.203   3.374  0.4778 -0.7327 -0.2837
 2959TIP3   OH230367   0.650   3.878  11.325 -0.3476 -0.6823  1.1000
 2959TIP3    H130368   0.739   3.914  11.332 -0.1837 -0.6404 -0.6281
 2959TIP3    H230369   0.594   3.955  11.311 -0.4504 -0.8053  0.8104
 2960TIP3   OH230370   6.676   0.851  13.038 -0.0097  0.2174 -0.2899
 2960TIP3    H130371   6.589   0.814  13.052  0.0799 -0.0437 -0.4139
 2960TIP3    H230372   6.665   0.909  12.962  0.2356 -0.9397 -1.2498
 2961TIP3   OH230373   3.540   3.571   5.167  0.3311  0.8747 -0.3776
 2961TIP3    H130374   3.479   3.640   5.190 -0.8415 -0.6060  1.1744
 2961TIP3    H230375   3.485   3.496   5.146  1.5612  0.3869 -2.1063
 2962TIP3   OH230376   3.844   6.431   3.463 -0.6513 -1.0226  0.1044
 2962TIP3    H130377   3.921   6.471   3.503 -1.3287 -0.7556  1.1777
 2962TIP3    H230378   3.867   6.422   3.370 -0.6868  2.5639 -0.4163
 2963TIP3   OH230379   3.127   3.079  16.312  0.7017 -0.2482 -0.4433
 2963TIP3    H130380   3.157   3.071  16.221 -1.5397  0.7282 -1.3513
 2963TIP3    H230381   3.075   3.159  16.312  0.9152 -0.0539  1.8190
 2964TIP3   OH230382   3.022   5.388   0.425  0.5659 -0.3115 -0.6569
 2964TIP3    H130383   3.027   5.483   0.424 -0.3243 -0.2501 -0.7534
 2964TIP3    H230384   2.940   5.369   0.472  1.4200 -1.0688  0.5787
 2965TIP3   OH230385   6.512   3.435   4.628  0.1335  0.3080 -0.0623
 2965TIP3    H130386   6.516   3.371   4.557 -0.3348  0.4878 -0.2548
 2965TIP3    H230387   6.515   3.382   4.708  0.9135  0.1188 -0.2077
 2966TIP3   OH230388   0.594   3.646  12.493  0.0358 -0.5157  0.5353
 2966TIP3    H130389   0.539   3.725  12.490 -1.1137 -1.2731  1.1996
 2966TIP3    H230390   0.666   3.670  12.552  0.4037  0.4552 -0.2758
 2967TIP3   OH230391   0.022   2.904  12.079  0.2118 -0.0462  0.6587
 2967TIP3    H130392   0.034   2.999  12.083 -0.2144 -0.0182  1.4267
 2967TIP3    H230393   0.109   2.870  12.055  0.6945  0.4676  1.5797
 2968TIP3   OH230394   1.807   6.153   4.237  0.0747  0.3502 -0.2662
 2968TIP3    H130395   1.833   6.086   4.173  1.2409  0.8639 -0.3555
 2968TIP3    H230396   1.834   6.235   4.197  1.9020  0.6128  1.3734
 2969TIP3   OH230397   4.939   2.727  11.660  0.0777 -0.3670 -0.7254
 2969TIP3    H130398   4.980   2.723  11.574 -0.4869  3.2210 -1.3338
 2969TIP3    H230399   4.897   2.813  11.663 -1.7188 -1.1795  2.3799
 2970TIP3   OH230400   0.709   6.280   2.758 -0.1513  0.1313 -0.0105
 2970TIP3    H130401   0.792   6.326   2.775 -0.1946  0.2873 -0.2083
 2970TIP3    H230402   0.709   6.207   2.819  0.7957 -0.7065 -0.9795
 2971TIP3   OH230403   5.077   5.906  15.281  0.4500  0.6883 -0.1062
 2971TIP3    H130404   5.136   5.845  15.325 -0.0743 -0.1557 -0.5377
 2971TIP3    H230405   5.132   5.982  15.260  0.9863  0.5910  0.9026
 2972TIP3   OH230406   1.112   5.488  15.006 -0.4047 -0.2538 -0.1353
 2972TIP3    H130407   1.084   5.408  14.962 -2.9684 -0.3205  1.4125
 2972TIP3    H230408   1.090   5.558  14.945  2.6745 -0.6655 -1.8831
 2973TIP3   OH230409   1.344   3.058  15.940 -0.0342  0.4726 -0.0721
 2973TIP3    H130410   1.359   3.020  16.026  2.1814 -0.0065 -0.6080
 2973TIP3    H230411   1.387   3.144  15.943  1.8584 -0.3652 -1.2562
 2974TIP3   OH230412   5.007   4.671  11.908  0.2176 -0.0596 -0.6925
 2974TIP3    H130413   5.099   4.698  11.906  0.3651 -0.4948  0.1551
 2974TIP3    H230414   4.966   4.724  11.839  1.1800 -0.1740 -1.3840
 2975TIP3   OH230415   1.413   1.972   5.375  0.2616 -0.2527  0.1402
 2975TIP3    H130416   1.502   2.008   5.371 -0.7357  2.3383 -2.8214
 2975TIP3    H230417   1.416   1.894   5.321  0.8480 -0.5610  0.6028
 2976TIP3   OH230418   5.950   5.312  12.296  0.1557 -0.2660 -0.4734
 2976TIP3    H130419   5.988   5.396  12.323 -0.2457  0.0007 -0.7108
 2976TIP3    H230420   5.963   5.254  12.370 -1.1131  0.5098  0.3983
 2977TIP3   OH230421   6.569   3.578   1.381 -0.2558 -0.2653 -0.1242
 2977TIP3    H130422   6.513   3.502   1.394 -0.4276 -0.3469 -1.2386
 2977TIP3    H230423   6.628   3.553   1.309 -0.0997  0.5204 -0.2811
 2978TIP3   OH230424   3.166   6.180  16.243  0.3042 -0.4121 -0.0355
 2978TIP3    H130425   3.114   6.145  16.316 -1.0802  0.7498 -0.4034
 2978TIP3    H230426   3.256   6.175  16.273 -0.1441 -0.9765  1.3128
 2979TIP3   OH230427   2.980   5.328  14.319 -0.3024  0.5847 -0.0868
 2979TIP3    H130428   2.942   5.379  14.390  2.5113  2.1998  0.4160
 2979TIP3    H230429   3.070   5.361  14.311  1.9728 -4.4904  0.5458
 2980TIP3   OH230430   0.565   3.128   5.466 -0.1412 -0.4856  0.3960
 2980TIP3    H130431   0.657   3.152   5.480  0.1708 -1.3435 -0.0777
 2980TIP3    H230432   0.523   3.209   5.439  0.4705 -0.0724  0.6505
 2981TIP3   OH230433   0.906   1.352  15.575 -0.4349 -0.2057  0.3759
 2981TIP3    H130434   0.836   1.287  15.576  0.1794 -0.8825  1.3848
 2981TIP3    H230435   0.901   1.391  15.488 -1.6578 -0.6802  0.2161
 2982TIP3   OH230436   2.834   2.910  10.763  0.7891  0.8166  0.1883
 2982TIP3    H130437   2.927   2.932  10.770  1.5008 -1.5669 -0.9404
 2982TIP3    H230438   2.814   2.867  10.846  0.7345  1.1382  0.3446
 2983TIP3   OH230439   0.412   3.492   1.657 -0.0706  0.2033  0.1665
 2983TIP3    H130440   0.336   3.546   1.636 -0.7715 -1.7228 -2.9348
 2983TIP3    H230441   0.481   3.526   1.600  0.4990 -0.0042  0.7267
 2984TIP3   OH230442   1.839   0.341  16.319  0.4936  0.3804 -0.0808
 2984TIP3    H130443   1.821   0.402  16.248 -1.0261  1.2267  0.9872
 2984TIP3    H230444   1.922   0.300  16.295  1.2425  2.3937 -1.1487
 2985TIP3   OH230445   1.711   5.112   3.535  0.1797  0.5591  0.0115
 2985TIP3    H130446   1.689   5.037   3.590 -0.6788  1.0532  0.3731
 2985TIP3    H230447   1.806   5.113   3.532  0.2671 -2.2678 -2.4289
 2986TIP3   OH230448   3.510   3.139   5.271  0.6810  0.4072 -0.0785
 2986TIP3    H130449   3.416   3.156   5.269  0.5630 -0.2415 -2.0374
 2986TIP3    H230450   3.524   3.100   5.358 -0.6446  1.4626  0.6646
 2987TIP3   OH230451   1.528   5.055  16.713 -0.0820  0.5553  0.0133
 2987TIP3    H130452   1.527   4.960  16.721  0.2231  0.6912  2.4313
 2987TIP3    H230453   1.590   5.073  16.642  3.5461 -0.9906  2.4841
 2988TIP3   OH230454   2.481   4.788   0.264  0.0844  0.1096 -0.0042
 2988TIP3    H130455   2.466   4.790   0.359 -2.5706  0.0194 -0.3461
 2988TIP3    H230456   2.507   4.698   0.246  0.9541  0.2096  0.6501
 2989TIP3   OH230457   3.220   5.239   1.157  0.4532  0.0260 -0.3016
 2989TIP3    H130458   3.306   5.247   1.199  0.1427  1.6902  0.1084
 2989TIP3    H230459   3.168   5.186   1.218  1.0226 -0.5558 -0.3080
 2990TIP3   OH230460   1.370   6.675   3.346 -0.0478 -0.3423  0.0997
 2990TIP3    H130461   1.337   6.611   3.409 -0.2340 -0.0435  0.3068
 2990TIP3    H230462   1.464   6.657   3.340  0.1608  0.2955  1.2415
 2991TIP3   OH230463   5.026   2.300  10.603  0.3367  0.4515  0.1961
 2991TIP3    H130464   5.033   2.205  10.602 -0.1816  0.4125  0.4340
 2991TIP3    H230465   4.945   2.319  10.555 -0.1130  0.7254  1.0567
 2992TIP3   OH230466   2.223   0.776  14.625 -0.1116 -0.5132  0.7513
 2992TIP3    H130467   2.157   0.774  14.556 -0.9034 -0.2212  1.4806
 2992TIP3    H230468   2.280   0.702  14.606 -0.6836 -0.8065  0.1367
 2993TIP3   OH230469   0.662   1.069  13.114  0.4180  0.2917 -0.0587
 2993TIP3    H130470   0.588   1.109  13.069  0.4780  1.1891  0.6073
 2993TIP3    H230471   0.623   1.025  13.190  0.3634 -0.8692 -0.7374
 2994TIP3   OH230472   1.025   4.246  12.129  0.0089 -0.5717  0.1377
 2994TIP3    H130473   1.109   4.275  12.093 -0.4120  1.2298  0.4901
 2994TIP3    H230474   1.029   4.272  12.221 -0.2721 -2.0396  0.5845
 2995TIP3   OH230475   0.693   6.614   5.663  0.2189 -0.0165  0.2990
 2995TIP3    H130476   0.681   6.579   5.752  0.1203  0.7766  0.6046
 2995TIP3    H230477   0.607   6.603   5.622  0.0548  0.3003  0.5527
 2996TIP3   OH230478   5.371   4.367   2.009  0.0851  0.1716 -0.7966
 2996TIP3    H130479   5.383   4.368   1.914  0.7532 -2.4105 -0.8003
 2996TIP3    H230480   5.307   4.436   2.025  1.1062  1.7595 -2.9097
 2997TIP3   OH230481   3.489   1.430   6.371 -0.5410 -0.7116 -0.0503
 2997TIP3    H130482   3.516   1.338   6.377  1.4908 -0.0723  2.6387
 2997TIP3    H230483   3.563   1.474   6.329  0.3375  0.2226  2.3038
 2998TIP3   OH230484   1.965   5.943  14.176 -0.5393  0.1509  0.1938
 2998TIP3    H130485   1.909   5.895  14.115 -1.3898 -0.1289  1.1488
 2998TIP3    H230486   1.909   6.014  14.209 -1.0051 -1.1680  2.4893
 2999TIP3   OH230487   0.931   1.166  17.117 -0.0810  0.9746 -0.0720
 2999TIP3    H130488   0.917   1.077  17.085  1.2216  0.1911  1.3605
 2999TIP3    H230489   0.878   1.221  17.060  1.1174 -0.4215 -2.7303
 3000TIP3   OH230490   5.308   6.699   4.641  0.0822 -0.1187  0.4224
 3000TIP3    H130491   5.233   6.678   4.586  0.7612  0.5686 -0.8221
 3000TIP3    H230492   5.333   6.615   4.680 -0.0279 -0.7740 -0.8437
 3001TIP3   OH230493   5.977   3.580  16.741  0.2133  0.1752 -0.0362
 3001TIP3    H130494   6.063   3.549  16.716  0.6830  0.2272  1.4013
 3001TIP3    H230495   5.993   3.659  16.792 -0.8502  1.6543 -1.8838
 3002TIP3   OH230496   6.784   0.407   4.725 -0.8780  0.3031 -0.1763
 3002TIP3    H130497   6.861   0.352   4.736 -0.1531  1.5565  1.6459
 3002TIP3    H230498   6.720   0.372   4.787 -1.5501 -0.3202 -1.1998
 3003TIP3   OH230499   0.283   2.205  16.762 -0.1606  0.1279  0.2029
 3003TIP3    H130500   0.372   2.213  16.796  0.6898 -1.6272 -1.3952
 3003TIP3    H230501   0.263   2.291  16.725  1.0841  0.4157  0.1584
 3004TIP3   OH230502   1.535   2.852  12.775 -0.1287 -0.3911  0.0703
 3004TIP3    H130503   1.537   2.831  12.868  0.4295  0.8357  0.3584
 3004TIP3    H230504   1.627   2.853  12.749 -0.2593 -0.3493 -0.3971
 3005TIP3   OH230505   6.505   5.810  16.768 -0.3850  0.3937  0.2961
 3005TIP3    H130506   6.582   5.861  16.744 -1.7951  2.2974 -0.5203
 3005TIP3    H230507   6.508   5.733  16.712  2.2093 -0.9799  2.0881
 3006TIP3   OH230508   3.059   5.910   6.289  0.1459  0.0560 -0.0567
 3006TIP3    H130509   3.120   5.957   6.346  0.3968 -1.2103  0.7605
 3006TIP3    H230510   3.068   5.819   6.315  0.1963 -0.5613 -2.0803
 3007TIP3   OH230511   0.390   3.457  12.646 -0.5826  0.0173  0.1656
 3007TIP3    H130512   0.401   3.381  12.588 -0.2850 -0.4222  0.7852
 3007TIP3    H230513   0.448   3.524  12.610 -1.0098  0.0322 -0.5141
 3008TIP3   OH230514   3.115   6.640  14.288  0.1930  0.3720 -0.2763
 3008TIP3    H130515   3.045   6.599  14.236 -0.6659 -0.2590  1.2939
 3008TIP3    H230516   3.108   6.733  14.268  0.0784  0.1251 -1.4896
 3009TIP3   OH230517   2.881   6.179   5.898  0.2341  0.4425 -0.1200
 3009TIP3    H130518   2.901   6.086   5.887  1.0988  0.7039 -0.9759
 3009TIP3    H230519   2.786   6.185   5.885  0.3220 -0.1826 -1.1978
 3010TIP3   OH230520   4.053   2.451  10.662  0.6846  0.6337 -0.2552
 3010TIP3    H130521   4.145   2.432  10.678  0.1411 -2.7452 -0.4586
 3010TIP3    H230522   4.051   2.545  10.643  3.7128  1.2937  1.9715
 3011TIP3   OH230523   4.338   3.368  13.027 -0.0106  0.2362 -0.2933
 3011TIP3    H130524   4.417   3.318  13.048  0.1606  0.0293 -1.3768
 3011TIP3    H230525   4.361   3.419  12.950 -0.8101  0.4674 -0.3894
 3012TIP3   OH230526   0.111   1.204   3.114  0.5522  0.1616 -0.2335
 3012TIP3    H130527   0.152   1.131   3.160 -0.9619 -1.2935 -1.0728
 3012TIP3    H230528   0.172   1.226   3.044  0.4687 -1.2161 -0.7736
 3013TIP3   OH230529   5.262   6.131  15.236  0.3920  0.4772 -0.3830
 3013TIP3    H130530   5.253   6.200  15.302 -0.0652  0.9413 -0.9245
 3013TIP3    H230531   5.215   6.164  15.160  1.5391  0.2695 -1.2048
 3014TIP3   OH230532   3.766   2.718   0.722 -0.5930  0.2794 -0.2982
 3014TIP3    H130533   3.734   2.657   0.789  0.1205  0.7681  0.4992
 3014TIP3    H230534   3.756   2.805   0.761  0.8299  0.5081 -0.3932
 3015TIP3   OH230535   2.596   3.310  16.860 -0.1260 -0.4810  0.2510
 3015TIP3    H130536   2.640   3.306  16.775  1.4721  0.6485  0.9681
 3015TIP3    H230537   2.565   3.221  16.875 -1.1776 -0.5308 -1.8668
 3016TIP3   OH230538   0.395   6.250  14.263  0.2150 -0.5820  0.0638
 3016TIP3    H130539   0.434   6.307  14.197 -0.7849  0.3573  0.2575
 3016TIP3    H230540   0.463   6.186  14.282  1.4385  0.6203 -0.0666
 3017TIP3   OH230541   2.935   0.969   0.813 -0.0570 -0.5520  0.0896
 3017TIP3    H130542   3.021   0.960   0.855  0.3571 -3.6382 -1.1767
 3017TIP3    H230543   2.881   0.902   0.855 -1.6921  0.8936  0.3885
 3018TIP3   OH230544   5.173   0.330  15.246 -0.1097 -0.1709  0.2817
 3018TIP3    H130545   5.200   0.413  15.205  1.7256 -1.1647 -0.6819
 3018TIP3    H230546   5.093   0.351  15.293 -1.1077  1.5929 -2.0105
 3019TIP3   OH230547   6.016   2.145   1.868 -0.1437 -0.1130 -0.1163
 3019TIP3    H130548   5.942   2.102   1.827  0.5981 -0.7866 -0.7804
 3019TIP3    H230549   5.986   2.235   1.883 -1.2398 -0.4882  0.0538
 3020TIP3   OH230550   6.608   4.770   2.315  0.2843 -0.3618 -0.4946
 3020TIP3    H130551   6.536   4.794   2.374  0.1710 -1.1232 -0.3108
 3020TIP3    H230552   6.602   4.674   2.308  3.1378 -0.8689  1.9751
 3021TIP3   OH230553   6.503   2.325   1.978 -0.9446 -0.3514 -0.3438
 3021TIP3    H130554   6.467   2.363   2.058 -0.6797 -1.0124  0.0909
 3021TIP3    H230555   6.596   2.343   1.982 -1.2290  1.8409 -1.7298
 3022TIP3   OH230556   1.599   1.543   6.132  0.1757 -0.1487  0.3281
 3022TIP3    H130557   1.568   1.632   6.121 -1.6144 -0.8329 -0.5509
 3022TIP3    H230558   1.521   1.493   6.157  1.2243 -1.3927  1.2834
 3023TIP3   OH230559   2.833   6.288  15.435  0.1655  0.6401 -0.0794
 3023TIP3    H130560   2.773   6.319  15.503  1.2565 -1.5730  2.0468
 3023TIP3    H230561   2.903   6.353  15.433  0.1238  0.7332  0.9606
 3024TIP3   OH230562   5.220   1.059  13.558 -0.3172 -0.2796  0.4086
 3024TIP3    H130563   5.170   1.010  13.623 -2.5498 -1.2793 -1.9206
 3024TIP3    H230564   5.304   1.013  13.554 -2.1174 -3.7554 -1.2842
 3025TIP3   OH230565   2.935   5.356   2.754  0.3294 -0.3466  0.6432
 3025TIP3    H130566   2.996   5.369   2.681 -1.1095 -0.0729 -0.5676
 3025TIP3    H230567   2.981   5.297   2.813  0.8833 -2.0322 -1.3260
 3026TIP3   OH230568   3.033   6.653  13.738 -0.7812 -0.2566 -0.0141
 3026TIP3    H130569   3.054   6.708  13.662 -1.2567 -2.4656 -1.8469
 3026TIP3    H230570   3.102   6.672  13.801  0.4106  0.6800 -1.5148
 3027TIP3   OH230571   5.580   5.506  14.826  0.2784  0.1493 -0.1855
 3027TIP3    H130572   5.489   5.520  14.799 -0.6780 -0.7405  2.2610
 3027TIP3    H230573   5.597   5.414  14.805  0.2938  0.0760  0.1410
 3028TIP3   OH230574   0.616   1.089  14.897  0.0098 -0.5722  0.2116
 3028TIP3    H130575   0.556   1.064  14.827  0.7773  1.3386 -1.2322
 3028TIP3    H230576   0.680   1.017  14.900 -0.1425 -0.7826 -0.9505
 3029TIP3   OH230577   1.068   5.832   1.822 -0.3483 -0.0929  0.3060
 3029TIP3    H130578   0.990   5.803   1.774 -0.5270  2.6727 -1.2493
 3029TIP3    H230579   1.057   5.795   1.910 -2.7623 -0.7975 -0.2090
 3030TIP3   OH230580   0.048   4.117  13.538  0.4159  0.5946 -0.1889
 3030TIP3    H130581   0.035   4.152  13.626  2.2096 -2.9364  1.7024
 3030TIP3    H230582   0.138   4.141  13.516  1.3767 -1.8281  0.7819
 3031TIP3   OH230583   5.900   3.969   5.028 -0.5267  0.6383  0.0025
 3031TIP3    H130584   5.850   3.934   5.102 -1.5572  0.7981 -0.5889
 3031TIP3    H230585   5.834   3.981   4.959  0.0837  2.2505 -0.3316
 3032TIP3   OH230586   5.134   1.928  14.014  0.3654  0.1886  0.2928
 3032TIP3    H130587   5.217   1.964  13.982  0.1492  0.6041  0.1990
 3032TIP3    H230588   5.125   1.965  14.102 -0.7893  1.9116 -0.5025
 3033TIP3   OH230589   3.740   6.682   1.104 -0.0402  0.4360 -0.7346
 3033TIP3    H130590   3.707   6.645   1.022  0.5877  1.9380 -1.7182
 3033TIP3    H230591   3.804   6.619   1.135 -0.5438 -0.3202 -1.2032
 3034TIP3   OH230592   5.784   5.098   5.473  0.2007  0.3153  0.2286
 3034TIP3    H130593   5.847   5.028   5.488  1.0222  0.9443 -0.1921
 3034TIP3    H230594   5.764   5.091   5.379 -2.2250 -1.3901  0.7731
 3035TIP3   OH230595   1.125   0.522  17.095  0.3041 -0.1462  0.1704
 3035TIP3    H130596   1.118   0.429  17.119 -0.5838 -0.0287  0.4043
 3035TIP3    H230597   1.092   0.569  17.171 -1.5638  0.2611 -0.8226
 3036TIP3   OH230598   6.412   4.867   0.655  0.1841 -0.1996  0.1574
 3036TIP3    H130599   6.479   4.897   0.593 -1.0934 -0.3058 -1.3303
 3036TIP3    H230600   6.428   4.919   0.734  0.8158  1.1568 -0.8175
 3037TIP3   OH230601   3.597   1.001  14.913 -0.1170 -0.3001 -0.4778
 3037TIP3    H130602   3.634   1.003  15.002  2.5233 -0.1287 -1.4789
 3037TIP3    H230603   3.535   1.074  14.911 -0.2616 -0.3318  1.2223
 3038TIP3   OH230604   0.543   0.811   6.252 -0.0703  0.5106 -0.0728
 3038TIP3    H130605   0.596   0.736   6.225  0.6476  0.3501  1.6493
 3038TIP3    H230606   0.575   0.833   6.340 -3.1317  0.1700  1.2418
 3039TIP3   OH230607   0.956   1.865   5.475 -0.3427 -0.0559 -0.1597
 3039TIP3    H130608   1.008   1.937   5.439  0.5547 -0.2532  0.6953
 3039TIP3    H230609   1.007   1.786   5.455 -1.1466 -0.4276 -0.7816
 3040TIP3   OH230610   3.675   6.299   0.904  0.0545 -0.1083 -0.3781
 3040TIP3    H130611   3.765   6.318   0.932 -0.3445 -0.5242  1.3417
 3040TIP3    H230612   3.658   6.211   0.938 -1.0871  0.0742 -0.4399
 3041TIP3   OH230613   5.689   0.678  12.640  0.1386 -0.4495  0.0198
 3041TIP3    H130614   5.644   0.596  12.619  1.0938 -0.8094 -0.6990
 3041TIP3    H230615   5.705   0.718  12.555  1.6651 -0.6133  0.1948
 3042TIP3   OH230616   5.861   5.233  13.401  0.4553  0.1373  0.3221
 3042TIP3    H130617   5.819   5.280  13.329 -1.0381  1.6429  2.0789
 3042TIP3    H230618   5.918   5.297  13.441  1.1953 -0.6597  0.5720
 3043TIP3   OH230619   4.038   5.317  14.345  0.6621  0.0264  0.0847
 3043TIP3    H130620   4.032   5.324  14.440  2.4160 -0.1417  0.2353
 3043TIP3    H230621   3.999   5.231  14.325 -0.9513  0.6299  0.4746
 3044TIP3   OH230622   2.333   3.340   4.142  0.1541 -0.1129 -0.5011
 3044TIP3    H130623   2.373   3.321   4.227  2.1233 -1.0652 -1.5678
 3044TIP3    H230624   2.375   3.420   4.113 -2.4334  1.7620  0.4821
 3045TIP3   OH230625   3.930   6.331   5.137 -0.1654  0.7630  0.1986
 3045TIP3    H130626   3.941   6.349   5.044  2.0748  0.7101  0.3805
 3045TIP3    H230627   4.020   6.322   5.170 -0.9214 -1.2410  1.9697
 3046TIP3   OH230628   0.200   2.277  15.475 -0.0713  0.1556 -0.2492
 3046TIP3    H130629   0.141   2.204  15.496 -0.1655  0.7459  1.7529
 3046TIP3    H230630   0.141   2.350  15.456  0.0262 -0.1681 -1.9398
 3047TIP3   OH230631   2.466   5.339  12.462  0.1662  0.7004 -0.4070
 3047TIP3    H130632   2.466   5.430  12.493 -3.1971  0.3734  0.9305
 3047TIP3    H230633   2.525   5.294  12.522  0.1527  1.6141  0.3246
 3048TIP3   OH230634   3.553   4.830  15.876 -0.3689  0.6337 -0.0501
 3048TIP3    H130635   3.509   4.902  15.921  0.2137  1.6519 -1.0416
 3048TIP3    H230636   3.580   4.771  15.945 -0.3541  1.6661  0.8555
 3049TIP3   OH230637   2.912   1.357  15.207  0.1555  0.4000 -0.0632
 3049TIP3    H130638   2.877   1.403  15.284 -2.7532 -1.0755 -0.3448
 3049TIP3    H230639   2.856   1.386  15.135  0.4747 -0.9688 -0.8904
 3050TIP3   OH230640   2.608   3.910  12.172  0.5554 -0.0553 -0.4018
 3050TIP3    H130641   2.646   3.823  12.163  0.9515  0.0439  0.2631
 3050TIP3    H230642   2.524   3.904  12.127  1.4073 -0.2351 -2.0364
 3051TIP3   OH230643   6.487   3.953  16.310  0.1906 -0.6931 -0.0144
 3051TIP3    H130644   6.495   4.048  16.299 -0.5897 -0.2141  2.6792
 3051TIP3    H230645   6.395   3.934  16.294  0.2281 -0.8934  0.0029
 3052TIP3   OH230646   1.348   4.775  13.255 -0.4331  0.5237 -0.0016
 3052TIP3    H130647   1.290   4.700  13.244  1.2014 -0.6837 -0.7859
 3052TIP3    H230648   1.404   4.752  13.328  1.5626 -0.0645 -1.6464
 3053TIP3   OH230649   2.940   4.205  14.489 -0.1194  0.3246  0.4466
 3053TIP3    H130650   2.975   4.257  14.562 -0.4883  1.7639 -0.3623
 3053TIP3    H230651   2.912   4.123  14.530  2.2528 -0.0825  1.4820
 3054TIP3   OH230652   0.677   4.057  12.667 -0.1647 -0.5514 -0.2916
 3054TIP3    H130653   0.674   4.021  12.578 -1.2536 -0.1020 -0.4518
 3054TIP3    H230654   0.733   4.134  12.660 -1.7562  0.5933 -1.0350
 3055TIP3   OH230655   3.982   3.102  14.910  0.0268 -0.1741 -0.6523
 3055TIP3    H130656   4.075   3.123  14.897  0.5818 -1.3287  1.0551
 3055TIP3    H230657   3.937   3.186  14.904  1.3607  0.6021 -0.1753
 3056TIP3   OH230658   3.912   1.410   3.544 -0.0975  0.1738 -0.6146
 3056TIP3    H130659   3.885   1.499   3.521 -0.3431 -0.0757 -1.3295
 3056TIP3    H230660   3.848   1.381   3.609  0.3378  0.7317  0.0770
 3057TIP3   OH230661   4.386   4.694  12.482  0.9301  0.0320  0.0366
 3057TIP3    H130662   4.361   4.682  12.391  1.1987 -0.3328  0.0077
 3057TIP3    H230663   4.429   4.612  12.507  0.4464 -0.0484  0.6316
 3058TIP3   OH230664   0.074   2.833   4.618  0.1573 -0.3861  0.1152
 3058TIP3    H130665   0.077   2.741   4.645 -0.5963 -0.5589 -0.3734
 3058TIP3    H230666   0.020   2.875   4.684 -0.6469 -0.5694 -0.4104
 3059TIP3   OH230667   3.525   4.868  12.895 -0.6440  0.1120  0.6418
 3059TIP3    H130668   3.439   4.878  12.855 -0.2951  1.1404  0.1192
 3059TIP3    H230669   3.539   4.773  12.900 -1.8138 -0.0578  0.7700
 3060TIP3   OH230670   0.265   2.201  13.060  0.2718 -0.2842 -0.2939
 3060TIP3    H130671   0.255   2.176  12.968 -1.0100 -3.3853  0.5312
 3060TIP3    H230672   0.178   2.187  13.098  0.3935  2.3202  1.1641
 3061TIP3   OH230673   2.321   6.644  16.815  0.0733  0.2208  0.3052
 3061TIP3    H130674   2.357   6.564  16.776 -1.9420 -0.4082 -0.3549
 3061TIP3    H230675   2.365   6.650  16.900  1.0319 -0.9927 -0.0685
 3062TIP3   OH230676   4.474   1.372  10.835  0.2271  0.1715  0.0205
 3062TIP3    H130677   4.569   1.370  10.846  0.2584  2.0163  0.5596
 3062TIP3    H230678   4.439   1.375  10.924 -0.2741  0.6059 -0.1812
 3063TIP3   OH230679   5.198   2.560   1.945 -0.0850 -0.1355  0.2607
 3063TIP3    H130680   5.181   2.502   2.019  1.1296  0.5045  1.0610
 3063TIP3    H230681   5.280   2.604   1.967  0.2643  0.1178 -1.4394
 3064TIP3   OH230682   0.589   1.571   2.096  0.1565  0.1779 -0.3649
 3064TIP3    H130683   0.615   1.631   2.165  2.4910 -0.5134 -0.5633
 3064TIP3    H230684   0.611   1.617   2.015 -0.0256 -0.0991 -0.5741
 3065TIP3   OH230685   6.483   3.679   5.763  0.3643 -0.5779 -0.3663
 3065TIP3    H130686   6.419   3.724   5.817  0.2119  0.0165 -1.0163
 3065TIP3    H230687   6.548   3.746   5.742  0.5935 -0.8819 -0.6499
 3066TIP3   OH230688   3.397   1.210  13.578  0.2839 -0.5124  0.3367
 3066TIP3    H130689   3.490   1.188  13.575  0.0087 -1.7016 -0.1467
 3066TIP3    H230690   3.372   1.202  13.670  1.1135  1.9416  0.8379
 3067TIP3   OH230691   4.585   0.420   6.338  0.5614 -0.5621 -0.2283
 3067TIP3    H130692   4.625   0.349   6.388 -2.2655 -0.6670  2.1123
 3067TIP3    H230693   4.615   0.500   6.381 -1.1529 -0.6191  1.1296
 3068TIP3   OH230694   5.665   4.429  13.249  0.1485  0.4447 -0.1476
 3068TIP3    H130695   5.614   4.404  13.326  0.4112 -0.0904 -0.1413
 3068TIP3    H230696   5.655   4.355  13.189 -0.7702  1.2273 -0.9941
 3069TIP3   OH230697   2.737   2.987  12.710  0.1426 -0.1821 -0.2958
 3069TIP3    H130698   2.641   2.995  12.712  0.2063  0.8304 -0.5915
 3069TIP3    H230699   2.766   3.066  12.665  1.1418 -0.3178  0.0938
 3070TIP3   OH230700   5.370   0.735  13.957  0.0437 -0.0697  0.2722
 3070TIP3    H130701   5.422   0.805  13.919 -0.3745  0.0944 -0.0082
 3070TIP3    H230702   5.340   0.683  13.882 -0.6016  0.1249  0.3885
 3071TIP3   OH230703   3.922   2.345  16.948  0.0292  0.5054  0.5495
 3071TIP3    H130704   4.013   2.374  16.942 -0.1934  1.0124 -0.8425
 3071TIP3    H230705   3.879   2.387  16.873 -0.9533 -1.1204  0.1601
 3072TIP3   OH230706   0.149   0.055  15.480 -0.2394  0.4722 -0.0691
 3072TIP3    H130707   0.081   0.027  15.419 -0.7773  0.7869  0.3686
 3072TIP3    H230708   0.146   0.151  15.476 -1.8178  0.5897  2.0497
 3073TIP3   OH230709   3.548   4.694  14.246 -0.1394  0.4471  0.2873
 3073TIP3    H130710   3.534   4.736  14.160  2.9365  2.5618  0.6328
 3073TIP3    H230711   3.588   4.610  14.225 -1.5263 -0.0623 -0.3747
 3074TIP3   OH230712   3.086   4.884   2.909 -0.6001 -0.3103 -0.1098
 3074TIP3    H130713   3.079   4.807   2.964  0.5965 -0.2652  0.1351
 3074TIP3    H230714   3.180   4.903   2.905 -0.8518  1.0639 -0.2490
 3075TIP3   OH230715   0.333   6.768  16.357  0.3990  0.2730 -0.3172
 3075TIP3    H130716   0.370   6.856  16.354 -0.4608  0.6278 -0.7879
 3075TIP3    H230717   0.279   6.767  16.436  0.3915  0.1737 -0.3241
 3076TIP3   OH230718   3.710   5.131  14.506 -0.0417 -0.1190 -0.3674
 3076TIP3    H130719   3.768   5.167  14.439 -1.2517 -0.1143 -1.4500
 3076TIP3    H230720   3.693   5.041  14.478 -0.9608  0.0372 -0.3603
 3077TIP3   OH230721   0.781   3.101  13.393 -0.7833  0.2752  0.1057
 3077TIP3    H130722   0.703   3.141  13.354 -0.1036  1.4588 -0.0982
 3077TIP3    H230723   0.834   3.074  13.318 -0.8404 -0.2146  0.2412
 3078TIP3   OH230724   4.059   0.775  15.431 -0.6243 -0.0719  0.0794
 3078TIP3    H130725   4.025   0.691  15.402 -0.0739 -0.3297  0.1828
 3078TIP3    H230726   4.047   0.775  15.526 -2.3385  0.7335 -0.0966
 3079TIP3   OH230727   3.381   6.746  14.136  0.9003  0.6637 -0.6528
 3079TIP3    H130728   3.325   6.818  14.106  0.0745  0.9402  1.3790
 3079TIP3    H230729   3.424   6.781  14.214  1.0739 -0.8014 -0.0672
 3080TIP3   OH230730   0.458   6.624   4.147 -0.1547 -0.4137  0.2950
 3080TIP3    H130731   0.380   6.638   4.201 -0.1529  0.0942  0.1653
 3080TIP3    H230732   0.429   6.641   4.057  0.4002  1.0315  0.3625
 3081TIP3   OH230733   6.716   2.635   5.173 -0.4358 -0.0108  0.2728
 3081TIP3    H130734   6.771   2.561   5.147  0.2424  0.2453  0.9483
 3081TIP3    H230735   6.627   2.606   5.155 -0.0507  0.0447 -2.0752
 3082TIP3   OH230736   5.633   4.052  12.643  0.1858 -0.7864  0.2177
 3082TIP3    H130737   5.567   3.984  12.657 -0.5454 -0.4823 -1.4405
 3082TIP3    H230738   5.659   4.042  12.551  1.0572  0.3120  0.3186
 3083TIP3   OH230739   2.239   5.545   5.534 -0.2872  0.0617  0.3282
 3083TIP3    H130740   2.274   5.598   5.606 -1.3926 -1.0683  1.7651
 3083TIP3    H230741   2.159   5.591   5.507 -0.6565 -0.2874  0.8238
 3084TIP3   OH230742   5.296   1.383  15.311  0.3096 -1.0994  0.2231
 3084TIP3    H130743   5.330   1.411  15.226  0.8648 -0.2409  0.7039
 3084TIP3    H230744   5.253   1.299  15.294 -2.0365  0.3106 -1.4384
 3085TIP3   OH230745   0.696   0.211   3.556  0.2442  0.8635  0.0072
 3085TIP3    H130746   0.722   0.158   3.631 -0.6515  1.3997  0.7158
 3085TIP3    H230747   0.605   0.234   3.573 -0.8882 -1.2265 -2.5548
 3086TIP3   OH230748   0.711   2.646   5.831  0.4753  0.1550 -0.3116
 3086TIP3    H130749   0.658   2.568   5.850  1.2352 -0.7740 -1.8385
 3086TIP3    H230750   0.800   2.620   5.857  0.5005  1.0898  0.6097
 3087TIP3   OH230751   5.127   3.340   2.630  0.0763 -0.3613  0.2568
 3087TIP3    H130752   5.042   3.372   2.600  0.4084 -1.0594 -1.5362
 3087TIP3    H230753   5.150   3.398   2.702 -1.3789  0.5712  0.0138
 3088TIP3   OH230754   5.802   2.519   1.488 -0.6333  0.2021 -0.3628
 3088TIP3    H130755   5.723   2.475   1.457 -1.2340 -0.4370  1.9184
 3088TIP3    H230756   5.781   2.612   1.483 -1.6141  0.0338  0.3820
 3089TIP3   OH230757   4.010   6.154   0.067 -0.5158 -0.0103  0.4278
 3089TIP3    H130758   4.060   6.171   0.147  0.1064  0.2328 -0.0118
 3089TIP3    H230759   3.926   6.196   0.082  0.0418  1.1126  0.4562
 3090TIP3   OH230760   3.582   0.342   3.742 -0.2902 -0.3827  0.0636
 3090TIP3    H130761   3.587   0.275   3.810 -1.6807 -1.3712 -0.7735
 3090TIP3    H230762   3.649   0.316   3.678  1.1887  0.6797  1.0866
 3091TIP3   OH230763   1.742   6.636  13.616 -0.3606 -0.0862  0.0856
 3091TIP3    H130764   1.647   6.634  13.600 -0.3327  0.7508 -0.2259
 3091TIP3    H230765   1.779   6.667  13.534  0.1348  0.2510  0.4357
 3092TIP3   OH230766   0.690   5.857   0.057  0.6646  0.4981  0.1505
 3092TIP3    H130767   0.634   5.782   0.080  1.1163 -0.1388 -0.7533
 3092TIP3    H230768   0.779   5.827   0.074  1.0655 -0.1591 -2.6163
 3093TIP3   OH230769   5.826   4.577   5.304  0.0181 -0.0910  0.1577
 3093TIP3    H130770   5.818   4.488   5.269 -2.2276 -0.2847  1.0411
 3093TIP3    H230771   5.824   4.567   5.399  2.3294  0.7576  0.3821
 3094TIP3   OH230772   1.140   3.928  14.294  0.0691  0.0558  0.2183
 3094TIP3    H130773   1.093   3.851  14.264  1.3626 -0.8076  0.3300
 3094TIP3    H230774   1.113   3.998  14.233 -1.5902 -0.3022  0.5027
 3095TIP3   OH230775   5.898   0.973   5.795 -0.3034 -0.2817  0.1663
 3095TIP3    H130776   5.936   0.919   5.726 -0.5855 -1.6955  1.0657
 3095TIP3    H230777   5.836   1.030   5.750 -0.3036 -1.0049 -0.7811
 3096TIP3   OH230778   3.451   5.959  12.746  0.1741 -0.1010 -0.1723
 3096TIP3    H130779   3.380   5.925  12.691 -0.4643 -0.6187  0.9296
 3096TIP3    H230780   3.505   5.882  12.766  1.6101  0.4343 -1.7430
 3097TIP3   OH230781   3.182   5.333  14.013  0.0228 -0.3192 -0.1833
 3097TIP3    H130782   3.096   5.348  14.052  0.5030 -2.0345  1.6898
 3097TIP3    H230783   3.175   5.246  13.974  0.9127 -0.4820  0.0070
 3098TIP3   OH230784   2.812   4.122   2.549  0.0453 -0.2701 -0.0212
 3098TIP3    H130785   2.782   4.206   2.516  0.7305  0.3249  0.8318
 3098TIP3    H230786   2.770   4.057   2.493 -0.6225  0.6344 -0.5755
 3099TIP3   OH230787   2.295   4.953  16.434  0.5380 -0.7437 -0.4001
 3099TIP3    H130788   2.243   5.031  16.417  1.0364 -0.8276 -2.5953
 3099TIP3    H230789   2.264   4.888  16.371  1.7361 -1.5509 -0.1969
 3100TIP3   OH230790   4.883   2.174  17.195 -0.1187  0.1072  0.5543
 3100TIP3    H130791   4.977   2.159  17.207  0.0117 -0.3462 -0.8579
 3100TIP3    H230792   4.875   2.269  17.187  0.1501  0.1857  1.1661
 3101TIP3   OH230793   0.850   4.564   1.191 -0.1984 -0.0567  0.5260
 3101TIP3    H130794   0.829   4.498   1.125  0.2035 -0.3869  0.7304
 3101TIP3    H230795   0.869   4.515   1.270  0.6777  0.2651  0.5283
 3102TIP3   OH230796   3.489   2.494  12.410  0.6288  0.8463 -0.1368
 3102TIP3    H130797   3.511   2.496  12.503 -0.8102  1.2176  0.2244
 3102TIP3    H230798   3.494   2.402  12.385 -0.5471  0.5244  0.7294
 3103TIP3   OH230799   5.827   6.427   3.781  0.3320  0.9615  0.1617
 3103TIP3    H130800   5.752   6.426   3.840 -0.2657  1.1394 -0.5865
 3103TIP3    H230801   5.903   6.431   3.840 -0.1638 -0.7485  0.9878
 3104TIP3   OH230802   6.330   0.410   0.874 -0.1877  0.4502 -0.3686
 3104TIP3    H130803   6.354   0.494   0.836  0.4905  0.5572  0.2573
 3104TIP3    H230804   6.401   0.391   0.936 -0.4837 -0.4365 -0.2844
 3105TIP3   OH230805   5.045   3.463   5.711 -0.5040 -0.1630  0.5190
 3105TIP3    H130806   5.026   3.515   5.789 -0.3684  0.6464  0.0296
 3105TIP3    H230807   4.969   3.477   5.654 -1.2491 -1.8342  1.0279
 3106TIP3   OH230808   2.838   4.911  15.633  0.2026 -0.1830 -0.0522
 3106TIP3    H130809   2.920   4.876  15.599 -0.1459 -1.2740  0.2184
 3106TIP3    H230810   2.779   4.836  15.638 -1.5962  0.9071 -2.4673
 3107TIP3   OH230811   2.014   1.787   1.375  0.2450 -0.0410 -0.0125
 3107TIP3    H130812   2.096   1.740   1.391  0.1314 -0.6758 -1.1351
 3107TIP3    H230813   2.035   1.879   1.391  0.7181 -0.3677  1.3331
 3108TIP3   OH230814   3.198   5.764  12.773  0.3301 -0.0065  0.6138
 3108TIP3    H130815   3.210   5.779  12.679 -0.6730 -1.6346  0.1743
 3108TIP3    H230816   3.227   5.674  12.786  0.6138  0.2596  1.9122
 3109TIP3   OH230817   3.388   1.611   5.228 -0.0928  0.1144  0.3907
 3109TIP3    H130818   3.292   1.606   5.233 -0.0242 -0.4359  1.5168
 3109TIP3    H230819   3.406   1.701   5.203 -0.9414 -0.2417 -1.6961
 3110TIP3   OH230820   2.303   0.854   4.506 -0.4773  0.2934 -0.4574
 3110TIP3    H130821   2.371   0.873   4.570 -0.7598  0.8071 -0.3033
 3110TIP3    H230822   2.245   0.791   4.549 -0.4647  0.3626 -0.3389
 3111TIP3   OH230823   3.852   5.555   3.848  0.4053  0.0630  0.1879
 3111TIP3    H130824   3.782   5.608   3.885  0.6107 -0.0201  0.7070
 3111TIP3    H230825   3.931   5.607   3.862  0.9556 -1.2499  2.6932
 3112TIP3   OH230826   4.482   1.024   5.423  0.0266  0.2230 -0.5518
 3112TIP3    H130827   4.477   1.094   5.489  1.7698 -0.5872  0.5172
 3112TIP3    H230828   4.543   1.058   5.357 -0.3385  0.3218 -0.8414
 3113TIP3   OH230829   0.439   0.860  13.955 -0.0201  0.0401  0.1436
 3113TIP3    H130830   0.361   0.824  13.996  0.2289 -0.5128  0.1472
 3113TIP3    H230831   0.458   0.800  13.883  0.2963  0.2706  0.0298
 3114TIP3   OH230832   6.448   1.004   1.694 -0.0160  0.3336  0.4828
 3114TIP3    H130833   6.356   1.025   1.675 -0.2387 -0.9251  0.0793
 3114TIP3    H230834   6.498   1.067   1.642 -0.6383  1.4421  1.1927
 3115TIP3   OH230835   0.317   4.331  12.324 -0.2522 -0.4108 -0.3055
 3115TIP3    H130836   0.396   4.318  12.272 -0.4135 -0.3527 -0.5649
 3115TIP3    H230837   0.344   4.311  12.414 -0.3914 -2.2165 -0.6298
 3116TIP3   OH230838   2.335   2.077   3.956 -0.6457 -0.5079 -0.1535
 3116TIP3    H130839   2.357   2.089   3.864 -0.3828  0.3146  0.0126
 3116TIP3    H230840   2.419   2.059   3.999 -0.6317  0.1282  0.0860
 3117TIP3   OH230841   2.680   2.883  17.150 -0.7348  0.2146 -0.4370
 3117TIP3    H130842   2.737   2.807  17.155 -2.2980 -0.9396  2.2606
 3117TIP3    H230843   2.702   2.934  17.229 -1.2408  1.4361 -1.0503
 3118TIP3   OH230844   3.646   4.667  16.104  0.6430 -1.1709 -0.7098
 3118TIP3    H130845   3.609   4.588  16.065 -0.9996 -1.7357  1.7539
 3118TIP3    H230846   3.623   4.661  16.197  0.9434  1.9410 -0.3213
 3119TIP3   OH230847   0.147   0.795  12.103  0.2535  0.7904  0.5002
 3119TIP3    H130848   0.136   0.887  12.125  1.5822  0.9581  0.5537
 3119TIP3    H230849   0.134   0.749  12.186 -0.8367  0.8841  0.3881
 3120TIP3   OH230850   2.162   3.793   0.676 -0.6154  0.0525 -0.0421
 3120TIP3    H130851   2.070   3.771   0.687 -0.6677 -0.8972 -1.9779
 3120TIP3    H230852   2.165   3.847   0.598  0.6223 -1.4129 -1.0652
 3121TIP3   OH230853   3.715   5.015   2.612  0.0134  0.2292 -0.1376
 3121TIP3    H130854   3.667   5.046   2.689 -0.0046 -1.3117  0.5086
 3121TIP3    H230855   3.807   5.014   2.640  0.0355 -0.0708 -0.2202
 3122TIP3   OH230856   0.590   1.107   6.214  0.2751 -0.2492  0.4297
 3122TIP3    H130857   0.666   1.108   6.272 -0.1180 -2.2730  1.0462
 3122TIP3    H230858   0.574   1.015   6.196 -2.4902  0.0288  0.9331
 3123TIP3   OH230859   6.201   3.912  12.982  0.3026 -0.9874 -0.4108
 3123TIP3    H130860   6.111   3.930  12.955  0.3693 -0.9103 -0.5819
 3123TIP3    H230861   6.194   3.836  13.039  0.0631 -0.6589  0.0057
 3124TIP3   OH230862   6.303   2.585   0.167  0.4021  0.0467 -0.0305
 3124TIP3    H130863   6.345   2.671   0.166  1.3715 -0.3511  1.7824
 3124TIP3    H230864   6.362   2.531   0.220 -1.5424 -1.0037  1.1646
 3125TIP3   OH230865   5.025   3.404   2.013  0.1463  0.1523 -0.5253
 3125TIP3    H130866   5.068   3.322   1.988  3.4866  1.5490  0.1470
 3125TIP3    H230867   5.074   3.435   2.089 -1.7811  2.2095 -0.0184
 3126TIP3   OH230868   1.443   2.170  12.094  0.3102 -0.5328 -0.1450
 3126TIP3    H130869   1.376   2.103  12.082 -0.2339 -0.2251  1.0345
 3126TIP3    H230870   1.522   2.122  12.119  0.3866 -0.8494 -0.9624
 3127TIP3   OH230871   1.072   3.597  11.264 -0.5951 -0.4652 -0.8518
 3127TIP3    H130872   1.036   3.634  11.345 -0.8113 -0.9534 -0.7172
 3127TIP3    H230873   0.997   3.594  11.205 -0.2776  0.5662 -1.3222
 3128TIP3   OH230874   6.045   2.064  14.308  0.0783 -0.1663 -0.5771
 3128TIP3    H130875   6.018   2.135  14.366  1.3273 -0.4379  0.3671
 3128TIP3    H230876   5.968   2.048  14.253 -1.2344 -0.0429  1.1228
 3129TIP3   OH230877   2.653   1.292   3.655  0.3104  0.3829 -0.1967
 3129TIP3    H130878   2.696   1.308   3.739 -0.2556  2.2146 -0.2132
 3129TIP3    H230879   2.672   1.370   3.603 -1.1149  0.2210 -1.0093
 3130TIP3   OH230880   3.011   0.918   3.845  0.2118  0.0704 -0.3525
 3130TIP3    H130881   3.065   0.928   3.923 -0.6605 -0.7595  0.3825
 3130TIP3    H230882   3.006   1.006   3.808 -3.3847  1.6892  3.2680
 3131TIP3   OH230883   2.481   1.879   3.570  0.1311  0.0773  0.3813
 3131TIP3    H130884   2.429   1.959   3.578 -0.4653 -0.2947  0.2912
 3131TIP3    H230885   2.418   1.808   3.584  0.8871 -0.3663  1.8329
 3132TIP3   OH230886   5.435   1.847  12.692  0.4473 -0.5881 -0.0528
 3132TIP3    H130887   5.493   1.919  12.716  1.3253 -0.6567 -1.7825
 3132TIP3    H230888   5.495   1.776  12.669 -0.2842 -0.7105 -1.7331
 3133TIP3   OH230889   6.148   3.582  17.038  0.0550  0.4169  0.5585
 3133TIP3    H130890   6.183   3.653  16.984  1.2366  0.7727  1.7375
 3133TIP3    H230891   6.199   3.505  17.011 -1.3887 -0.0875 -0.8892
 3134TIP3   OH230892   1.036   2.089   3.124  0.0365 -0.2887  0.3054
 3134TIP3    H130893   1.046   2.008   3.072  0.3167 -0.5739  0.7957
 3134TIP3    H230894   1.120   2.099   3.168  0.9174  1.6039 -1.6194
 3135TIP3   OH230895   5.578   0.764   0.070  0.2844 -0.0565 -0.4100
 3135TIP3    H130896   5.660   0.810   0.088 -0.2348  0.4641  0.7394
 3135TIP3    H230897   5.604   0.682   0.029  1.3584  0.2469 -0.3517
 3136TIP3   OH230898   4.306   5.902   3.587  0.0308 -0.2656  0.3421
 3136TIP3    H130899   4.224   5.867   3.552  0.0426  0.6336 -0.6432
 3136TIP3    H230900   4.333   5.968   3.523  1.5265 -0.5366  0.6481
 3137TIP3   OH230901   4.547   3.629  11.815  0.9615  0.2539 -0.0137
 3137TIP3    H130902   4.615   3.689  11.784 -0.3455  0.8380 -1.9185
 3137TIP3    H230903   4.465   3.673  11.797 -0.0017 -1.3843  0.1218
 3138TIP3   OH230904   6.476   3.561  10.840  0.5091  0.3860 -0.0340
 3138TIP3    H130905   6.462   3.472  10.807  1.0859  0.4533 -0.4734
 3138TIP3    H230906   6.557   3.590  10.798 -0.5527  1.7589 -1.2077
 3139TIP3   OH230907   4.618   6.510   1.995  0.1176 -0.2509  0.7495
 3139TIP3    H130908   4.675   6.447   1.952 -1.1900 -0.0370 -1.4414
 3139TIP3    H230909   4.672   6.589   2.003  0.6141 -0.5120  0.1150
 3140TIP3   OH230910   2.717   6.543   5.487  0.2086 -0.1575 -0.5105
 3140TIP3    H130911   2.704   6.467   5.430 -0.6544 -0.9700  0.7063
 3140TIP3    H230912   2.736   6.615   5.427 -0.9383 -0.9089 -1.8435
 3141TIP3   OH230913   0.324   4.408  13.068  0.1915 -0.3735  0.4415
 3141TIP3    H130914   0.257   4.343  13.091  0.4526 -0.0721  2.2202
 3141TIP3    H230915   0.404   4.374  13.107  0.3483  0.9327  1.3504
 3142TIP3   OH230916   5.688   6.591   6.278  0.2122  0.2245 -0.0081
 3142TIP3    H130917   5.669   6.507   6.319  0.5726  0.5074  0.7582
 3142TIP3    H230918   5.779   6.583   6.248 -0.3358 -0.3252 -1.6547
 3143TIP3   OH230919   2.995   2.216  16.256  0.4988  0.9630  0.1135
 3143TIP3    H130920   2.988   2.169  16.172 -1.2193  1.6290 -0.1442
 3143TIP3    H230921   3.036   2.299  16.233  0.2763  1.0368 -0.0154
 3144TIP3   OH230922   6.264   4.202   4.499  0.0658 -0.7311 -0.1697
 3144TIP3    H130923   6.168   4.201   4.498  0.0602 -0.0725 -0.9983
 3144TIP3    H230924   6.287   4.182   4.590 -0.8762  0.9606  0.4918
 3145TIP3   OH230925   1.626   3.147   3.728 -0.1268  0.2405  0.6147
 3145TIP3    H130926   1.569   3.094   3.783 -1.7788  1.4504  0.1621
 3145TIP3    H230927   1.619   3.235   3.764 -0.5618  0.8949 -0.9589
 3146TIP3   OH230928   2.686   2.729   5.093 -0.0038 -0.0626 -0.4272
 3146TIP3    H130929   2.710   2.646   5.134 -0.7904  0.0422  0.2677
 3146TIP3    H230930   2.743   2.793   5.134 -1.1225  0.1187  0.8957
 3147TIP3   OH230931   1.548   1.200   5.511 -0.2327  0.0083  0.2769
 3147TIP3    H130932   1.629   1.194   5.562  1.2847  0.9414 -1.8472
 3147TIP3    H230933   1.502   1.276   5.548  0.9333  0.7996  0.1415
 3148TIP3   OH230934   3.492   4.258  13.552 -0.0257 -0.0245  0.5971
 3148TIP3    H130935   3.398   4.246  13.554 -0.4032  2.3659  1.8991
 3148TIP3    H230936   3.517   4.242  13.461 -2.1318  1.7264 -0.3964
 3149TIP3   OH230937   3.902   4.339  16.220  0.3830 -0.7170  0.5158
 3149TIP3    H130938   3.896   4.298  16.134 -1.9496 -1.0570  0.7849
 3149TIP3    H230939   3.953   4.419  16.205 -2.2660  0.7224 -1.8509
 3150TIP3   OH230940   1.267   2.567   4.811 -0.4953  0.0101  0.1638
 3150TIP3    H130941   1.208   2.506   4.766 -1.6157  0.2919  1.1813
 3150TIP3    H230942   1.329   2.511   4.857  0.3896 -0.2868 -1.3279
 3151TIP3   OH230943   3.039   4.499   5.471 -0.0427  0.0490 -0.2052
 3151TIP3    H130944   3.081   4.427   5.519  0.8814 -0.8828 -2.2660
 3151TIP3    H230945   3.110   4.559   5.450 -0.5617  0.8202  0.1893
 3152TIP3   OH230946   4.416   2.961  12.894 -0.4728  0.1973  0.5858
 3152TIP3    H130947   4.448   2.982  12.982 -0.8251 -1.2555  1.0967
 3152TIP3    H230948   4.328   2.927  12.908 -0.7199  0.4176 -0.3910
 3153TIP3   OH230949   6.586   1.530   3.452 -0.4579 -0.3547 -0.0412
 3153TIP3    H130950   6.533   1.450   3.453  0.1835 -0.7745  0.8706
 3153TIP3    H230951   6.630   1.528   3.367 -0.5458 -0.8999 -0.0769
 3154TIP3   OH230952   2.992   6.294  13.091  0.1944 -0.6743 -0.0852
 3154TIP3    H130953   3.001   6.388  13.075 -0.2609 -0.9995 -2.5460
 3154TIP3    H230954   3.075   6.268  13.130 -0.2918  1.0002  2.3340
 3155TIP3   OH230955   1.286   1.666   4.902 -0.4625  0.5004 -0.3224
 3155TIP3    H130956   1.231   1.657   4.824  1.5448 -0.0411 -1.7579
 3155TIP3    H230957   1.360   1.720   4.873  1.6876 -1.8875  0.3829
 3156TIP3   OH230958   4.694   4.698   3.035 -0.4742  0.4358  0.5375
 3156TIP3    H130959   4.720   4.747   3.113 -0.1213  1.1242 -0.0043
 3156TIP3    H230960   4.603   4.723   3.020 -0.7492 -0.2070  1.1067
 3157TIP3   OH230961   2.452   3.670  11.643 -0.3998  0.0691  0.0844
 3157TIP3    H130962   2.395   3.730  11.691  2.2298  2.3590  0.5873
 3157TIP3    H230963   2.478   3.718  11.564  2.1490 -0.0806  0.7278
 3158TIP3   OH230964   6.236   5.418   4.880  0.1934  0.6783 -0.3383
 3158TIP3    H130965   6.148   5.445   4.908  0.0359 -0.2807  0.1296
 3158TIP3    H230966   6.225   5.328   4.849  1.3057 -0.1115  1.4158
 3159TIP3   OH230967   2.138   3.800   5.600  0.1544  0.2763 -0.2277
 3159TIP3    H130968   2.157   3.726   5.542  0.8168  1.2437 -1.2827
 3159TIP3    H230969   2.137   3.876   5.542 -0.6658  1.0889  0.8163
 3160TIP3   OH230970   5.960   2.138  16.294 -0.2948 -0.2056 -0.2339
 3160TIP3    H130971   5.908   2.119  16.373 -0.2101  0.9757  0.1284
 3160TIP3    H230972   5.958   2.057  16.244 -1.7812 -0.4547  0.1834
 3161TIP3   OH230973   1.925   0.169   0.288  0.1987  0.2922 -0.0001
 3161TIP3    H130974   1.863   0.114   0.336  1.3120  0.0642  1.2687
 3161TIP3    H230975   1.918   0.255   0.330  1.7219 -0.0992  1.1686
 3162TIP3   OH230976   5.289   1.921  10.765 -0.7010 -0.6493  0.6954
 3162TIP3    H130977   5.298   1.830  10.738 -1.6674 -0.3918 -0.5699
 3162TIP3    H230978   5.380   1.951  10.774 -0.3682 -1.8831  1.7340
 3163TIP3   OH230979   5.157   1.147   5.246 -0.3843 -0.3031  0.0207
 3163TIP3    H130980   5.070   1.182   5.264 -0.3275  0.6537 -1.4488
 3163TIP3    H230981   5.194   1.205   5.180  0.5864 -1.8689 -0.8850
 3164TIP3   OH230982   5.307   3.095  13.896  0.4114  0.1845 -0.0582
 3164TIP3    H130983   5.253   3.170  13.919  0.8834  0.3424  0.5757
 3164TIP3    H230984   5.397   3.125  13.912  0.7738  0.2450 -1.9631
 3165TIP3   OH230985   1.035   2.357   3.251 -0.5970  0.3905 -0.9111
 3165TIP3    H130986   1.003   2.270   3.225 -1.6879  0.6606 -0.5313
 3165TIP3    H230987   0.975   2.418   3.209 -0.5562  0.9257 -0.2005
 3166TIP3   OH230988   1.135   6.502   5.948 -0.8213 -0.1515  0.2209
 3166TIP3    H130989   1.159   6.507   5.856  0.0836 -0.0014  0.4582
 3166TIP3    H230990   1.210   6.462   5.991 -1.5903 -1.0504  0.7711
 3167TIP3   OH230991   2.043   5.864  17.162  0.3680 -0.0120  0.0613
 3167TIP3    H130992   1.968   5.808  17.184  0.3198 -0.0322 -0.1582
 3167TIP3    H230993   2.058   5.916  17.241  0.7915 -0.7591  0.4796
 3168TIP3   OH230994   0.493   4.697   5.766 -0.2136 -0.2658  0.7925
 3168TIP3    H130995   0.433   4.717   5.695 -1.7339  0.1465  2.1287
 3168TIP3    H230996   0.579   4.720   5.732 -0.7986 -0.6499 -1.1024
 3169TIP3   OH230997   4.042   1.463  10.873  0.3391 -0.2044  0.0081
 3169TIP3    H130998   3.948   1.442  10.876  0.6435 -1.5606  0.8695
 3169TIP3    H230999   4.046   1.547  10.829 -1.6324  1.8665  3.3371
 3170TIP3   OH231000   0.834   3.186  11.208  0.4067  0.3009  0.1454
 3170TIP3    H131001   0.787   3.233  11.139 -0.7222  1.4144  1.6076
 3170TIP3    H231002   0.927   3.203  11.190  0.4620 -2.3681 -3.1045
 3171TIP3   OH231003   0.962   5.385   5.038 -0.1769  0.2105 -0.4654
 3171TIP3    H131004   1.027   5.342   5.093 -1.5887  0.1336  1.2363
 3171TIP3    H231005   0.979   5.352   4.949  2.9409  1.2502 -0.3712
 3172TIP3   OH231006   6.752   2.580  12.029  0.3504  0.0249 -0.5766
 3172TIP3    H131007   6.701   2.655  12.059 -1.4847 -1.0284 -0.9082
 3172TIP3    H231008   6.715   2.558  11.943 -0.6653 -2.5208  0.4031
 3173TIP3   OH231009   5.371   6.551  11.628 -0.3657  0.4368  0.0406
 3173TIP3    H131010   5.372   6.458  11.650 -2.2272  0.6197  1.1469
 3173TIP3    H231011   5.432   6.591  11.691 -1.9100  0.3112  1.6902
 3174TIP3   OH231012   6.162   5.924  11.726  0.0504 -0.0402 -0.2777
 3174TIP3    H131013   6.147   5.961  11.639  0.8945  3.3291  0.8927
 3174TIP3    H231014   6.085   5.951  11.777  0.3185 -0.6223  0.4462
 3175TIP3   OH231015   5.920   2.349   0.770 -0.1584 -0.0044  0.4810
 3175TIP3    H131016   5.910   2.299   0.689 -1.1386 -1.2817  1.3599
 3175TIP3    H231017   5.836   2.394   0.781 -0.9588 -1.7397  1.9888
 3176TIP3   OH231018   5.108   1.764   5.190 -0.0342 -0.4084  0.2206
 3176TIP3    H131019   5.025   1.725   5.216 -0.4737  1.1534  1.3212
 3176TIP3    H231020   5.150   1.789   5.273 -0.2584  2.3284 -0.4081
 3177TIP3   OH231021   0.883   2.977  14.348  0.0120 -0.5753  0.3064
 3177TIP3    H131022   0.888   3.007  14.439 -0.6144  0.4844  0.0128
 3177TIP3    H231023   0.882   3.058  14.297  0.1023 -1.1601 -0.6307
 3178TIP3   OH231024   3.012   5.803  14.833  0.1074  0.2631  0.2780
 3178TIP3    H131025   2.956   5.862  14.781  1.5731  0.0626 -1.6297
 3178TIP3    H231026   3.086   5.784  14.776 -0.3136 -3.5298  0.7361
 3179TIP3   OH231027   5.349   6.582   5.408  0.0078 -0.3064 -0.5584
 3179TIP3    H131028   5.365   6.635   5.486 -1.6375  0.5532 -0.7808
 3179TIP3    H231029   5.427   6.595   5.355  0.9949 -0.6057  0.7481
 3180TIP3   OH231030   3.852   0.364  12.120 -0.4756 -0.0926  0.1898
 3180TIP3    H131031   3.884   0.361  12.029  1.2991 -0.0396  0.7845
 3180TIP3    H231032   3.778   0.302  12.121  0.3113 -1.1005 -0.9729
 3181TIP3   OH231033   5.753   4.155   2.500 -0.2562 -0.0556 -0.3431
 3181TIP3    H131034   5.832   4.153   2.555 -0.7535 -0.5201  0.3690
 3181TIP3    H231035   5.708   4.235   2.527  0.5099  0.8378 -1.5609
 3182TIP3   OH231036   3.865   5.291  13.940  0.0206 -0.6713  0.0781
 3182TIP3    H131037   3.883   5.353  14.010  0.2466 -0.5826 -0.0590
 3182TIP3    H231038   3.810   5.224  13.981 -4.0731  1.8020 -0.7552
 3183TIP3   OH231039   1.330   3.516  16.494 -0.2687 -0.3707  0.3394
 3183TIP3    H131040   1.353   3.542  16.583 -0.3392  0.8020  0.0356
 3183TIP3    H231041   1.305   3.598  16.451  3.1747 -0.2561 -1.8233
 3184TIP3   OH231042   3.861   2.622   5.714  0.4382 -0.4002 -0.0977
 3184TIP3    H131043   3.858   2.529   5.690  0.7257  0.0349 -1.9689
 3184TIP3    H231044   3.778   2.658   5.684  0.4305  0.0023  0.3896
 3185TIP3   OH231045   1.289   1.333  11.709  0.6550 -0.5834 -0.1968
 3185TIP3    H131046   1.298   1.358  11.617 -1.9328  0.0989 -0.3250
 3185TIP3    H231047   1.196   1.340  11.727  1.0958 -0.6855  2.5152
 3186TIP3   OH231048   0.760   6.746   3.965 -0.2058 -0.4677 -0.5824
 3186TIP3    H131049   0.853   6.771   3.961 -0.1321 -0.7161 -0.4846
 3186TIP3    H231050   0.715   6.814   3.916 -0.2320  0.8601  1.2148
 3187TIP3   OH231051   2.477   4.921   5.270 -0.1998 -0.7587 -0.3479
 3187TIP3    H131052   2.451   4.979   5.341 -1.7189  0.5858 -1.9231
 3187TIP3    H231053   2.424   4.842   5.282 -1.2213 -0.1155 -0.5711
 3188TIP3   OH231054   0.373   5.457  10.956 -0.2777  0.3758 -0.2370
 3188TIP3    H131055   0.307   5.525  10.963 -1.4681 -0.8697  1.3339
 3188TIP3    H231056   0.327   5.383  10.916  0.4204 -0.1967  0.0013
 3189TIP3   OH231057   3.940   0.299  16.474 -0.6344  0.3099 -0.0396
 3189TIP3    H131058   4.010   0.262  16.420 -1.1122 -0.9580  0.1660
 3189TIP3    H231059   3.964   0.274  16.564 -1.5952 -0.6013 -0.0160
 3190TIP3   OH231060   4.643   4.497   2.646  0.0923 -0.0187 -0.4613
 3190TIP3    H131061   4.682   4.419   2.607  0.0799  1.7464 -4.5108
 3190TIP3    H231062   4.706   4.523   2.714  1.2720 -2.2200 -0.6124
 3191TIP3   OH231063   1.179   3.311  10.984  0.2236  0.2356  0.5428
 3191TIP3    H131064   1.123   3.383  10.955  0.2230  0.1591  0.3556
 3191TIP3    H231065   1.224   3.281  10.905  0.8084  0.5333  0.7639
 3192TIP3   OH231066   3.769   5.917   3.569  0.6187  0.0948 -0.3293
 3192TIP3    H131067   3.725   6.002   3.563 -1.6269 -0.9644 -0.2362
 3192TIP3    H231068   3.839   5.921   3.505 -0.7427  1.3131 -1.8406
 3193TIP3   OH231069   1.034   6.253  12.137  0.1478 -0.0715  0.0003
 3193TIP3    H131070   0.974   6.266  12.211 -0.5421  1.8884 -0.8302
 3193TIP3    H231071   1.054   6.342  12.107 -0.1166 -0.8100 -2.5677
 3194TIP3   OH231072   1.835   3.771  15.204 -0.5138  0.6811 -0.1434
 3194TIP3    H131073   1.838   3.722  15.122  0.0742 -0.0532  0.3050
 3194TIP3    H231074   1.745   3.805  15.208 -0.2495  1.7018 -1.6364
 3195TIP3   OH231075   6.125   6.119   4.520  0.2654 -1.1407  0.3046
 3195TIP3    H131076   6.084   6.034   4.531  1.4372 -1.7134  0.4094
 3195TIP3    H231077   6.199   6.103   4.461  1.0155 -0.3905  1.0047
 3196TIP3   OH231078   3.352   5.992  16.048  0.1062  0.3148 -0.1130
 3196TIP3    H131079   3.443   6.022  16.046  0.1892  0.0522 -1.5267
 3196TIP3    H231080   3.301   6.072  16.045  0.3275  0.4376 -2.6887
 3197TIP3   OH231081   2.673   3.830  13.431  0.2826 -0.4017 -0.1286
 3197TIP3    H131082   2.674   3.862  13.341  0.1216 -0.7192 -0.2442
 3197TIP3    H231083   2.763   3.802  13.447  0.2898 -0.4305 -0.2203
 3198TIP3   OH231084   5.720   2.097  15.199 -0.1523  0.3392  0.2943
 3198TIP3    H131085   5.630   2.084  15.167 -0.8449 -2.8039  3.0073
 3198TIP3    H231086   5.773   2.041  15.142 -0.6336 -1.2230  1.3130
 3199TIP3   OH231087   2.923   4.372   4.996  0.7635  0.3148  0.1442
 3199TIP3    H131088   2.965   4.355   5.080 -1.5746  0.2661  1.3900
 3199TIP3    H231089   2.898   4.464   5.000 -0.5154 -0.0078  0.0935
 3200TIP3   OH231090   0.945   4.860  15.879 -0.2045  0.1531 -0.3755
 3200TIP3    H131091   0.960   4.838  15.971 -2.7188 -2.1487 -0.3852
 3200TIP3    H231092   0.886   4.935  15.881 -0.8506 -0.3561 -0.0838
 3201TIP3   OH231093   3.438   5.623   1.156  0.2428  0.0205  0.1094
 3201TIP3    H131094   3.405   5.713   1.153  1.0998  0.3760 -2.8702
 3201TIP3    H231095   3.383   5.576   1.093  2.3516 -0.4506 -1.5054
 3202TIP3   OH231096   1.672   5.171  13.181  0.2181 -0.3031 -0.0060
 3202TIP3    H131097   1.592   5.122  13.161 -0.9836  0.9139  1.5513
 3202TIP3    H231098   1.732   5.106  13.218 -0.8006 -0.8831  0.6723
 3203TIP3   OH231099   6.712   3.433   5.832  0.5143  0.8425  0.0826
 3203TIP3    H131100   6.766   3.365   5.873 -0.0583  1.3946  1.8113
 3203TIP3    H231101   6.732   3.512   5.881  1.3100  2.0235 -2.0154
 3204TIP3   OH231102   6.650   0.917  10.509  0.1425  0.5539 -0.0686
 3204TIP3    H131103   6.724   0.886  10.561  0.1198  0.0284 -0.3364
 3204TIP3    H231104   6.638   0.849  10.443 -0.3873  0.7847 -0.2124
 3205TIP3   OH231105   0.028   2.056  16.163 -0.3095 -0.9690 -0.2044
 3205TIP3    H131106  -0.028   2.132  16.149 -1.2198 -1.6161 -0.1354
 3205TIP3    H231107  -0.032   1.985  16.185  0.6603 -1.3037  1.5111
 3206TIP3   OH231108   2.977   5.593   4.546 -0.5211 -1.0459  0.4787
 3206TIP3    H131109   2.917   5.525   4.514 -2.7024  0.3864  1.3618
 3206TIP3    H231110   2.960   5.669   4.490 -0.2145 -0.3153  1.3493
 3207TIP3   OH231111   3.844   6.763   0.094 -0.0291 -0.4750 -0.6326
 3207TIP3    H131112   3.935   6.781   0.119  0.1262 -1.6049 -0.3027
 3207TIP3    H231113   3.846   6.673   0.063 -1.4221 -1.3299  1.5073
 3208TIP3   OH231114   0.358   6.369  15.383  0.3027 -0.1649 -0.2327
 3208TIP3    H131115   0.302   6.291  15.378 -0.2704  0.1643  0.7036
 3208TIP3    H231116   0.387   6.371  15.474  1.1968  0.1224 -0.5176
 3209TIP3   OH231117   6.245   5.504   5.907  0.2655 -0.2185 -0.3188
 3209TIP3    H131118   6.207   5.417   5.894  1.4568 -0.8243  0.0515
 3209TIP3    H231119   6.250   5.515   6.002  1.7482 -0.5269 -0.3355
 3210TIP3   OH231120   4.324   3.090  12.454 -0.3309  0.8483  0.0182
 3210TIP3    H131121   4.305   3.130  12.539  2.7624  0.3887  1.0261
 3210TIP3    H231122   4.341   2.998  12.474 -1.2131  0.3433 -1.3956
 3211TIP3   OH231123   2.061   4.544  16.791 -0.2340  0.0283  0.0931
 3211TIP3    H131124   2.124   4.615  16.774 -0.2698  0.0459  0.0299
 3211TIP3    H231125   2.036   4.556  16.882 -0.8782  0.6125 -0.1500
 3212TIP3   OH231126   0.336   1.403   5.381  0.3868 -0.4836  0.1207
 3212TIP3    H131127   0.324   1.362   5.295 -0.5528  1.0506 -0.5352
 3212TIP3    H231128   0.348   1.496   5.361  1.5777 -0.2929  1.5856
 3213TIP3   OH231129   4.860   3.962  12.186 -0.4185 -0.4949 -0.0049
 3213TIP3    H131130   4.850   3.911  12.106 -1.3647  2.4880 -1.9694
 3213TIP3    H231131   4.939   4.015  12.171 -0.0922 -0.5420  1.4459
 3214TIP3   OH231132   4.282   5.274   6.478 -0.7472  0.1646 -0.4961
 3214TIP3    H131133   4.242   5.238   6.557  0.8812  1.9003  1.2327
 3214TIP3    H231134   4.217   5.334   6.442 -0.6481  1.1187  0.8795
 3215TIP3   OH231135   4.561   0.806   2.935 -0.5609  0.1072 -0.0197
 3215TIP3    H131136   4.637   0.840   2.888  0.7024 -1.1836  1.0068
 3215TIP3    H231137   4.593   0.787   3.022 -1.7300 -1.7114  0.0661
 3216TIP3   OH231138   1.512   0.250  16.095 -0.7185  0.5798  0.4084
 3216TIP3    H131139   1.444   0.286  16.039 -1.9854  0.5900  1.8695
 3216TIP3    H231140   1.552   0.326  16.137 -0.7726  0.5083  0.5948
 3217TIP3   OH231141   5.857   6.424  15.248 -0.0141  0.5863 -0.1134
 3217TIP3    H131142   5.795   6.359  15.213 -0.3707  2.0861 -2.4707
 3217TIP3    H231143   5.911   6.374  15.309 -1.6205 -1.4415 -0.2070
 3218TIP3   OH231144   6.201   6.773   4.926 -0.1293  0.4607 -0.0944
 3218TIP3    H131145   6.219   6.857   4.969 -0.7552  0.6710 -0.2343
 3218TIP3    H231146   6.226   6.787   4.835  0.2277  0.3389 -0.0161
 3219TIP3   OH231147   1.260   0.093  12.817  0.0587  0.2790 -0.4442
 3219TIP3    H131148   1.250   0.019  12.757 -2.1533  2.2179 -2.7429
 3219TIP3    H231149   1.305   0.160  12.765  0.9858  0.9593  1.1758
 3220TIP3   OH231150   6.749   3.113  13.540  0.1238  0.1460  0.3566
 3220TIP3    H131151   6.724   3.171  13.468 -0.6945 -3.2722 -2.3865
 3220TIP3    H231152   6.667   3.092  13.584  0.2484  0.1643  0.6003
 3221TIP3   OH231153   1.366   4.542  13.702  0.1324 -0.7200 -0.2257
 3221TIP3    H131154   1.438   4.544  13.764 -0.5451 -0.0049  0.5573
 3221TIP3    H231155   1.300   4.486  13.742 -0.1777 -0.5160 -0.4396
 3222TIP3   OH231156   1.637   3.539   1.375 -0.5095  0.3709  0.3336
 3222TIP3    H131157   1.548   3.511   1.396 -0.2404  0.3976  1.6150
 3222TIP3    H231158   1.679   3.461   1.339 -0.6999  0.0057  0.8893
 3223TIP3   OH231159   2.841   1.825   0.815 -0.2077 -0.0767 -0.4026
 3223TIP3    H131160   2.872   1.889   0.879 -0.2678 -0.2249 -0.2228
 3223TIP3    H231161   2.788   1.876   0.754 -0.0311  0.0898 -0.4145
 3224TIP3   OH231162   6.266   4.158   3.023 -0.2455  0.3087 -0.4609
 3224TIP3    H131163   6.243   4.218   2.952  1.1672  2.6302  0.8970
 3224TIP3    H231164   6.201   4.175   3.091 -0.4560 -0.4790 -0.4569
 3225TIP3   OH231165   0.016   4.745  14.567 -0.1998 -0.4857  0.3932
 3225TIP3    H131166   0.057   4.821  14.526  0.0695 -2.4221 -3.3093
 3225TIP3    H231167  -0.077   4.767  14.570 -0.0743  0.1638 -0.1727
 3226TIP3   OH231168   0.889   2.642  16.633  0.2489  0.7100 -0.1136
 3226TIP3    H131169   0.952   2.586  16.587  0.2710  0.6787 -0.0459
 3226TIP3    H231170   0.916   2.731  16.610  0.5911  0.7083  0.2695
 3227TIP3   OH231171   3.409   1.190  16.553 -0.6762 -0.2167  0.0653
 3227TIP3    H131172   3.402   1.121  16.619  0.5953  0.5118  0.9963
 3227TIP3    H231173   3.501   1.189  16.527 -0.4834  1.5458  0.5736
 3228TIP3   OH231174   0.978   4.163   2.963 -0.1596  0.6297  0.0896
 3228TIP3    H131175   0.899   4.122   2.927  0.1441  1.4972 -1.6209
 3228TIP3    H231176   1.024   4.091   3.006 -0.5579 -0.4569 -1.2250
 3229TIP3   OH231177   2.089   1.402  16.620  0.0008 -0.0122  0.1212
 3229TIP3    H131178   2.113   1.477  16.566  0.4660  0.8223  1.4456
 3229TIP3    H231179   1.998   1.383  16.596 -0.4340  1.5640  0.4025
 3230TIP3   OH231180   0.004   0.387  12.684 -0.1448  0.2836 -0.0918
 3230TIP3    H131181   0.099   0.379  12.687 -0.1890 -0.0654  0.5894
 3230TIP3    H231182  -0.022   0.331  12.610  0.2761  1.5595 -1.2521
 3231TIP3   OH231183   3.355   5.537  12.746 -0.3931 -0.6976  0.0133
 3231TIP3    H131184   3.301   5.479  12.691 -1.8534  0.5436  0.0633
 3231TIP3    H231185   3.445   5.511  12.727 -0.9486 -1.8070 -1.2736
 3232TIP3   OH231186   5.815   6.413  11.832  0.5848  0.0677 -0.3752
 3232TIP3    H131187   5.751   6.481  11.811  1.2698  0.7561 -0.3124
 3232TIP3    H231188   5.815   6.409  11.928  0.5874  0.0237 -0.3765
 3233TIP3   OH231189   5.848   3.474   5.806 -0.5411 -0.4533  0.3199
 3233TIP3    H131190   5.917   3.419   5.770 -0.6614  0.0759 -0.7446
 3233TIP3    H231191   5.841   3.446   5.898  1.2772 -0.3126  0.5460
 3234TIP3   OH231192   1.622   3.175  14.751  0.2678  0.8250  0.4113
 3234TIP3    H131193   1.653   3.096  14.795 -0.8006 -0.6949 -1.4062
 3234TIP3    H231194   1.689   3.195  14.686  0.8632  1.8661  1.3082
 3235TIP3   OH231195   5.031   5.517   5.004  0.5087  0.2204 -0.2499
 3235TIP3    H131196   4.977   5.593   5.025 -2.4109 -1.9569  0.7264
 3235TIP3    H231197   5.092   5.510   5.078  0.8876  1.6283 -0.4071
 3236TIP3   OH231198   4.367   3.052  17.193 -0.2014 -0.2158  0.0735
 3236TIP3    H131199   4.362   3.135  17.146 -1.6364 -0.3175  0.0163
 3236TIP3    H231200   4.320   2.990  17.137  1.6866 -1.3220 -0.3643
 3237TIP3   OH231201   5.694   6.369  16.739 -0.4111  0.1079 -0.2367
 3237TIP3    H131202   5.715   6.380  16.646  1.8622  1.1150  0.3327
 3237TIP3    H231203   5.689   6.274  16.752 -1.1760 -0.0369 -1.4484
 3238TIP3   OH231204   2.527   5.721  11.960 -0.1295 -0.0455  0.0914
 3238TIP3    H131205   2.580   5.652  11.999  0.3211  0.6624  0.7682
 3238TIP3    H231206   2.471   5.752  12.031 -3.2371 -2.3641 -1.1394
 3239TIP3   OH231207   2.256   1.559  12.966 -0.2530 -0.3717  0.9699
 3239TIP3    H131208   2.223   1.646  12.988 -1.3507 -0.1647 -1.1599
 3239TIP3    H231209   2.178   1.504  12.961  0.1623 -0.9077  0.0169
 3240TIP3   OH231210   6.030   0.389   3.433  0.3074 -0.0344  0.3490
 3240TIP3    H131211   6.094   0.380   3.504  0.8037 -1.9115 -0.2908
 3240TIP3    H231212   5.946   0.392   3.479  0.7195  0.5080  1.1025
 3241TIP3   OH231213   4.325   2.553  16.110  0.3968  0.2010 -0.3338
 3241TIP3    H131214   4.310   2.459  16.118 -0.2470  0.2965 -0.3432
 3241TIP3    H231215   4.305   2.589  16.196  1.1785  0.2679 -0.1713
 3242TIP3   OH231216   0.113   3.599   4.668  0.3704  0.1758  0.6072
 3242TIP3    H131217   0.177   3.640   4.726  0.4192 -1.2852  1.6266
 3242TIP3    H231218   0.154   3.604   4.581  1.4154  0.1963  1.0824
 3243TIP3   OH231219   5.955   3.979   4.627 -0.3659 -0.2255  0.2245
 3243TIP3    H131220   6.046   3.950   4.618 -0.4684  0.0999 -3.8743
 3243TIP3    H231221   5.904   3.913   4.581 -1.9795  0.6178  0.7173
 3244TIP3   OH231222   0.506   4.341   1.081  0.3710  0.3005  0.2862
 3244TIP3    H131223   0.576   4.402   1.060  0.1111  0.4494 -0.1575
 3244TIP3    H231224   0.427   4.395   1.082  0.1472 -0.0162 -0.0629
 3245TIP3   OH231225   3.832   4.801   2.388  0.1152 -0.1849 -0.3703
 3245TIP3    H131226   3.916   4.756   2.386  0.5052  0.5414 -0.5538
 3245TIP3    H231227   3.830   4.845   2.473 -0.0948 -0.2311 -0.3503
 3246TIP3   OH231228   6.237   3.729   5.521 -0.1879  0.3767  0.5653
 3246TIP3    H131229   6.170   3.771   5.466 -0.0986 -1.6009 -1.1648
 3246TIP3    H231230   6.211   3.750   5.611 -3.0161 -0.1522 -0.0451
 3247TIP3   OH231231   3.874   4.267   2.756 -0.1449  0.7158  0.4050
 3247TIP3    H131232   3.926   4.342   2.788  2.4060 -0.6705 -0.1800
 3247TIP3    H231233   3.846   4.222   2.835  0.4111  0.9513  0.7448
 3248TIP3   OH231234   0.570   5.358  16.491 -0.2527  0.0237 -0.7610
 3248TIP3    H131235   0.643   5.336  16.433 -0.5579  1.2497 -1.6588
 3248TIP3    H231236   0.580   5.451  16.509 -0.2335 -0.3152  1.1095
 3249TIP3   OH231237   5.864   4.234  12.964 -0.0814  0.0991  0.1214
 3249TIP3    H131238   5.787   4.223  13.020  0.1789 -1.1563  0.2786
 3249TIP3    H231239   5.936   4.195  13.015  0.1218 -1.2662 -1.1435
 3250TIP3   OH231240   3.664   0.318   0.903 -0.2202 -0.1535  0.0546
 3250TIP3    H131241   3.606   0.249   0.871 -1.8219  0.9088  0.5931
 3250TIP3    H231242   3.679   0.374   0.826 -0.8125  0.1831  0.1828
 3251TIP3   OH231243   1.822   0.032  13.199 -0.7355 -0.6314 -0.3048
 3251TIP3    H131244   1.767   0.099  13.239 -2.1804 -0.7232 -1.9815
 3251TIP3    H231245   1.891   0.080  13.154 -1.5371 -0.2350 -1.1633
 3252TIP3   OH231246   0.283   6.069   2.950 -0.3674  0.3296 -0.0432
 3252TIP3    H131247   0.279   6.008   2.876  0.5524  0.5462 -0.2838
 3252TIP3    H231248   0.332   6.022   3.018 -0.9291  0.2552  0.3151
 3253TIP3   OH231249   1.233   6.747  16.330  0.2595  0.2210  0.2242
 3253TIP3    H131250   1.261   6.818  16.388 -0.1016  0.3044  0.2956
 3253TIP3    H231251   1.273   6.669  16.368  1.2844  0.4803 -0.2796
 3254TIP3   OH231252   3.853   6.576  16.213  0.7017 -0.5804 -0.3048
 3254TIP3    H131253   3.829   6.643  16.149  2.5690  0.0837 -0.3556
 3254TIP3    H231254   3.858   6.623  16.296  1.3251 -0.7914 -0.2184
 3255TIP3   OH231255   3.877   4.721  14.234 -0.0420 -0.5008  0.4220
 3255TIP3    H131256   3.836   4.779  14.169 -0.4358 -0.1237  1.0030
 3255TIP3    H231257   3.850   4.633  14.206 -0.1614 -0.3475  0.0363
 3256TIP3   OH231258   1.373   0.075   5.367 -0.1439  0.3295  0.5726
 3256TIP3    H131259   1.304   0.133   5.336 -0.0359  0.0127 -0.2678
 3256TIP3    H231260   1.444   0.134   5.392 -0.2291  0.5850  0.2194
 3257TIP3   OH231261   5.229   3.893   1.725  0.2521  0.5266 -0.2407
 3257TIP3    H131262   5.241   3.844   1.806  1.4489 -0.1736 -0.8208
 3257TIP3    H231263   5.266   3.980   1.744  1.5416  0.0228 -0.3617
 3258TIP3   OH231264   2.712   4.016   4.330 -0.6776 -0.1604 -0.5717
 3258TIP3    H131265   2.662   4.025   4.411 -0.4879 -0.5647 -0.4059
 3258TIP3    H231266   2.715   3.922   4.314 -1.0659 -0.0651 -1.2773
 3259TIP3   OH231267   3.125   3.092   2.183  0.1228 -0.3561 -0.4594
 3259TIP3    H131268   3.151   3.151   2.254 -0.2088 -0.8922  0.1185
 3259TIP3    H231269   3.207   3.055   2.151  0.3253  0.3366 -0.7605
 3260TIP3   OH231270   5.586   0.888   5.796 -0.0819 -0.3358 -0.4854
 3260TIP3    H131271   5.681   0.880   5.790  0.1395  0.3779  1.4701
 3260TIP3    H231272   5.556   0.801   5.822  0.5377  0.3526  3.0771
 3261TIP3   OH231273   5.955   0.944  15.046 -0.0575 -1.1019 -0.0596
 3261TIP3    H131274   5.881   0.910  14.994  0.6553 -1.6359 -0.7475
 3261TIP3    H231275   5.987   0.868  15.095  0.2915 -0.9674 -0.0757
 3262TIP3   OH231276   0.525   6.315  12.540  0.2794 -0.0497 -0.3056
 3262TIP3    H131277   0.465   6.337  12.611  1.6444  1.4563  0.4238
 3262TIP3    H231278   0.544   6.222  12.553  0.4990  0.1931  1.3285
 3263TIP3   OH231279   3.539   2.275  14.402  0.4461 -0.7263 -0.0819
 3263TIP3    H131280   3.468   2.233  14.353 -0.4852  0.4178  0.2465
 3263TIP3    H231281   3.605   2.295  14.336 -0.2563 -0.3260 -0.6871
 3264TIP3   OH231282   0.034   1.690   3.485 -0.0158  0.5183  0.4041
 3264TIP3    H131283   0.082   1.619   3.527  1.3591 -0.0602 -1.9484
 3264TIP3    H231284  -0.005   1.650   3.408 -1.3499  1.7971  0.3736
 3265TIP3   OH231285   1.726   5.830  14.534  0.2273  0.2294  0.4501
 3265TIP3    H131286   1.655   5.894  14.532 -0.3865 -0.2481  2.8416
 3265TIP3    H231287   1.806   5.882  14.529 -0.2651  1.2049  2.0563
 3266TIP3   OH231288   0.960   4.825   1.168  0.9970 -0.1177  0.0269
 3266TIP3    H131289   0.962   4.866   1.254 -2.4566  1.7334 -0.5467
 3266TIP3    H231290   0.920   4.740   1.183  1.5331 -0.3022  0.4054
 3267TIP3   OH231291   5.045   0.715   5.071 -0.1036 -0.1402  0.5562
 3267TIP3    H131292   4.968   0.676   5.113 -1.8120  0.7461 -1.5392
 3267TIP3    H231293   5.080   0.775   5.136 -3.1820  1.8537  0.5988
 3268TIP3   OH231294   6.259   4.634   2.673  0.2424  0.4245  0.2660
 3268TIP3    H131295   6.295   4.702   2.615 -1.4430  1.1626  0.0286
 3268TIP3    H231296   6.177   4.607   2.631 -0.1624 -0.2587  1.4394
 3269TIP3   OH231297   1.403   2.227  11.141 -0.5348 -0.0476 -0.2445
 3269TIP3    H131298   1.453   2.152  11.172 -1.6542 -1.3521 -1.4444
 3269TIP3    H231299   1.390   2.281  11.219  1.2912 -0.4857  0.4045
 3270TIP3   OH231300   6.196   1.033   0.352 -0.7108  0.1154  0.2838
 3270TIP3    H131301   6.185   1.078   0.268  0.3207 -1.1669 -0.5725
 3270TIP3    H231302   6.106   1.019   0.383 -1.1248  0.2623 -0.7980
 3271TIP3   OH231303   5.614   3.021  16.064 -0.1737  0.2199  0.2498
 3271TIP3    H131304   5.660   2.993  15.985  0.0583 -1.9871  1.0962
 3271TIP3    H231305   5.659   2.976  16.136 -0.2453  2.3205  1.6942
 3272TIP3   OH231306   3.392   2.081   2.719 -0.0714  0.6009  0.0025
 3272TIP3    H131307   3.349   2.130   2.649  0.7145  1.5722  0.1776
 3272TIP3    H231308   3.401   1.993   2.685  0.4589  1.1062 -1.1908
 3273TIP3   OH231309   5.390   1.333  13.776 -0.0170  0.0226 -0.2934
 3273TIP3    H131310   5.412   1.307  13.866 -2.9770 -0.9739  0.2757
 3273TIP3    H231311   5.387   1.429  13.779 -0.4846 -0.0029  0.8187
 3274TIP3   OH231312   3.741   0.136   5.265  0.2304  0.2276 -0.3481
 3274TIP3    H131313   3.665   0.163   5.317  0.9362  1.3695  0.1418
 3274TIP3    H231314   3.711   0.060   5.215 -1.8831  1.8783 -1.7735
 3275TIP3   OH231315   4.604   0.439   4.711 -0.0267  0.3227 -0.5241
 3275TIP3    H131316   4.536   0.505   4.695 -0.8899  0.0192  1.5719
 3275TIP3    H231317   4.661   0.445   4.635 -2.4400  0.5261 -2.4378
 3276TIP3   OH231318   4.549   2.156  13.251  0.5637 -0.0765  0.9428
 3276TIP3    H131319   4.623   2.107  13.215 -0.0505 -0.5956  0.3579
 3276TIP3    H231320   4.472   2.117  13.209  0.0159  0.9839  0.9439
 3277TIP3   OH231321   4.750   1.431  10.379 -0.5472  0.4123  0.0017
 3277TIP3    H131322   4.835   1.388  10.366 -0.2184  0.5069  1.5569
 3277TIP3    H231323   4.687   1.375  10.333 -0.0162 -1.3008  1.2573
 3278TIP3   OH231324   1.918   3.086  13.068 -0.4239  0.4118  0.2580
 3278TIP3    H131325   1.851   3.050  13.125  0.7551 -0.0174  1.4369
 3278TIP3    H231326   1.991   3.024  13.074 -0.0028  0.7347 -1.1626
 3279TIP3   OH231327   3.383   6.051   2.749 -0.0022 -0.2777 -0.4466
 3279TIP3    H131328   3.319   6.033   2.819  1.2837 -0.2468  0.7911
 3279TIP3    H231329   3.381   6.147   2.740  0.9285 -0.1275  0.6806
 3280TIP3   OH231330   1.593   4.199   4.007 -0.2024  0.0992  0.0978
 3280TIP3    H131331   1.542   4.120   4.026 -3.0200  1.4845 -1.1018
 3280TIP3    H231332   1.563   4.263   4.071  0.9026  0.6818  0.0640
 3281TIP3   OH231333   2.296   0.056   1.645  0.0773 -0.2383 -0.2523
 3281TIP3    H131334   2.344   0.007   1.713  0.6216  0.3519 -0.2041
 3281TIP3    H231335   2.210   0.070   1.683  0.6103  0.7549  0.6583
 3282TIP3   OH231336   2.247   0.238  13.549 -0.0766 -0.2852  0.1188
 3282TIP3    H131337   2.169   0.205  13.503 -0.2977  0.4747 -0.0578
 3282TIP3    H231338   2.304   0.269  13.479 -0.1414  0.2935  0.3190
 3283TIP3   OH231339   6.328   5.879  15.097  0.2713 -0.6717  0.0236
 3283TIP3    H131340   6.327   5.975  15.099 -0.4036 -0.6869  0.7201
 3283TIP3    H231341   6.371   5.854  15.179 -0.8722 -0.9714  0.5560
 3284TIP3   OH231342   6.257   2.974  10.634  0.0203 -0.3090  0.2642
 3284TIP3    H131343   6.271   2.887  10.670 -0.1882  0.1307  1.4595
 3284TIP3    H231344   6.342   3.017  10.642  0.7906 -1.1289 -2.5255
 3285TIP3   OH231345   0.450   0.035  14.109  0.2706 -0.1518 -0.7301
 3285TIP3    H131346   0.509   0.110  14.112 -0.9161  0.8576 -1.7678
 3285TIP3    H231347   0.423   0.022  14.200  1.7770 -0.3999 -0.2948
 3286TIP3   OH231348   2.936   0.193   5.061  0.0580 -0.1422  0.6132
 3286TIP3    H131349   2.919   0.260   5.127 -1.0551 -0.1199  0.3227
 3286TIP3    H231350   2.856   0.190   5.009  0.4640 -1.0145  0.0203
 3287TIP3   OH231351   1.913   1.585  13.008 -0.7436 -0.1507  0.1981
 3287TIP3    H131352   1.883   1.525  13.077 -0.8786 -0.2226  0.0760
 3287TIP3    H231353   1.917   1.671  13.051  0.3739 -0.4065  0.6363
 3288TIP3   OH231354   3.369   5.994  13.345  0.4772  0.3601 -0.9277
 3288TIP3    H131355   3.333   6.074  13.382 -1.6576 -1.1440  0.4845
 3288TIP3    H231356   3.331   5.989  13.257 -0.6002  0.2058 -0.4759
 3289TIP3   OH231357   2.653   0.326  14.228 -0.5015 -0.3191 -0.0532
 3289TIP3    H131358   2.700   0.409  14.221 -0.8057 -0.1627 -0.2512
 3289TIP3    H231359   2.572   0.347  14.274 -0.7428 -0.4372 -0.4172
 3290TIP3   OH231360   6.598   2.796  12.117  0.2452 -0.0998 -0.2230
 3290TIP3    H131361   6.614   2.762  12.205  2.4329 -1.2599 -0.9929
 3290TIP3    H231362   6.674   2.852  12.100 -0.4435  0.5622 -1.1721
 3291TIP3   OH231363   3.543   2.043  13.263 -0.9478 -0.8323 -0.1129
 3291TIP3    H131364   3.456   2.021  13.297 -1.1828 -1.0351 -0.8243
 3291TIP3    H231365   3.593   1.961  13.269 -1.2077 -1.0618 -0.8894
 3292TIP3   OH231366   1.588   2.886  11.085  0.2127  0.3147  0.0762
 3292TIP3    H131367   1.581   2.791  11.096 -2.0688  0.5754  1.3537
 3292TIP3    H231368   1.604   2.897  10.991  3.2038 -1.3639  0.2486
 3293TIP3   OH231369   2.966   1.821  13.135 -0.0318  0.6130 -0.2462
 3293TIP3    H131370   2.872   1.833  13.124 -0.0467  1.8510  0.8776
 3293TIP3    H231371   2.978   1.811  13.229  1.0003  1.0917 -0.3056
 3294TIP3   OH231372   1.874   3.401  14.319 -0.3549  0.5598  0.1661
 3294TIP3    H131373   1.893   3.319  14.272 -1.3311  0.3178  0.1691
 3294TIP3    H231374   1.929   3.466  14.276  0.5972 -0.1388  0.3041
 3295TIP3   OH231375   3.170   1.999   1.311  0.0938 -0.2010  0.0986
 3295TIP3    H131376   3.155   1.923   1.369  0.3471 -2.1930 -2.2766
 3295TIP3    H231377   3.264   1.996   1.293  0.0445  0.5144 -0.2734
 3296TIP3   OH231378   0.393   1.352   1.429 -0.4686 -0.1252  0.0847
 3296TIP3    H131379   0.359   1.335   1.516 -0.3807  1.7635  0.5336
 3296TIP3    H231380   0.436   1.437   1.436 -0.3998  0.0437 -1.7789
 3297TIP3   OH231381   5.754   3.158   3.788  0.3642 -0.0090 -0.7455
 3297TIP3    H131382   5.698   3.221   3.832  0.4836 -0.8067  0.6070
 3297TIP3    H231383   5.800   3.113   3.859 -0.1289 -1.9886 -1.6045
 3298TIP3   OH231384   4.093   1.407   4.350 -0.5123 -0.1396  0.0525
 3298TIP3    H131385   4.074   1.415   4.256  0.9440 -0.0612 -0.2471
 3298TIP3    H231386   4.102   1.497   4.380 -0.0896 -0.1853  0.0706
 3299TIP3   OH231387   5.582   0.882  10.975  0.6989 -0.1199 -0.0620
 3299TIP3    H131388   5.573   0.792  11.006 -0.7345 -0.9442 -2.5738
 3299TIP3    H231389   5.677   0.895  10.967  0.9230 -1.8470 -0.7126
 3300TIP3   OH231390   1.730   3.323  17.199 -0.0586 -0.6787  0.5667
 3300TIP3    H131391   1.722   3.229  17.216  1.2535 -0.7434  0.9697
 3300TIP3    H231392   1.823   3.336  17.182 -0.6460  0.0339 -2.8368
 3301TIP3   OH231393   0.071   0.109   0.178  0.0644 -0.2596  0.4595
 3301TIP3    H131394   0.037   0.182   0.127 -1.1593 -0.6586  0.6852
 3301TIP3    H231395  -0.006   0.069   0.218  0.4799 -2.6676 -0.9425
 3302TIP3   OH231396   0.059   4.488   6.677  0.3067  0.1120  0.1938
 3302TIP3    H131397   0.093   4.576   6.694  1.2816 -0.4434  1.2652
 3302TIP3    H231398  -0.035   4.495   6.694  0.3802  0.9251  0.3369
 3303TIP3   OH231399   4.158   0.767   4.576 -0.4959 -0.0877 -0.3193
 3303TIP3    H131400   4.070   0.752   4.611 -1.3272  1.1484 -1.7629
 3303TIP3    H231401   4.167   0.862   4.576  1.3305 -0.2143  0.8587
 3304TIP3   OH231402   3.951   6.609  14.236  0.0553  0.0708  0.1780
 3304TIP3    H131403   3.989   6.527  14.265 -0.2121  0.3631  1.4304
 3304TIP3    H231404   4.015   6.676  14.263 -0.6227  0.4291  0.9430
 3305TIP3   OH231405   2.404   5.026  13.363  0.2350 -0.1194 -0.5408
 3305TIP3    H131406   2.408   5.018  13.459  0.8271  1.5394 -0.4080
 3305TIP3    H231407   2.487   4.989  13.333  0.7701  0.8487 -0.2866
 3306TIP3   OH231408   3.429   5.209  14.807  0.0770 -0.1855  0.2504
 3306TIP3    H131409   3.435   5.129  14.755  1.0541  0.5273 -0.7656
 3306TIP3    H231410   3.345   5.248  14.782  0.3507 -0.0628 -0.5054
 3307TIP3   OH231411   1.023   6.234   3.793 -0.6466  0.1777  0.3054
 3307TIP3    H131412   0.992   6.143   3.789 -2.3635  0.4301  3.8225
 3307TIP3    H231413   0.968   6.281   3.730 -1.4122 -0.8393  0.1911
 3308TIP3   OH231414   4.155   0.360  17.011  0.3274 -0.0547  0.0550
 3308TIP3    H131415   4.092   0.400  17.071 -0.6584 -0.3602 -0.7426
 3308TIP3    H231416   4.237   0.404  17.030 -0.4656  1.5453  0.0124
 3309TIP3   OH231417   3.795   1.052   2.476 -0.7008 -0.1908  0.0215
 3309TIP3    H131418   3.811   1.075   2.567 -1.0490  0.2781 -0.0313
 3309TIP3    H231419   3.882   1.034   2.440 -0.0097  3.5456 -0.5942
 3310TIP3   OH231420   1.653   6.403   1.534  0.1607  0.2940 -0.4407
 3310TIP3    H131421   1.572   6.413   1.584 -0.8458  1.7320 -2.2135
 3310TIP3    H231422   1.703   6.482   1.553  1.1011 -0.5039  0.5036
 3311TIP3   OH231423   0.712   2.232  14.818  0.1611  0.0792 -0.2040
 3311TIP3    H131424   0.751   2.274  14.741  0.7842  0.7052  0.4432
 3311TIP3    H231425   0.772   2.160  14.839  0.6092  0.6004  0.3578
 3312TIP3   OH231426   2.672   4.926  16.835 -0.9660  0.4871 -0.0158
 3312TIP3    H131427   2.620   4.895  16.909 -0.3286 -3.8248 -1.1145
 3312TIP3    H231428   2.612   4.921  16.760 -0.1732 -0.4842 -0.6090
 3313TIP3   OH231429   6.520   0.689  14.764 -0.4097  0.0304 -0.5986
 3313TIP3    H131430   6.426   0.671  14.755 -0.6104  0.6129  0.2314
 3313TIP3    H231431   6.545   0.728  14.680 -0.4643 -1.9051 -1.5720
 3314TIP3   OH231432   1.692   5.262  11.314  0.1948 -0.5555  0.2887
 3314TIP3    H131433   1.646   5.181  11.295 -2.1839  0.2612  2.0772
 3314TIP3    H231434   1.717   5.255  11.406  0.7795  0.3689  0.2195
 3315TIP3   OH231435   2.085   1.988   0.232 -0.0473  0.5311 -0.6127
 3315TIP3    H131436   2.111   1.896   0.225  0.0477  0.4334  0.6732
 3315TIP3    H231437   2.168   2.036   0.227 -0.0918  0.5477 -1.2332
 3316TIP3   OH231438   5.951   3.793   0.129  0.5177 -0.6777  0.1648
 3316TIP3    H131439   5.905   3.752   0.055 -1.9261 -0.7871  1.6274
 3316TIP3    H231440   5.988   3.719   0.177  1.1888 -0.6885 -0.3604
 3317TIP3   OH231441   4.278   3.154   5.996  0.0078  0.2618 -0.4294
 3317TIP3    H131442   4.358   3.129   6.042 -0.5946  0.6890  0.9112
 3317TIP3    H231443   4.278   3.250   5.999  0.6854  0.3889 -2.6676
 3318TIP3   OH231444   3.664   3.071  15.414 -0.0635 -0.0351 -0.4910
 3318TIP3    H131445   3.750   3.059  15.454  0.2114  0.2340 -0.9992
 3318TIP3    H231446   3.677   3.139  15.348 -0.5625 -0.3341 -0.9033
 3319TIP3   OH231447   4.825   1.535   2.123  0.2074 -0.3767 -0.1742
 3319TIP3    H131448   4.911   1.495   2.109 -0.2058 -1.1645 -0.5254
 3319TIP3    H231449   4.772   1.464   2.160 -0.6368 -0.2640 -1.1329
 3320TIP3   OH231450   6.443   1.080  15.235 -0.4088  0.3080  0.1268
 3320TIP3    H131451   6.359   1.093  15.278 -0.2111  1.2181  0.2499
 3320TIP3    H231452   6.504   1.134  15.284  0.3165 -0.5483  0.2037
 3321TIP3   OH231453   6.342   3.899   3.246  0.0109  0.9890 -0.0447
 3321TIP3    H131454   6.274   3.849   3.292 -0.2455  0.3739 -1.0742
 3321TIP3    H231455   6.425   3.861   3.277  0.3497  4.7609  4.9518
 3322TIP3   OH231456   3.438   4.537  17.081 -0.0065 -0.4144  0.1879
 3322TIP3    H131457   3.348   4.562  17.101  0.3876  0.8803  0.4660
 3322TIP3    H231458   3.440   4.442  17.091 -1.2405 -0.4187  0.5465
 3323TIP3   OH231459   1.996   2.688  12.222  0.1196 -0.3983 -0.0871
 3323TIP3    H131460   2.085   2.654  12.223  1.5465  2.9275 -0.7042
 3323TIP3    H231461   1.996   2.757  12.289 -1.7933  0.1284 -0.5634
 3324TIP3   OH231462   1.097   2.105   2.783 -0.0153  0.1256 -0.2697
 3324TIP3    H131463   1.120   2.133   2.695 -0.8448 -0.5715 -0.7223
 3324TIP3    H231464   1.174   2.057   2.814  0.7736  1.4623 -0.1054
 3325TIP3   OH231465   3.390   4.726  11.414  0.3699  0.1011 -0.2480
 3325TIP3    H131466   3.423   4.767  11.333 -0.5539  0.4134 -0.4836
 3325TIP3    H231467   3.296   4.714  11.398  0.2441 -0.1749  0.6421
 3326TIP3   OH231468   4.965   1.168  11.326 -0.2105 -0.7390 -0.2652
 3326TIP3    H131469   4.950   1.169  11.421 -2.2532  0.9770 -0.5567
 3326TIP3    H231470   5.012   1.086  11.311  0.0148 -1.1457  2.1943
 3327TIP3   OH231471   6.070   6.540   0.323  0.2299  0.3786  0.4650
 3327TIP3    H131472   6.157   6.574   0.344 -0.2776  1.8499  0.3279
 3327TIP3    H231473   6.013   6.576   0.391 -0.2287 -0.8671  0.7609
 3328TIP3   OH231474   4.165   0.371  13.655  0.3758  0.4292 -0.0699
 3328TIP3    H131475   4.174   0.368  13.750 -0.9954  0.7599  0.0922
 3328TIP3    H231476   4.157   0.464  13.634  0.8524  0.3710 -0.5351
 3329TIP3   OH231477   6.670   2.591   5.625 -0.4808  0.1547 -0.5616
 3329TIP3    H131478   6.724   2.592   5.546  0.2806  0.8747 -0.0468
 3329TIP3    H231479   6.627   2.677   5.626  0.6947  0.7565  0.5835
 3330TIP3   OH231480   1.062   3.487  12.525 -0.2083  0.4975 -0.5819
 3330TIP3    H131481   1.143   3.469  12.572 -0.8625  1.1371  0.8616
 3330TIP3    H231482   0.993   3.456  12.584 -1.1063  2.5184 -0.4863
 3331TIP3   OH231483   2.838   0.798   0.107 -0.1666 -0.2716  0.2629
 3331TIP3    H131484   2.765   0.742   0.133 -0.2543  0.0596  0.7501
 3331TIP3    H231485   2.905   0.737   0.076 -0.5163 -0.6017  0.1446
 3332TIP3   OH231486   6.357   3.769   1.417 -0.7517  0.0790  0.1252
 3332TIP3    H131487   6.419   3.702   1.390 -1.2742  0.6434 -2.8294
 3332TIP3    H231488   6.367   3.774   1.512  4.1072  0.5199 -0.1314
 3333TIP3   OH231489   1.503   5.542  14.925  0.0183 -0.4578 -0.2808
 3333TIP3    H131490   1.468   5.566  15.011  0.2612  1.9179 -0.7662
 3333TIP3    H231491   1.598   5.540  14.938  0.1490  1.1859 -0.7116
 3334TIP3   OH231492   4.124   0.460   5.750  0.1895  0.4584 -0.0393
 3334TIP3    H131493   4.207   0.413   5.756  0.6423  1.4102  2.1899
 3334TIP3    H231494   4.094   0.467   5.840 -0.4790  3.2899 -0.3838
 3335TIP3   OH231495   2.451   4.020   2.600 -0.0450  0.2701 -0.1845
 3335TIP3    H131496   2.370   4.070   2.598  0.0714  0.4408 -1.2717
 3335TIP3    H231497   2.439   3.958   2.672 -1.5529 -0.3867 -0.9566
 3336TIP3   OH231498   4.310   2.678   1.479  0.2611 -0.2403  0.7176
 3336TIP3    H131499   4.372   2.623   1.527  1.8291  0.7901 -0.0153
 3336TIP3    H231500   4.366   2.738   1.428 -1.2575 -1.2113 -2.3304
 3337TIP3   OH231501   6.753   0.009   2.306 -0.4892 -0.2699 -0.1733
 3337TIP3    H131502   6.841  -0.028   2.296 -0.6998 -0.4891 -1.4229
 3337TIP3    H231503   6.763   0.101   2.279 -0.9965 -0.7794 -2.3328
 3338TIP3   OH231504   5.871   3.985  15.582  0.4671  0.3421 -0.1787
 3338TIP3    H131505   5.847   4.036  15.505  1.6627  3.2389  1.2254
 3338TIP3    H231506   5.951   4.026  15.615  0.6514 -1.5175  1.9391
 3339TIP3   OH231507   2.446   6.421   0.360  0.3612  0.1189  0.3227
 3339TIP3    H131508   2.437   6.510   0.395 -1.1150 -0.7341  2.3496
 3339TIP3    H231509   2.435   6.364   0.436  1.4950 -1.8419 -0.8673
 3340TIP3   OH231510   4.574   2.392  14.526  0.5723 -0.2255  0.3988
 3340TIP3    H131511   4.488   2.435  14.524  0.4960 -0.3610 -1.1813
 3340TIP3    H231512   4.631   2.453  14.573  0.4050  1.5443 -1.5497
 3341TIP3   OH231513   4.450   0.653   4.619  0.1987  0.3176 -0.2873
 3341TIP3    H131514   4.518   0.700   4.570 -0.1786  1.6508  0.4123
 3341TIP3    H231515   4.398   0.722   4.660 -1.4261 -0.6860 -0.5754
 3342TIP3   OH231516   2.566   1.712  13.962  0.1095 -0.2960 -0.4495
 3342TIP3    H131517   2.627   1.785  13.975 -1.4997  0.8765  0.8226
 3342TIP3    H231518   2.490   1.751  13.919 -0.9239 -1.1226  0.5498
 3343TIP3   OH231519   1.630   1.283   1.667  0.6259  0.4184  0.2120
 3343TIP3    H131520   1.544   1.242   1.670  1.0426 -0.5139 -0.2176
 3343TIP3    H231521   1.675   1.250   1.745  0.2551  1.7353  1.0284
 3344TIP3   OH231522   5.662   5.832  11.803 -0.2527  0.1519 -0.6104
 3344TIP3    H131523   5.719   5.804  11.731 -1.4223 -2.0711 -0.7492
 3344TIP3    H231524   5.722   5.853  11.875  0.8120 -0.0353 -1.4248
 3345TIP3   OH231525   2.366   1.479  10.879 -0.1201 -0.2395 -0.4813
 3345TIP3    H131526   2.282   1.516  10.851  1.2078  2.0978 -1.7239
 3345TIP3    H231527   2.429   1.514  10.816  1.8119 -1.8540  0.4597
 3346TIP3   OH231528   3.842   2.815  12.709 -0.4334 -0.3384 -0.3018
 3346TIP3    H131529   3.838   2.897  12.759 -2.3076 -0.6909  0.2098
 3346TIP3    H231530   3.779   2.828  12.638 -1.4378 -1.6525  0.3152
 3347TIP3   OH231531   3.786   0.075  15.252  0.0649 -0.4193  0.1571
 3347TIP3    H131532   3.768   0.108  15.340 -2.6597 -0.6204 -0.2475
 3347TIP3    H231533   3.833   0.146  15.209  2.0159 -0.5504  1.8895
 3348TIP3   OH231534   2.851   0.863   4.594 -0.1241 -0.3283  0.2440
 3348TIP3    H131535   2.865   0.941   4.540  2.6383  0.3631  1.7769
 3348TIP3    H231536   2.899   0.794   4.548 -1.0333 -0.7121 -0.1537
 3349TIP3   OH231537   0.074   0.021  13.352 -0.6481  0.2152  0.1942
 3349TIP3    H131538   0.163   0.039  13.382 -0.5366 -0.7984  0.5043
 3349TIP3    H231539   0.080   0.021  13.257 -0.0731 -0.9741  0.2196
 3350TIP3   OH231540   6.232   3.314  11.004 -0.5907  0.1242  0.0056
 3350TIP3    H131541   6.210   3.296  10.912  0.7368  0.8756 -0.4794
 3350TIP3    H231542   6.187   3.245  11.053 -1.0254 -0.5068 -1.2351
 3351TIP3   OH231543   2.762   1.104   0.282  0.4719  0.0728  0.4298
 3351TIP3    H131544   2.737   1.178   0.337  0.2874 -0.3890  0.9763
 3351TIP3    H231545   2.679   1.071   0.248  0.5880  0.3888 -0.1800
 3352TIP3   OH231546   6.626   1.693   4.538 -0.0624  0.1408  0.3643
 3352TIP3    H131547   6.694   1.714   4.602  0.0517  3.6148 -0.6820
 3352TIP3    H231548   6.556   1.756   4.556 -0.4432  0.5586 -2.2329
 3353TIP3   OH231549   5.618   0.199   4.600  0.5196  0.5048 -0.5144
 3353TIP3    H131550   5.539   0.216   4.548  0.6664  0.3468 -0.7908
 3353TIP3    H231551   5.649   0.286   4.625  0.9920  0.6295 -1.5088
 3354TIP3   OH231552   1.253   4.901  14.706  0.4759 -0.1056  0.1604
 3354TIP3    H131553   1.260   4.993  14.679  1.0526 -0.9064 -2.7270
 3354TIP3    H231554   1.311   4.895  14.782  0.5595  1.8615  0.3234
 3355TIP3   OH231555   3.191   5.828  16.572  0.3277 -0.2670 -0.1571
 3355TIP3    H131556   3.107   5.868  16.549 -0.3671 -0.5216  1.7392
 3355TIP3    H231557   3.235   5.896  16.624 -0.2831 -1.3997  1.9339
 3356TIP3   OH231558   2.678   1.895  11.089 -0.1824 -0.0952  0.3186
 3356TIP3    H131559   2.749   1.918  11.029 -1.4901  0.4191 -1.0650
 3356TIP3    H231560   2.672   1.800  11.084  0.5601 -0.1747  0.6636
 3357TIP3   OH231561   0.688   4.571  17.129  0.3109 -0.1996 -0.1281
 3357TIP3    H131562   0.645   4.599  17.049  2.5076 -3.1578 -2.5873
 3357TIP3    H231563   0.627   4.509  17.169  0.2130 -0.5852 -0.8676
 3358TIP3   OH231564   2.170   4.735  15.437  0.1840  0.1325  0.4044
 3358TIP3    H131565   2.083   4.702  15.417  0.3820 -0.5392  0.6412
 3358TIP3    H231566   2.228   4.659  15.429  0.6922  0.4877  0.6179
 3359TIP3   OH231567   1.838   1.666  13.833 -0.4003  0.2837 -0.0340
 3359TIP3    H131568   1.816   1.578  13.864 -1.0584  0.0282 -1.1421
 3359TIP3    H231569   1.777   1.723  13.879 -0.5858  0.0495  0.0167
 3360TIP3   OH231570   5.374   5.829  12.212  0.7210 -0.0761  0.4977
 3360TIP3    H131571   5.287   5.804  12.181  0.7414  0.7493 -0.2678
 3360TIP3    H231572   5.377   5.799  12.303 -0.2059 -0.4802  0.4046
 3361TIP3   OH231573   1.875   2.365  14.486  0.3178 -0.0586  0.6060
 3361TIP3    H131574   1.917   2.377  14.572  3.5149  0.4931 -0.8811
 3361TIP3    H231575   1.946   2.337  14.429 -1.7475 -0.5624 -1.8713
 3362TIP3   OH231576   4.747   3.440   1.383 -0.4369  0.5270  0.5469
 3362TIP3    H131577   4.738   3.520   1.435 -1.1523  1.4689 -0.9263
 3362TIP3    H231578   4.661   3.399   1.388 -1.2744  1.8107 -1.6154
 3363TIP3   OH231579   1.309   5.310  11.366  0.4939  0.5013 -0.7729
 3363TIP3    H131580   1.310   5.222  11.328  1.8135  0.7198 -1.3132
 3363TIP3    H231581   1.354   5.301  11.450  0.2425  0.5791 -0.6279
 3364TIP3   OH231582   3.340   2.169   4.075  0.8862  0.2477  0.1015
 3364TIP3    H131583   3.391   2.217   4.010 -0.5163  1.4899 -0.1436
 3364TIP3    H231584   3.362   2.211   4.158 -1.3551  2.3890 -0.2612
 3365TIP3   OH231585   5.385   2.695  15.203  0.7760  0.7402 -0.4544
 3365TIP3    H131586   5.476   2.695  15.175  0.4115 -1.8780 -2.0475
 3365TIP3    H231587   5.339   2.644  15.135 -1.5342  0.3887  1.2455
 3366TIP3   OH231588   1.327   4.338   2.156  0.0603  0.1085  0.3673
 3366TIP3    H131589   1.324   4.307   2.066  1.4820  1.1275 -0.0527
 3366TIP3    H231590   1.262   4.409   2.160  1.1471  1.1644 -0.3124
 3367TIP3   OH231591   5.079   6.132  14.524 -0.0584  0.7899  0.0595
 3367TIP3    H131592   5.156   6.077  14.543 -0.3100 -0.2385 -1.7097
 3367TIP3    H231593   5.006   6.085  14.565 -0.0603  0.6203 -0.1409
 3368TIP3   OH231594   5.841   4.485   4.955  0.2679  0.1668  0.2708
 3368TIP3    H131595   5.900   4.431   4.902 -1.1929 -1.4234  0.1845
 3368TIP3    H231596   5.890   4.566   4.969  2.0580 -0.6829 -0.6372
 3369TIP3   OH231597   3.439   6.094  16.354  0.4459  0.0208 -0.1845
 3369TIP3    H131598   3.503   6.150  16.398 -1.2288  0.0976  2.3547
 3369TIP3    H231599   3.411   6.031  16.421 -5.0153  2.4644  0.3821
 3370TIP3   OH231600   2.866   5.194   5.403  0.1448  0.6849 -0.6022
 3370TIP3    H131601   2.801   5.149   5.458  1.5082  1.5452  1.8908
 3370TIP3    H231602   2.897   5.127   5.342 -0.2971 -0.8178  0.7678
 3371TIP3   OH231603   3.665   1.211  10.570 -0.2634 -0.3647 -0.4204
 3371TIP3    H131604   3.616   1.253  10.641 -1.0434 -0.5847 -0.8072
 3371TIP3    H231605   3.729   1.156  10.614  1.7620  2.2269  0.1274
 3372TIP3   OH231606   3.129   5.212  16.815  0.3426  0.3189 -0.2586
 3372TIP3    H131607   3.060   5.231  16.752  2.4705  2.2118 -2.2202
 3372TIP3    H231608   3.123   5.282  16.880  0.1851  0.2553 -0.2046
 3373TIP3   OH231609   2.016   3.791   3.405  0.2330 -0.0887 -0.4923
 3373TIP3    H131610   2.111   3.803   3.404  0.3100 -0.0912  1.7848
 3373TIP3    H231611   1.983   3.864   3.457 -0.9162 -0.6515 -0.3914
 3374TIP3   OH231612   1.109   1.370   3.379  0.1024 -0.2685 -0.4374
 3374TIP3    H131613   1.056   1.340   3.452  0.9748 -0.2620  0.2109
 3374TIP3    H231614   1.046   1.410   3.319 -0.3508  2.5838  1.7274
 3375TIP3   OH231615   6.346   1.334   0.085  0.0012  0.3557 -0.1309
 3375TIP3    H131616   6.359   1.367   0.174  0.5995 -0.1845 -0.0105
 3375TIP3    H231617   6.326   1.412   0.034  1.4172  0.9315  0.1468
 3376TIP3   OH231618   4.746   1.040   6.172 -0.2586 -0.5555  0.1308
 3376TIP3    H131619   4.721   0.996   6.252 -0.3855 -1.0038 -0.1537
 3376TIP3    H231620   4.798   1.116   6.201 -0.6479 -0.4846  0.6477
 3377TIP3   OH231621   5.259   3.066   0.031 -0.3644  0.5071  0.4571
 3377TIP3    H131622   5.250   3.146   0.084  1.3190  1.3166 -0.4091
 3377TIP3    H231623   5.334   3.020   0.070 -0.6478 -0.1292  0.2729
 3378TIP3   OH231624   5.874   6.797  14.416  0.8822  0.0395  0.7264
 3378TIP3    H131625   5.850   6.888  14.395  3.5822  0.0099 -3.5305
 3378TIP3    H231626   5.791   6.757  14.441 -1.2868  2.6592 -1.5448
 3379TIP3   OH231627   4.653   0.482  15.887 -0.1278 -0.3716 -0.0555
 3379TIP3    H131628   4.700   0.431  15.821 -3.5725 -1.4343 -1.8978
 3379TIP3    H231629   4.675   0.439  15.970  2.1935 -0.6763 -0.7539
 3380TIP3   OH231630   0.000   4.754  15.335 -0.1240 -0.0531 -0.0939
 3380TIP3    H131631   0.001   4.707  15.418  0.6756 -2.5851 -1.4452
 3380TIP3    H231632   0.082   4.730  15.293 -0.8680  0.5409 -1.9659
 3381TIP3   OH231633   1.327   1.545  16.110 -0.5910 -0.0029 -0.7870
 3381TIP3    H131634   1.316   1.507  16.023 -1.8698 -0.3485 -0.4879
 3381TIP3    H231635   1.238   1.565  16.139 -0.1424  0.5413  0.2518
 3382TIP3   OH231636   1.434   1.495  12.463  0.0841  0.6563 -0.5897
 3382TIP3    H131637   1.490   1.531  12.532 -0.2740  1.1675 -0.5647
 3382TIP3    H231638   1.366   1.561  12.450  0.3694  0.7505 -1.7136
 3383TIP3   OH231639   1.379   0.059   1.569  0.0637 -0.6682 -0.3179
 3383TIP3    H131640   1.310   0.124   1.588  0.6569  0.2522 -1.2292
 3383TIP3    H231641   1.460   0.110   1.568  0.5866 -1.4888 -0.7665
 3384TIP3   OH231642   0.986   3.810   2.391 -0.9669 -0.4612  0.1383
 3384TIP3    H131643   0.932   3.868   2.338  0.7305 -0.4589 -1.6995
 3384TIP3    H231644   1.053   3.867   2.429 -0.5618 -0.8800  0.0595
 3385TIP3   OH231645   0.670   6.021   4.151  0.2466  0.6530  0.3029
 3385TIP3    H131646   0.678   6.074   4.072 -0.3835  0.2888 -0.0047
 3385TIP3    H231647   0.734   5.951   4.140  0.2765  0.6970  0.1976
 3386TIP3   OH231648   4.808   3.402   1.110  0.3668 -0.1262 -0.0007
 3386TIP3    H131649   4.796   3.454   1.189 -0.5556 -0.0761 -0.1601
 3386TIP3    H231650   4.815   3.466   1.040  0.0009 -0.1922 -0.1006
 3387TIP3   OH231651   1.560   5.209  16.986  0.2332  0.1314 -0.5968
 3387TIP3    H131652   1.585   5.175  17.072  1.6444  0.5589 -0.8121
 3387TIP3    H231653   1.581   5.138  16.925 -0.0231  0.1187 -0.6696
 3388TIP3   OH231654   6.629   5.919  17.023 -0.8004  0.1637  0.1906
 3388TIP3    H131655   6.660   5.901  16.934 -0.5156 -0.4676  0.4121
 3388TIP3    H231656   6.599   6.010  17.020  0.7366  0.6914 -0.1464
 3389TIP3   OH231657   5.550   4.820  11.991 -0.0700  0.4344  0.2089
 3389TIP3    H131658   5.476   4.787  11.941 -0.0938  2.3128 -1.1132
 3389TIP3    H231659   5.625   4.769  11.959 -0.8877 -2.6736  2.7574
 3390TIP3   OH231660   5.483   6.335   2.451  0.2251 -0.1760  0.3027
 3390TIP3    H131661   5.548   6.396   2.417  1.0750 -0.9142  0.5398
 3390TIP3    H231662   5.517   6.248   2.426 -1.9709 -0.5069 -1.8367
 3391TIP3   OH231663   3.037   5.870   2.705  0.4022  0.6477  0.1393
 3391TIP3    H131664   3.043   5.965   2.718  0.7748  0.7794 -0.8986
 3391TIP3    H231665   3.091   5.833   2.775 -2.4050  1.0076  2.7137
 3392TIP3   OH231666   6.101   2.779   1.571 -0.6306  0.2335 -0.2418
 3392TIP3    H131667   6.129   2.688   1.576  0.7543  0.6410 -0.0996
 3392TIP3    H231668   6.023   2.777   1.517 -0.5109 -1.0116 -0.4053
 3393TIP3   OH231669   1.427   2.699   2.447  0.0614 -0.1213 -0.1262
 3393TIP3    H131670   1.352   2.688   2.506  0.9201  0.7235  1.1747
 3393TIP3    H231671   1.470   2.613   2.448  1.5433  0.5424  2.6481
 3394TIP3   OH231672   0.497   4.253  10.805 -0.7872 -0.1070  0.5027
 3394TIP3    H131673   0.543   4.297  10.733  1.8594  0.9431  2.6491
 3394TIP3    H231674   0.476   4.166  10.771  0.1502  0.4381 -1.6218
 3395TIP3   OH231675   0.672   5.992   2.186 -0.3590  0.3968  0.0627
 3395TIP3    H131676   0.632   6.047   2.254 -3.5095  0.4816 -1.6839
 3395TIP3    H231677   0.765   6.016   2.188 -0.7254  2.1124  2.6850
 3396TIP3   OH231678   1.226   4.533   0.067  0.2176 -0.0576  0.1747
 3396TIP3    H131679   1.205   4.441   0.051  0.2400  0.2177 -1.7669
 3396TIP3    H231680   1.142   4.579   0.054  0.3941  0.2796  0.2190
 3397TIP3   OH231681   1.382   6.751  16.730 -0.5791 -0.4453 -0.7548
 3397TIP3    H131682   1.288   6.745  16.742 -0.4873 -1.2748 -0.4268
 3397TIP3    H231683   1.418   6.738  16.818 -0.1813  0.6322 -0.7383
 3398TIP3   OH231684   0.999   0.353  14.460 -0.3539  0.1514 -0.7347
 3398TIP3    H131685   0.966   0.421  14.401  0.3429 -0.3819 -1.7686
 3398TIP3    H231686   1.029   0.283  14.402  0.6620 -0.2518  0.2335
 3399TIP3   OH231687   6.620   5.828  13.536  0.3751 -0.0984  0.2548
 3399TIP3    H131688   6.680   5.897  13.508  0.7315 -0.6249 -0.3287
 3399TIP3    H231689   6.675   5.767  13.586  0.7090 -1.3652 -1.5485
 3400TIP3   OH231690   0.403   4.771   1.684 -0.7990  0.1470 -0.0160
 3400TIP3    H131691   0.368   4.814   1.762  0.6786  1.7269 -0.1688
 3400TIP3    H231692   0.453   4.697   1.718 -1.0442  0.1942  0.4523
 3401TIP3   OH231693   3.151   5.334   4.533 -0.0305 -0.0514  0.3262
 3401TIP3    H131694   3.164   5.240   4.541  0.6384 -0.0354 -0.4490
 3401TIP3    H231695   3.191   5.357   4.449 -2.0760  0.5848 -0.5383
 3402TIP3   OH231696   4.159   2.171   1.893 -0.0467 -0.3326  0.3499
 3402TIP3    H131697   4.171   2.182   1.988  2.1856 -0.2963  0.1045
 3402TIP3    H231698   4.136   2.258   1.861 -1.5531 -0.4886  0.9155
 3403TIP3   OH231699   4.803   5.603   0.831  0.8450 -0.3543  0.1497
 3403TIP3    H131700   4.816   5.631   0.922  0.0557  0.8981 -0.0829
 3403TIP3    H231701   4.888   5.615   0.789  1.2679 -1.1473  0.7738
 3404TIP3   OH231702   1.628   3.336   5.661  0.0874 -0.0845  0.6624
 3404TIP3    H131703   1.560   3.382   5.710  1.1539  0.1481  1.9888
 3404TIP3    H231704   1.622   3.246   5.692 -2.9793 -1.3935 -2.9878
 3405TIP3   OH231705   0.588   3.862  11.945 -0.1884  0.2830  0.5509
 3405TIP3    H131706   0.518   3.858  11.880  0.8354  0.1691 -0.5795
 3405TIP3    H231707   0.637   3.780  11.934  0.7545  0.8207  0.5645
 3406TIP3   OH231708   2.698   2.696  14.326 -0.0804 -0.1267 -0.4974
 3406TIP3    H131709   2.774   2.648  14.359 -0.0679  1.6994  2.4630
 3406TIP3    H231710   2.622   2.644  14.354 -0.1165 -2.2577 -3.9481
 3407TIP3   OH231711   6.265   6.075   5.497  0.2704  0.0816 -0.3822
 3407TIP3    H131712   6.326   6.130   5.545  0.4838 -0.5087  0.0391
 3407TIP3    H231713   6.181   6.120   5.506  0.3234  0.0291  0.4775
 3408TIP3   OH231714   4.014   3.463   5.859 -0.5447  0.1080  0.2938
 3408TIP3    H131715   3.989   3.375   5.830  0.3611  0.3605 -1.3789
 3408TIP3    H231716   3.958   3.480   5.934 -2.0593 -1.1703 -0.4811
 3409TIP3   OH231717   0.514   3.963  14.413  0.2377 -0.5457 -0.3672
 3409TIP3    H131718   0.557   3.922  14.338  2.2306 -0.3847  0.6344
 3409TIP3    H231719   0.449   3.898  14.441  0.3070 -1.1144 -1.4710
 3410TIP3   OH231720   2.773   0.404   0.416 -0.4723  0.3141 -0.1958
 3410TIP3    H131721   2.736   0.325   0.378 -2.3026 -0.5845  3.0600
 3410TIP3    H231722   2.732   0.476   0.367 -0.1513 -0.6994 -2.0235
 3411TIP3   OH231723   4.564   3.412  16.955 -0.4308  0.0559  0.2405
 3411TIP3    H131724   4.490   3.440  16.902  0.3805  1.0432 -0.4129
 3411TIP3    H231725   4.638   3.461  16.920  0.9841 -2.5096 -0.6101
 3412TIP3   OH231726   3.975   3.534   0.432 -0.5879 -0.2627 -0.1296
 3412TIP3    H131727   4.029   3.462   0.400  0.8124 -0.1283  1.7762
 3412TIP3    H231728   3.895   3.492   0.463  0.7470 -1.2616  2.1981
 3413TIP3   OH231729   6.556   0.780   2.778 -0.1122 -0.9779 -0.5326
 3413TIP3    H131730   6.492   0.727   2.827  0.6305 -1.5283 -0.1457
 3413TIP3    H231731   6.581   0.849   2.839  1.0277 -1.8291 -0.0033
 3414TIP3   OH231732   4.003   0.396  12.515 -0.0705 -0.4772 -0.0303
 3414TIP3    H131733   4.053   0.390  12.596  1.9947  0.1655 -1.2020
 3414TIP3    H231734   3.970   0.307  12.501  0.5676 -0.8704  0.8881
 3415TIP3   OH231735   6.822   6.724   2.003  0.0909 -0.3822  0.1254
 3415TIP3    H131736   6.873   6.721   1.922  1.2278 -0.3874  0.8257
 3415TIP3    H231737   6.770   6.804   1.996  0.2898 -0.3096 -0.5398
 3416TIP3   OH231738   4.524   6.243   5.624  0.4367 -0.7679 -0.3142
 3416TIP3    H131739   4.554   6.280   5.541  1.5637 -1.5779 -0.2920
 3416TIP3    H231740   4.428   6.246   5.618  0.4249 -2.2845 -2.3546
 3417TIP3   OH231741   0.078   6.309   2.366  0.0318  0.7249 -0.2937
 3417TIP3    H131742   0.113   6.318   2.277  2.2449  1.2982  0.5902
 3417TIP3    H231743   0.143   6.257   2.413 -0.8696  0.8424  1.1468
 3418TIP3   OH231744   1.366   3.451   1.428 -0.4052  0.7449 -0.1857
 3418TIP3    H131745   1.330   3.366   1.404  0.5566  0.8661 -2.2114
 3418TIP3    H231746   1.292   3.498   1.468 -1.8061  0.0821 -1.8763
 3419TIP3   OH231747   2.671   3.684   2.461  0.2363  0.3390  0.4869
 3419TIP3    H131748   2.660   3.663   2.368 -2.0803 -0.5719  0.9010
 3419TIP3    H231749   2.718   3.610   2.498  2.3870  1.3105 -0.1426
 3420TIP3   OH231750   3.038   2.588   4.389  0.1815 -0.3179  0.7350
 3420TIP3    H131751   3.057   2.554   4.301 -1.2434 -0.5259  0.4795
 3420TIP3    H231752   3.122   2.584   4.435  0.2242 -3.9247  0.6355
 3421TIP3   OH231753   6.218   3.318   6.247  0.2811 -0.0110  0.1738
 3421TIP3    H131754   6.221   3.406   6.283 -1.1726 -0.7865  2.4400
 3421TIP3    H231755   6.302   3.279   6.271  0.2862  0.2560  0.6009
 3422TIP3   OH231756   3.145   1.768  17.038  0.0566  0.3875 -0.6298
 3422TIP3    H131757   3.067   1.749  17.090  0.8821  0.0205  0.4869
 3422TIP3    H231758   3.132   1.717  16.958 -1.2834  1.0662 -0.8826
 3423TIP3   OH231759   4.942   0.791  16.443  0.0855 -0.2726 -0.1594
 3423TIP3    H131760   4.978   0.869  16.399 -1.5702 -0.7984 -2.6425
 3423TIP3    H231761   4.882   0.827  16.508  0.4314  0.5370 -0.2698
 3424TIP3   OH231762   2.344   0.365   5.311 -0.3166 -0.3653  0.1375
 3424TIP3    H131763   2.380   0.280   5.287  1.4807 -0.2456  2.0786
 3424TIP3    H231764   2.304   0.352   5.397 -0.2963  0.6624  0.3251
 3425TIP3   OH231765   1.930   6.014  12.357 -0.4781  0.1759  0.0572
 3425TIP3    H131766   1.975   6.036  12.438  2.1545 -1.9513 -0.6864
 3425TIP3    H231767   1.941   6.091  12.301  0.6490  0.4000  0.5680
 3426TIP3   OH231768   3.597   0.667  16.903 -0.1356  0.1359  0.2493
 3426TIP3    H131769   3.636   0.670  16.991 -1.8793 -3.0758  1.2743
 3426TIP3    H231770   3.671   0.646  16.845  0.4874 -1.1395  1.4540
 3427TIP3   OH231771   5.992   1.285   5.266 -0.6686 -0.0752  0.5577
 3427TIP3    H131772   6.002   1.203   5.217  1.6739  0.1438  0.5771
 3427TIP3    H231773   6.068   1.337   5.242 -2.7196  2.7166 -0.4504
 3428TIP3   OH231774   2.367   3.514  14.114  0.5924  0.7208 -0.1716
 3428TIP3    H131775   2.271   3.520  14.122  0.6505  0.4344  1.0853
 3428TIP3    H231776   2.388   3.430  14.155  1.3879  0.8122 -0.3853
 3429TIP3   OH231777   1.373   5.192  13.485  0.4232  0.6595 -0.1014
 3429TIP3    H131778   1.364   5.107  13.527 -0.0585  0.0539 -1.3892
 3429TIP3    H231779   1.311   5.249  13.531 -0.6416 -0.1851 -0.4696
 3430TIP3   OH231780   4.657   0.036  12.888 -0.5053 -0.2463  0.4497
 3430TIP3    H131781   4.611   0.091  12.951 -0.3160 -0.8491  1.1304
 3430TIP3    H231782   4.708   0.097  12.835  0.3841  0.1754  1.7528
 3431TIP3   OH231783   2.561   2.523   5.331 -0.4062  0.0732  0.0490
 3431TIP3    H131784   2.653   2.548   5.323 -0.1339 -1.0131 -0.3862
 3431TIP3    H231785   2.514   2.605   5.346  0.6284  0.6374  0.2224
 3432TIP3   OH231786   4.625   1.585  10.620  0.2334 -0.1536  0.2631
 3432TIP3    H131787   4.644   1.536  10.700 -0.9924  1.1260  1.3941
 3432TIP3    H231788   4.667   1.535  10.551  3.5045 -0.0282  1.9599
 3433TIP3   OH231789   5.208   0.195  15.561 -0.3564  0.4325 -0.4967
 3433TIP3    H131790   5.219   0.280  15.517 -2.2893 -0.7751 -3.6340
 3433TIP3    H231791   5.131   0.207  15.617 -0.7885  0.6807 -1.1381
 3434TIP3   OH231792   6.571   4.247  13.673 -0.4801 -0.6496  0.0908
 3434TIP3    H131793   6.642   4.270  13.732  0.0801 -2.3440  0.1396
 3434TIP3    H231794   6.596   4.284  13.589 -0.0643 -0.3467  0.3480
 3435TIP3   OH231795   2.874   4.060  11.982  0.6324  0.4009  0.8073
 3435TIP3    H131796   2.786   4.028  12.000  1.2782 -1.9246  0.1367
 3435TIP3    H231797   2.864   4.118  11.906 -0.1303 -1.1121 -0.2825
 3436TIP3   OH231798   4.717   0.332  10.648  0.9408  0.1647 -0.1668
 3436TIP3    H131799   4.687   0.419  10.624  1.7166  0.5504  0.2158
 3436TIP3    H231800   4.650   0.298  10.707  0.7767  0.6105 -0.0953
 3437TIP3   OH231801   3.141   0.657  11.168  0.0620 -0.1811 -0.8313
 3437TIP3    H131802   3.199   0.732  11.185 -3.0755  2.1654  0.5930
 3437TIP3    H231803   3.107   0.673  11.080 -0.6207  0.1640 -0.5206
 3438TIP3   OH231804   1.301   2.257  16.406 -1.0093 -1.0314 -0.3737
 3438TIP3    H131805   1.293   2.193  16.477 -1.5397 -1.0577 -0.4519
 3438TIP3    H231806   1.355   2.327  16.443 -1.4977 -0.9225  0.1494
 3439TIP3   OH231807   1.315   6.343   1.552 -0.1102 -0.3169 -0.3127
 3439TIP3    H131808   1.324   6.347   1.647  2.4653  1.2519 -0.5049
 3439TIP3    H231809   1.333   6.432   1.522  1.6157 -1.2269 -2.3391
 3440TIP3   OH231810   6.606   2.836   0.712  0.5072  0.6244 -0.1997
 3440TIP3    H131811   6.633   2.883   0.632  0.9158 -1.7880 -1.5670
 3440TIP3    H231812   6.518   2.868   0.730 -0.2292  0.1175 -2.5704
 3441TIP3   OH231813   1.980   5.544  14.056 -0.2809 -0.2618 -0.2857
 3441TIP3    H131814   1.992   5.540  13.961 -0.3256  0.1368 -0.3084
 3441TIP3    H231815   2.065   5.573  14.089  0.1722 -1.7363 -0.0835
 3442TIP3   OH231816   0.236   3.945  14.582  0.2937  0.2109 -0.2558
 3442TIP3    H131817   0.263   3.882  14.650  2.2174 -2.3384 -3.0688
 3442TIP3    H231818   0.293   4.020  14.596  0.0249  0.1484  1.4448
 3443TIP3   OH231819   2.723   4.326   4.205  0.1204 -0.0144  0.0030
 3443TIP3    H131820   2.767   4.394   4.255 -1.4524  0.2284  1.1223
 3443TIP3    H231821   2.762   4.244   4.237 -0.3755  0.1804  1.1482
 3444TIP3   OH231822   3.600   5.388  10.751 -0.7332  0.3329  0.2637
 3444TIP3    H131823   3.569   5.314  10.698  1.8352 -0.4632 -0.2931
 3444TIP3    H231824   3.616   5.458  10.687 -0.5283  0.4224  0.4112
 3445TIP3   OH231825   4.671   3.035   1.437  0.0324  0.2158 -0.1328
 3445TIP3    H131826   4.629   3.112   1.401  0.4802  0.0635 -1.0232
 3445TIP3    H231827   4.765   3.050   1.423  0.1159 -0.5415 -0.4462
 3446TIP3   OH231828   0.403   5.727  17.068 -0.3905  0.1439 -0.0271
 3446TIP3    H131829   0.456   5.720  17.148 -0.1685 -0.2974 -0.2100
 3446TIP3    H231830   0.366   5.815  17.071  2.8155  1.6845 -1.4440
 3447TIP3   OH231831   2.674   6.062   3.631  0.2217  0.5991  0.1048
 3447TIP3    H131832   2.762   6.074   3.666  0.0605  0.2277  0.6450
 3447TIP3    H231833   2.621   6.125   3.680 -0.0917 -0.2520  0.8856
 3448TIP3   OH231834   2.395   4.426  15.923 -0.0888  0.4466  0.2769
 3448TIP3    H131835   2.367   4.399  15.836 -0.1836 -0.8061  0.6826
 3448TIP3    H231836   2.474   4.478  15.907  0.4234 -0.5406 -0.4981
 3449TIP3   OH231837   3.365   2.240  13.793  0.4650  0.0363 -0.0610
 3449TIP3    H131838   3.356   2.181  13.868  0.2302  0.5016  0.2859
 3449TIP3    H231839   3.337   2.325  13.826 -0.3630  0.1015 -0.8848
 3450TIP3   OH231840   1.698   1.536   5.726  0.1553 -0.5266  0.1339
 3450TIP3    H131841   1.713   1.489   5.808 -0.8273 -0.2814  0.4742
 3450TIP3    H231842   1.679   1.626   5.753  1.8306  0.0649 -0.4959
 3451TIP3   OH231843   3.794   6.596   4.116 -0.0788 -0.2972  0.0846
 3451TIP3    H131844   3.859   6.529   4.136  0.2569  0.1342  0.4782
 3451TIP3    H231845   3.729   6.589   4.186 -0.2696 -0.4945 -0.1119
 3452TIP3   OH231846   3.013   2.650  11.409 -0.0024  0.1405 -0.0467
 3452TIP3    H131847   2.920   2.633  11.393  0.1557  0.5107 -1.4706
 3452TIP3    H231848   3.025   2.632  11.502 -1.4013 -0.3582  0.0563
 3453TIP3   OH231849   1.494   0.884   1.292 -0.1053 -0.3254 -0.0226
 3453TIP3    H131850   1.466   0.929   1.212 -1.2795  2.1642  1.6499
 3453TIP3    H231851   1.417   0.835   1.319 -0.3981  0.4369  0.5782
 3454TIP3   OH231852   6.020   4.942   4.641 -0.7661 -0.0297  0.5349
 3454TIP3    H131853   6.068   4.999   4.580 -0.4569 -0.6855  0.1533
 3454TIP3    H231854   5.951   4.998   4.677 -0.7357  0.4682 -0.1559
 3455TIP3   OH231855   5.169   2.118   0.746 -0.2348  0.4444 -0.4180
 3455TIP3    H131856   5.079   2.151   0.747 -1.3557 -2.2968 -0.4740
 3455TIP3    H231857   5.167   2.048   0.681  2.0955  0.6006 -0.7211
 3456TIP3   OH231858   0.514   4.368  12.543  0.0956  0.7252  0.3385
 3456TIP3    H131859   0.602   4.332  12.537  0.7168  2.3106 -0.6163
 3456TIP3    H231860   0.479   4.333  12.625  0.7705 -1.6935 -0.3215
 3457TIP3   OH231861   2.995   2.095  13.770  0.1976 -0.7621 -0.1351
 3457TIP3    H131862   2.923   2.038  13.743  0.0604 -1.9713  2.4523
 3457TIP3    H231863   3.073   2.054  13.732 -0.3855  0.7957 -3.3133
 3458TIP3   OH231864   0.187   3.000  16.547 -0.0013 -0.5179  0.2922
 3458TIP3    H131865   0.281   3.006  16.526  0.2066  1.7528  1.5209
 3458TIP3    H231866   0.184   3.003  16.643 -1.3786  1.6590  0.2424
 3459TIP3   OH231867   3.411   2.356   1.136 -0.1250  0.6218 -0.2504
 3459TIP3    H131868   3.324   2.344   1.175  1.0108 -1.3895  1.9012
 3459TIP3    H231869   3.470   2.310   1.195  2.4434  1.9440 -1.6427
 3460TIP3   OH231870   1.439   2.434   2.637 -0.0030 -0.2934  0.4500
 3460TIP3    H131871   1.507   2.488   2.678  0.1136 -0.2355  0.1831
 3460TIP3    H231872   1.357   2.472   2.668  0.0713  0.2975 -0.0517
 3461TIP3   OH231873   2.980   3.612  14.464  0.4943  0.3480 -0.1172
 3461TIP3    H131874   2.942   3.691  14.500  0.7034  0.4996 -0.2240
 3461TIP3    H231875   2.906   3.564  14.427  0.5193  1.0939 -1.1812
 3462TIP3   OH231876   3.524   3.214  17.145 -0.0595 -0.2178 -0.0656
 3462TIP3    H131877   3.573   3.198  17.226  0.2178  0.5396 -0.0782
 3462TIP3    H231878   3.440   3.169  17.158  0.0344 -0.2052  0.5853
 3463TIP3   OH231879   5.208   5.603   0.219 -0.3051 -0.6420  0.5756
 3463TIP3    H131880   5.180   5.687   0.182  1.6716 -0.2003 -0.0309
 3463TIP3    H231881   5.203   5.542   0.145 -0.1654 -0.6897  0.6067
 3464TIP3   OH231882   3.269   2.549  16.718 -0.1489  0.7303  0.0258
 3464TIP3    H131883   3.318   2.619  16.759 -0.2289 -0.9396  3.3133
 3464TIP3    H231884   3.336   2.488  16.685  0.0515 -0.0486  1.7598
 3465TIP3   OH231885   4.694   4.860   5.148  0.1529  1.0125 -0.3219
 3465TIP3    H131886   4.676   4.875   5.055 -1.1962 -0.3295 -0.3099
 3465TIP3    H231887   4.699   4.765   5.156 -1.9523  0.9999  1.3455
 3466TIP3   OH231888   2.169   3.540  10.326 -0.3592  0.3676 -0.1551
 3466TIP3    H131889   2.211   3.616  10.286 -0.0660 -0.1952 -0.9196
 3466TIP3    H231890   2.201   3.541  10.417  0.6808  0.3962 -0.5178
 3467TIP3   OH231891   1.468   0.124   6.467  0.3810  0.0155 -0.1231
 3467TIP3    H131892   1.469   0.215   6.438  0.0183  0.7160  1.8548
 3467TIP3    H231893   1.421   0.127   6.551  1.3340 -1.8081  0.5219
 3468TIP3   OH231894   4.976   5.947  15.933  0.1568 -0.2237 -0.5439
 3468TIP3    H131895   5.030   5.878  15.894 -1.0012 -2.3914  1.4324
 3468TIP3    H231896   5.038   6.003  15.980  1.0134 -0.6430 -1.1510
 3469TIP3   OH231897   0.772   6.392   5.440  0.0946  0.2883 -0.2815
 3469TIP3    H131898   0.681   6.400   5.412  0.3272 -1.2844 -1.6612
 3469TIP3    H231899   0.796   6.479   5.471 -2.5413  0.2530  2.3188
 3470TIP3   OH231900   2.750   5.557   6.381 -0.0539  0.1871 -0.0472
 3470TIP3    H131901   2.672   5.505   6.395  0.0540  0.1794  0.5356
 3470TIP3    H231902   2.718   5.640   6.344  0.0068 -1.5963 -4.8513
 3471TIP3   OH231903   0.209   0.479   2.029  0.2137 -0.1677  0.7521
 3471TIP3    H131904   0.142   0.493   2.096  1.5282  0.5157  1.9944
 3471TIP3    H231905   0.191   0.546   1.963 -0.5264 -0.2236  0.8876
 3472TIP3   OH231906   1.830   5.032   4.301  0.8247 -0.4436 -0.8207
 3472TIP3    H131907   1.776   5.095   4.348 -1.9092 -2.6646 -0.6621
 3472TIP3    H231908   1.883   4.990   4.368  0.2955 -0.4641 -0.4065
 3473TIP3   OH231909   3.755   1.391  15.539 -0.3516 -0.0299 -0.0691
 3473TIP3    H131910   3.739   1.449  15.464  0.2347  0.2784  0.0359
 3473TIP3    H231911   3.707   1.311  15.517  2.6424 -1.3603 -2.5325
 3474TIP3   OH231912   0.717   5.426  14.703 -0.0664  0.3950  0.6098
 3474TIP3    H131913   0.678   5.510  14.726 -0.5510  0.0186  1.1912
 3474TIP3    H231914   0.658   5.360  14.741  2.0363 -0.1835  3.1782
 3475TIP3   OH231915   5.353   0.756   4.215 -0.0984 -0.3721  0.3046
 3475TIP3    H131916   5.377   0.705   4.292  1.2264 -0.0616  0.1306
 3475TIP3    H231917   5.396   0.711   4.142 -1.5318 -0.8014 -0.2989
 3476TIP3   OH231918   2.254   0.095   0.004  0.5871 -0.7102 -0.3494
 3476TIP3    H131919   2.227   0.045  -0.073  1.7396 -1.2287 -0.4424
 3476TIP3    H231920   2.173   0.115   0.049 -0.0952 -0.5573 -1.6032
 3477TIP3   OH231921   0.212   3.044  11.897  0.4410  0.3858  0.0318
 3477TIP3    H131922   0.271   3.117  11.878  1.5802 -0.8547 -1.4307
 3477TIP3    H231923   0.267   2.977  11.936 -0.1088 -0.5381 -0.7222
 3478TIP3   OH231924   1.549   4.190  11.238  0.7830 -0.2050 -0.7315
 3478TIP3    H131925   1.516   4.278  11.259 -0.0537 -0.8359  0.6844
 3478TIP3    H231926   1.472   4.141  11.212  1.0978 -0.8223 -0.5102
 3479TIP3   OH231927   0.516   6.721  11.725 -0.0616  0.5339 -0.3310
 3479TIP3    H131928   0.558   6.761  11.649  1.1638 -0.3258 -0.1384
 3479TIP3    H231929   0.423   6.718  11.702  0.1422  1.2816 -1.3269
 3480TIP3   OH231930   1.764   2.415   1.324 -0.0998  0.7849 -0.7601
 3480TIP3    H131931   1.699   2.363   1.276 -1.6214 -0.0121  1.9555
 3480TIP3    H231932   1.731   2.505   1.319 -0.1363  0.7437 -1.3387
 3481TIP3   OH231933   3.521   3.597  10.855  0.2619  0.3055  0.2550
 3481TIP3    H131934   3.532   3.599  10.760 -2.3594 -1.0288 -0.1515
 3481TIP3    H231935   3.610   3.585  10.889  1.0263 -1.6742 -2.1383
 3482TIP3   OH231936   1.377   1.295  13.200 -0.7152 -0.2196  0.1705
 3482TIP3    H131937   1.426   1.272  13.278 -1.3513 -0.3505  0.5398
 3482TIP3    H231938   1.443   1.326  13.138 -0.2561  0.2753  0.8973
 3483TIP3   OH231939   2.688   5.479   2.688  0.2398  0.1594 -0.1588
 3483TIP3    H131940   2.763   5.423   2.707 -1.1951 -1.7485  0.1488
 3483TIP3    H231941   2.659   5.510   2.775  1.2038  1.7217 -0.3422
 3484TIP3   OH231942   0.064   0.936   5.503  0.1995  0.4107  0.3266
 3484TIP3    H131943   0.063   0.841   5.493  0.5985  0.5150 -0.8607
 3484TIP3    H231944  -0.018   0.956   5.549  0.7684 -0.6099  1.8716
 3485TIP3   OH231945   2.484   0.070  11.187  0.5449  0.2884  0.1276
 3485TIP3    H131946   2.556   0.015  11.219  2.0447  2.3696  0.5248
 3485TIP3    H231947   2.486   0.058  11.092  0.7446 -0.4466  0.2185
 3486TIP3   OH231948   6.555   0.371  11.610 -0.6282  0.3083 -0.0218
 3486TIP3    H131949   6.527   0.451  11.656 -1.6380  0.5307 -0.9841
 3486TIP3    H231950   6.628   0.338  11.662 -0.8525  1.3047  0.9650
 3487TIP3   OH231951   0.492   3.155  14.879 -0.0579  0.3834 -0.0288
 3487TIP3    H131952   0.543   3.183  14.803  2.1744  0.3011  1.3553
 3487TIP3    H231953   0.545   3.086  14.919 -2.3015 -1.2324  0.3571
 3488TIP3   OH231954   5.503   6.647  13.939  0.1043 -0.2957 -0.4396
 3488TIP3    H131955   5.429   6.696  13.975  1.2023 -0.6740  2.6055
 3488TIP3    H231956   5.568   6.713  13.917 -0.1009 -0.1182 -0.5055
 3489TIP3   OH231957   4.357   4.598  16.560 -0.1556  0.1726  0.5088
 3489TIP3    H131958   4.432   4.563  16.606 -0.3714 -1.2897 -0.2078
 3489TIP3    H231959   4.281   4.560  16.603 -0.4836  1.2653  0.9272
 3490TIP3   OH231960   0.894   6.684  13.117 -0.5838  1.1169 -0.0294
 3490TIP3    H131961   0.820   6.734  13.084 -2.5806  1.1890  3.8826
 3490TIP3    H231962   0.968   6.744  13.114 -1.0745  1.6827 -2.2952
 3491TIP3   OH231963   3.658   4.484  15.879 -0.1600  0.6116 -0.1336
 3491TIP3    H131964   3.731   4.546  15.882  0.3049  0.0609  0.2945
 3491TIP3    H231965   3.692   4.408  15.832 -0.6164  0.5408 -0.3562
 3492TIP3   OH231966   2.237   0.986  13.882  0.4895  0.6289  0.1640
 3492TIP3    H131967   2.147   0.953  13.875  0.1194  1.5385  0.4723
 3492TIP3    H231968   2.250   1.038  13.803  1.0922 -0.2993 -0.3526
 3493TIP3   OH231969   3.129   6.621  10.845 -0.6099 -0.0292  0.4491
 3493TIP3    H131970   3.087   6.693  10.890 -0.5172  1.1669 -1.2778
 3493TIP3    H231971   3.223   6.639  10.852 -0.5343 -0.5625  0.9077
 3494TIP3   OH231972   4.079   6.504  13.676  0.0214  0.6428 -0.3065
 3494TIP3    H131973   4.029   6.514  13.595 -0.2107  1.7456 -0.0424
 3494TIP3    H231974   4.119   6.591  13.690 -0.5608  0.6919  1.1622
 3495TIP3   OH231975   5.269   1.852   5.872  0.3934  0.2921  0.5743
 3495TIP3    H131976   5.302   1.892   5.791 -2.4229 -0.0371 -0.9035
 3495TIP3    H231977   5.329   1.882   5.940  2.6349  0.9905 -1.5427
 3496TIP3   OH231978   1.410   0.002  13.306 -0.1228  0.1146 -0.0851
 3496TIP3    H131979   1.470   0.000  13.233  0.0252  2.8069 -0.1261
 3496TIP3    H231980   1.327   0.033  13.269 -0.1136  1.2698  0.7776
 3497TIP3   OH231981   2.717   4.720   0.610 -0.2199 -0.1335 -0.1194
 3497TIP3    H131982   2.777   4.685   0.544 -0.0791 -1.2697  0.5790
 3497TIP3    H231983   2.761   4.799   0.642  2.0575 -2.0175  1.8701
 3498TIP3   OH231984   0.452   5.988   1.318  0.1152 -0.2539 -0.2822
 3498TIP3    H131985   0.493   6.059   1.369  0.8150  0.2137 -1.4633
 3498TIP3    H231986   0.450   6.021   1.228  0.3813 -1.7061 -0.8485
 3499TIP3   OH231987   0.168   1.313  13.258  0.2384  1.1820 -0.3357
 3499TIP3    H131988   0.161   1.234  13.311  0.2576  0.9387 -0.6938
 3499TIP3    H231989   0.080   1.327  13.223  0.3334  1.0724 -0.6215
 3500TIP3   OH231990   0.190   3.176   5.545 -0.3706  0.1239  0.8282
 3500TIP3    H131991   0.113   3.231   5.559 -0.2945  0.1740  1.0493
 3500TIP3    H231992   0.237   3.217   5.473 -0.2776  0.3899  1.0393
 3501TIP3   OH231993   1.363   1.415  10.917  0.1987 -0.2906 -0.2300
 3501TIP3    H131994   1.409   1.341  10.879 -0.6075 -0.1504 -1.5410
 3501TIP3    H231995   1.395   1.491  10.869  0.9293  0.2331  1.0231
 3502TIP3   OH231996   5.409   2.629  13.440  0.1767  0.8139  0.3595
 3502TIP3    H131997   5.391   2.608  13.348  1.8576  3.5240 -0.7362
 3502TIP3    H231998   5.347   2.699  13.461  1.2007  1.7229  0.5032
 3503TIP3   OH231999   0.353   2.091   3.219 -0.1764  0.6282  0.0685
 3503TIP3    H132000   0.360   2.068   3.312 -0.1700 -0.8102 -0.2668
 3503TIP3    H232001   0.326   2.009   3.176 -0.1599  1.2699 -1.2012
 3504TIP3   OH232002   2.206   1.043   6.270  0.0456  0.0417 -0.2690
 3504TIP3    H132003   2.244   0.980   6.209  0.0848 -0.9280  0.7280
 3504TIP3    H232004   2.171   0.989   6.341  0.2301  1.1547  0.6922
 3505TIP3   OH232005   3.554   0.856   3.571 -0.2270 -0.2615 -0.5451
 3505TIP3    H132006   3.566   0.787   3.506 -0.0793 -0.4038 -0.3691
 3505TIP3    H232007   3.642   0.869   3.608 -0.3698 -0.4030 -0.1556
 3506TIP3   OH232008   0.507   5.899  14.133 -0.4453  0.2315 -0.5176
 3506TIP3    H132009   0.557   5.820  14.115  1.6084  1.0628  1.0844
 3506TIP3    H232010   0.516   5.912  14.227  0.4930  3.0996 -0.9041
 3507TIP3   OH232011   6.583   0.735   5.797  0.0320  0.7733 -0.0688
 3507TIP3    H132012   6.498   0.776   5.816 -1.4319 -2.4602  1.0949
 3507TIP3    H232013   6.637   0.758   5.873 -1.0917 -0.1848  1.0791
 3508TIP3   OH232014   4.203   2.576   6.533  0.1368 -0.0629 -0.8287
 3508TIP3    H132015   4.155   2.547   6.456  0.7827  0.0614 -1.2789
 3508TIP3    H232016   4.293   2.584   6.504  0.1601  1.3323 -0.4283
 3509TIP3   OH232017   6.458   1.850  15.094 -0.2887 -0.3726  0.0239
 3509TIP3    H132018   6.404   1.906  15.150  0.1602 -0.8513  0.9535
 3509TIP3    H232019   6.526   1.909  15.061 -0.5766 -0.0789 -0.0509
 3510TIP3   OH232020   4.238   4.868   4.909  0.6807  0.4456 -0.2458
 3510TIP3    H132021   4.142   4.861   4.902  0.6666  0.1081  0.1857
 3510TIP3    H232022   4.271   4.822   4.832  0.4903  1.2547 -0.8258
 3511TIP3   OH232023   4.962   0.732   4.637 -0.3293 -0.1062 -0.1626
 3511TIP3    H132024   5.034   0.763   4.692 -1.4594  0.8549  0.8320
 3511TIP3    H232025   4.950   0.641   4.662  0.3986 -0.2221 -0.1983
 3512TIP3   OH232026   2.560   5.442  16.926 -0.0127 -0.3445 -0.0473
 3512TIP3    H132027   2.574   5.469  16.835  1.3435 -1.7569 -0.3044
 3512TIP3    H232028   2.510   5.361  16.920  0.1084 -0.4641  0.4599
 3513TIP3   OH232029   4.046   0.807   1.495 -0.2505  0.5128  0.2052
 3513TIP3    H132030   3.976   0.753   1.533 -0.2873  1.2996  1.2967
 3513TIP3    H232031   4.114   0.809   1.562  0.8208 -0.1924 -0.8271
 3514TIP3   OH232032   6.635   5.983   3.091  0.5802 -1.0389 -0.4747
 3514TIP3    H132033   6.559   6.005   3.038 -0.2332  0.7099  1.3102
 3514TIP3    H232034   6.684   6.065   3.099 -0.1760 -0.7595  2.6860
 3515TIP3   OH232035   2.832   1.158  17.166 -0.5926 -0.2667  0.2062
 3515TIP3    H132036   2.774   1.233  17.161  1.0814  1.0286 -0.6207
 3515TIP3    H232037   2.852   1.150  17.259  0.0250  0.9719  0.1966
 3516TIP3   OH232038   2.607   3.822  14.389  0.6202  0.0097 -0.3604
 3516TIP3    H132039   2.619   3.763  14.314  1.2885 -1.4287  0.8294
 3516TIP3    H232040   2.695   3.833  14.425  0.0373 -1.3898  1.6884
 3517TIP3   OH232041   5.346   5.011   4.178 -0.3834 -0.0484 -0.8850
 3517TIP3    H132042   5.304   4.998   4.263  0.8703 -1.4033 -0.4203
 3517TIP3    H232043   5.279   5.053   4.124 -1.0827  1.1940  0.8700
 3518TIP3   OH232044   1.597   4.910   2.855  0.4634 -0.2489 -0.8683
 3518TIP3    H132045   1.620   4.871   2.939 -0.1351  1.4016  0.0999
 3518TIP3    H232046   1.553   4.839   2.807 -1.3318 -0.6006  1.1399
 3519TIP3   OH232047   3.317   2.002  16.645  0.3203  0.3148 -0.0591
 3519TIP3    H132048   3.243   1.951  16.610  0.2026  1.0460 -0.9216
 3519TIP3    H232049   3.346   1.953  16.722 -0.6630 -0.3205 -0.0749
 3520TIP3   OH232050   1.275   1.387  15.888 -0.0967  0.3010 -0.1851
 3520TIP3    H132051   1.258   1.397  15.795  0.6064  0.9749 -0.2474
 3520TIP3    H232052   1.213   1.320  15.917  0.5415 -0.8414 -1.3902
 3521TIP3   OH232053   6.585   1.939  12.009 -0.4492 -0.4380  0.1736
 3521TIP3    H132054   6.609   1.895  12.090 -0.5417 -3.3292 -1.2493
 3521TIP3    H232055   6.494   1.967  12.022 -0.4754 -0.9061  1.0382
 3522TIP3   OH232056   2.423   6.024  16.970  0.3793  0.0610 -0.2319
 3522TIP3    H132057   2.384   5.974  16.898 -1.4637  0.8521  0.1504
 3522TIP3    H232058   2.409   6.116  16.946  1.5036  0.3652  0.2302
 3523TIP3   OH232059   4.485   5.511  11.287 -0.3011  0.2827 -0.1315
 3523TIP3    H132060   4.521   5.547  11.368  1.0744  0.0690 -0.6244
 3523TIP3    H232061   4.548   5.534  11.220 -1.3290  0.2860 -1.1319
 3524TIP3   OH232062   2.924   2.767   0.464 -0.2574  0.1996 -0.1077
 3524TIP3    H132063   2.912   2.681   0.503 -2.0204  0.1385 -0.7074
 3524TIP3    H232064   2.955   2.823   0.536  0.4313 -0.8007  0.3911
 3525TIP3   OH232065   0.995   1.269  11.622 -0.2950  0.3693  0.4984
 3525TIP3    H132066   0.914   1.282  11.574  0.3953 -1.9731 -1.5602
 3525TIP3    H232067   0.994   1.176  11.647  1.2547  0.5359  1.3390
 3526TIP3   OH232068   0.711   6.135   1.018 -0.5174  0.4870  0.2141
 3526TIP3    H132069   0.710   6.163   0.927 -0.0297  1.8099  0.5858
 3526TIP3    H232070   0.627   6.164   1.054 -0.2839  0.9152  0.4322
 3527TIP3   OH232071   0.835   6.734   1.162 -0.1217 -0.5663  0.2549
 3527TIP3    H132072   0.747   6.746   1.126 -0.4892 -2.0182  0.6313
 3527TIP3    H232073   0.844   6.804   1.226 -0.7887 -0.0721 -0.1698
 3528TIP3   OH232074   5.302   6.711  14.400 -0.0056  0.0452 -0.5561
 3528TIP3    H132075   5.314   6.763  14.321 -0.0413  0.1076 -0.5213
 3528TIP3    H232076   5.391   6.684  14.425 -0.0164 -0.1721 -0.7495
 3529TIP3   OH232077   3.045   1.300  12.341  0.1718  0.6877  0.1521
 3529TIP3    H132078   3.123   1.296  12.395  0.5055 -2.1138 -0.3831
 3529TIP3    H232079   2.973   1.309  12.404  0.6795 -0.6977  0.9735
 3530TIP3   OH232080   1.068   5.951  16.732  0.4490  0.1086  0.1088
 3530TIP3    H132081   1.005   5.880  16.745 -0.0985  0.5202 -0.2586
 3530TIP3    H232082   1.115   5.927  16.652  0.0479  0.3108 -0.1916
 3531TIP3   OH232083   5.367   5.725  12.490  0.1212 -0.0534 -0.5934
 3531TIP3    H132084   5.275   5.704  12.479  0.6148 -1.8028 -1.9497
 3531TIP3    H232085   5.369   5.794  12.556 -2.1020 -0.3466 -0.1525
 3532TIP3   OH232086   0.007   6.129  10.538  0.1297  0.4114 -0.1768
 3532TIP3    H132087   0.021   6.086  10.623 -0.2156 -0.8329 -0.7216
 3532TIP3    H232088  -0.075   6.178  10.550 -0.1477 -0.1047  0.0852
 3533TIP3   OH232089   1.925   2.467   3.363  0.0694  0.1637 -0.6492
 3533TIP3    H132090   1.859   2.497   3.301  0.7867  2.1851 -0.5003
 3533TIP3    H232091   1.891   2.492   3.449 -0.0265 -0.8923 -0.3654
 3534TIP3   OH232092   5.488   6.791   1.899 -0.7893  0.5766 -0.2831
 3534TIP3    H132093   5.549   6.863   1.884 -2.1683  1.4590 -1.9077
 3534TIP3    H232094   5.455   6.806   1.988  1.9669 -0.4717  1.0433
 3535TIP3   OH232095   2.081   0.871  12.236  0.5576  0.1907 -0.3024
 3535TIP3    H132096   2.069   0.966  12.236  2.1728  0.4356 -1.4275
 3535TIP3    H232097   2.007   0.837  12.185  1.4806  1.1330 -2.3683
 3536TIP3   OH232098   5.062   4.994  11.486 -0.0266 -0.2130 -0.4417
 3536TIP3    H132099   5.146   5.017  11.448 -0.4108  0.7068 -0.7593
 3536TIP3    H232100   5.013   5.077  11.489 -0.0020 -0.1892  2.0871
 3537TIP3   OH232101   1.919   0.998  12.581  0.0596 -0.3072 -0.2395
 3537TIP3    H132102   1.826   1.009  12.602  0.5537 -0.8846  2.6267
 3537TIP3    H232103   1.931   1.048  12.500 -2.1305  2.4070  0.9306
 3538TIP3   OH232104   5.483   1.047   2.876  0.6116  0.0035  0.2141
 3538TIP3    H132105   5.400   1.060   2.831 -0.0202  1.1383  1.6148
 3538TIP3    H232106   5.549   1.056   2.808 -0.3931 -0.9397 -0.9291
 3539TIP3   OH232107   1.856   0.834   6.357 -0.1670  0.3333  0.2751
 3539TIP3    H132108   1.862   0.924   6.387  0.2411  0.5776 -0.5116
 3539TIP3    H232109   1.940   0.795   6.382  0.2419  0.5840 -0.6674
 3540TIP3   OH232110   0.329   1.103  12.325  0.1716  0.0258  0.1784
 3540TIP3    H132111   0.310   1.149  12.407 -0.6530  0.0860 -0.0295
 3540TIP3    H232112   0.401   1.043  12.347  1.8951  2.0120  0.2341
 3541TIP3   OH232113   5.334   2.101   4.064 -0.4246 -0.4365  0.2102
 3541TIP3    H132114   5.421   2.135   4.040 -0.0763 -2.3193 -1.5347
 3541TIP3    H232115   5.323   2.126   4.155  1.0952  1.5437 -0.0686
 3542TIP3   OH232116   2.673   1.192  15.367 -0.0971 -0.5959  0.2842
 3542TIP3    H132117   2.739   1.260  15.380 -0.2982 -0.4112  0.3306
 3542TIP3    H232118   2.604   1.213  15.430 -0.2290 -0.7541  0.1912
 3543TIP3   OH232119   0.250   5.873   6.362  0.1587 -0.3734  0.1849
 3543TIP3    H132120   0.304   5.932   6.309  0.8007 -0.5447  0.6268
 3543TIP3    H232121   0.314   5.824   6.414 -0.3656 -1.4834 -0.2076
 3544TIP3   OH232122   2.690   4.359   2.475  0.1992 -0.0937  0.3281
 3544TIP3    H132123   2.610   4.393   2.434  0.9722  0.7011 -0.5728
 3544TIP3    H232124   2.723   4.433   2.527  1.6059  0.4404 -1.2183
 3545TIP3   OH232125   0.462   4.875  13.219 -0.1858  0.2141 -0.0544
 3545TIP3    H132126   0.514   4.882  13.139 -0.7499 -0.2250 -0.4726
 3545TIP3    H232127   0.445   4.781  13.229 -0.0544  0.2532  0.6295
 3546TIP3   OH232128   2.323   6.463   0.972  0.1516 -0.4922  0.3440
 3546TIP3    H132129   2.280   6.386   1.008 -0.5307 -0.3983 -0.2577
 3546TIP3    H232130   2.308   6.532   1.037 -0.0047 -0.6379  0.4618
 3547TIP3   OH232131   1.689   1.200  17.075  0.1727 -0.0533  0.1440
 3547TIP3    H132132   1.659   1.262  17.009 -1.0668  0.3742  1.0565
 3547TIP3    H232133   1.654   1.234  17.158 -0.8688 -2.1345  0.6298
 3548TIP3   OH232134   6.244   0.171   2.958  0.0471  0.0158  0.5042
 3548TIP3    H132135   6.242   0.078   2.980 -2.4507  0.0661  0.7459
 3548TIP3    H232136   6.221   0.215   3.040 -1.7735  0.6442 -0.3089
 3549TIP3   OH232137   5.627   3.468   3.835  0.4521 -0.6436 -0.0280
 3549TIP3    H132138   5.562   3.398   3.831 -0.2506 -0.0576  0.6620
 3549TIP3    H232139   5.575   3.548   3.842  1.2451 -0.1513  0.3610
 3550TIP3   OH232140   4.780   5.020  15.093  0.0474 -0.0927 -0.6712
 3550TIP3    H132141   4.772   5.113  15.114  0.4892  0.1310 -1.4217
 3550TIP3    H232142   4.715   4.977  15.147  0.1338  0.6081  0.0055
 3551TIP3   OH232143   4.129   0.539  11.970  0.0896 -0.6089 -0.9668
 3551TIP3    H132144   4.055   0.496  11.927 -0.8866  0.2975 -0.2509
 3551TIP3    H232145   4.134   0.499  12.056 -1.5735  1.3918  0.1582
 3552TIP3   OH232146   5.557   3.198  16.546  0.0219  0.2039  0.4118
 3552TIP3    H132147   5.547   3.244  16.630 -2.0191  1.7131 -0.5528
 3552TIP3    H232148   5.562   3.268  16.481  0.0129 -0.9361 -0.8603
 3553TIP3   OH232149   1.119   6.337  15.055  0.2377 -0.3850 -0.1109
 3553TIP3    H132150   1.074   6.339  14.971 -0.7268  1.2405  0.4157
 3553TIP3    H232151   1.079   6.263  15.102 -0.1106 -0.5040 -0.5919
 3554TIP3   OH232152   2.797   1.921  13.650 -0.0122  0.3204 -0.2342
 3554TIP3    H132153   2.720   1.866  13.637 -0.4150  0.9447 -0.5495
 3554TIP3    H232154   2.871   1.864  13.631 -0.4010 -0.2167 -0.1738
 3555TIP3   OH232155   4.453   4.566   0.905  0.2187  0.8455 -0.3412
 3555TIP3    H132156   4.520   4.536   0.843  0.1526  0.5491 -0.2710
 3555TIP3    H232157   4.393   4.618   0.851 -1.0076 -1.1352 -0.9845
 3556TIP3   OH232158   5.536   1.587   1.563  0.1748  0.2134 -0.0447
 3556TIP3    H132159   5.580   1.617   1.643  2.1209  1.6847 -1.5587
 3556TIP3    H232160   5.448   1.625   1.568  0.7480  1.5041  0.7186
 3557TIP3   OH232161   2.975   6.683   3.113 -0.1916 -0.1021  0.9468
 3557TIP3    H132162   2.936   6.741   3.178 -2.4971  3.4811 -3.1453
 3557TIP3    H232163   3.066   6.713   3.105 -0.9535  2.0869 -0.0471
 3558TIP3   OH232164   4.922   1.139  11.646 -0.1377  0.3769  0.2962
 3558TIP3    H132165   4.949   1.048  11.637 -3.5051 -0.7637  0.2389
 3558TIP3    H232166   5.003   1.189  11.644  1.6868 -2.4091 -2.1239
 3559TIP3   OH232167   2.298   3.109   1.652  0.0405  0.1734 -0.6102
 3559TIP3    H132168   2.371   3.066   1.606  0.3274  0.5244 -0.4856
 3559TIP3    H232169   2.251   3.037   1.693  0.5021 -0.0343 -0.4315
 3560TIP3   OH232170   6.073   0.965  15.599 -0.4389  0.4588 -0.7727
 3560TIP3    H132171   6.130   0.932  15.530 -0.2953  1.1047 -0.9737
 3560TIP3    H232172   6.094   1.059  15.604 -0.2269  0.3713  0.3426
 3561TIP3   OH232173   1.239   4.928  17.125  0.3247  0.0080 -0.3553
 3561TIP3    H132174   1.326   4.915  17.086  0.7434  0.4983  0.3892
 3561TIP3    H232175   1.256   4.937  17.219 -0.5848 -0.3456 -0.1435
 3562TIP3   OH232176   1.060   4.653   5.792 -0.0745 -0.0516 -0.3707
 3562TIP3    H132177   1.069   4.607   5.709  1.8519  2.5878 -1.7722
 3562TIP3    H232178   1.146   4.690   5.808 -1.0972  1.7511  1.4267
 3563TIP3   OH232179   3.481   6.519   5.275 -0.6068 -0.1281 -0.0025
 3563TIP3    H132180   3.496   6.425   5.278  0.0508 -0.1268 -1.7280
 3563TIP3    H232181   3.435   6.533   5.192 -0.6787  1.0704  0.2216
 3564TIP3   OH232182   0.370   0.220   0.889 -0.0559 -0.1921  0.1515
 3564TIP3    H132183   0.382   0.295   0.947 -0.1285 -1.6975  2.2604
 3564TIP3    H232184   0.337   0.257   0.807 -0.8410  1.9783  1.3736
 3565TIP3   OH232185   0.411   4.726  14.550 -0.6505  0.5852  0.0628
 3565TIP3    H132186   0.365   4.643  14.534  0.1012  0.1694  0.0288
 3565TIP3    H232187   0.344   4.793  14.534 -0.4232  0.1660 -3.3138
 3566TIP3   OH232188   5.448   5.195  12.535  0.1318  0.3987 -0.0469
 3566TIP3    H132189   5.406   5.145  12.605 -1.0491  0.6870 -0.5136
 3566TIP3    H232190   5.531   5.225  12.573 -0.0867 -0.1753  0.9226
 3567TIP3   OH232191   1.283   1.942  15.707 -0.1360 -0.5714  0.1192
 3567TIP3    H132192   1.322   1.867  15.660 -0.7395 -1.8071  1.5133
 3567TIP3    H232193   1.350   2.010  15.703  0.9535 -1.6215 -0.0977
 3568TIP3   OH232194   6.596   6.499   0.855  0.5674 -0.0400  0.1925
 3568TIP3    H132195   6.668   6.499   0.792 -0.0829  0.8341 -0.5829
 3568TIP3    H232196   6.533   6.436   0.819  1.0957 -1.1022  1.0768
 3569TIP3   OH232197   3.830   0.914   5.796 -0.0446  1.0019  0.5470
 3569TIP3    H132198   3.919   0.931   5.826 -0.1452 -0.7136  1.9735
 3569TIP3    H232199   3.776   0.972   5.850  0.1207  1.3038  0.3929
 3570TIP3   OH232200   6.576   1.021   5.898 -0.2076  0.7343 -0.6474
 3570TIP3    H132201   6.506   0.972   5.854  0.4639 -0.9467  0.0849
 3570TIP3    H232202   6.621   0.956   5.951  0.6679  2.1983  0.4658
 3571TIP3   OH232203   6.653   3.381  11.811 -0.3190 -0.2706 -0.3648
 3571TIP3    H132204   6.728   3.321  11.808 -1.0594 -1.1967 -0.6003
 3571TIP3    H232205   6.613   3.364  11.896  0.2816  0.9267  0.1872
 3572TIP3   OH232206   2.026   2.342   4.324  0.2364 -0.2453 -0.9413
 3572TIP3    H132207   2.101   2.328   4.267  1.3908  0.3095  0.3820
 3572TIP3    H232208   2.063   2.348   4.412 -1.4774 -1.0561 -0.1123
 3573TIP3   OH232209   6.222   3.005   3.128 -0.9052 -0.2930  0.0968
 3573TIP3    H132210   6.228   3.057   3.208 -0.3491  0.1310 -0.2138
 3573TIP3    H232211   6.307   2.961   3.122  0.9230  3.0595 -2.5191
 3574TIP3   OH232212   0.012   3.539   5.574 -0.1561  0.4788 -0.1591
 3574TIP3    H132213  -0.014   3.630   5.587  0.4170  0.3238  2.7200
 3574TIP3    H232214   0.053   3.513   5.657  2.8622 -1.3808 -2.0360
 3575TIP3   OH232215   3.444   5.870   0.054  0.5564 -0.1994 -0.3317
 3575TIP3    H132216   3.443   5.799   0.119 -1.2201  0.4429  0.3841
 3575TIP3    H232217   3.525   5.917   0.072  0.8030 -0.8915  0.4580
 3576TIP3   OH232218   2.621   3.745   4.899 -0.2490  0.3145  0.0424
 3576TIP3    H132219   2.535   3.719   4.866  0.3126  0.3097 -1.5097
 3576TIP3    H232220   2.606   3.832   4.938 -1.3569 -0.5874  1.7869
 3577TIP3   OH232221   6.561   0.762  15.173  0.0368  0.0487  0.3022
 3577TIP3    H132222   6.581   0.683  15.222 -0.4071  0.3623  1.0025
 3577TIP3    H232223   6.465   0.762  15.166 -0.0412  0.9861  1.1164
 3578TIP3   OH232224   6.402   1.122  12.220 -0.0081  0.6245 -0.1377
 3578TIP3    H132225   6.357   1.151  12.300 -0.5037  0.1240 -0.2326
 3578TIP3    H232226   6.483   1.082  12.252 -0.0067  0.8030  0.0870
 3579TIP3   OH232227   2.043   3.613   4.271 -0.0600 -0.1745  0.1409
 3579TIP3    H132228   2.073   3.680   4.333 -0.2221  0.4773 -0.4750
 3579TIP3    H232229   2.050   3.655   4.185 -0.9458 -0.6582 -0.1801
 3580TIP3   OH232230   0.781   2.335   3.642  0.1386  0.3328  0.3634
 3580TIP3    H132231   0.772   2.281   3.563  0.2426 -0.9786  1.2210
 3580TIP3    H232232   0.784   2.272   3.714  2.4842  1.3416  1.2496
 3581TIP3   OH232233   3.821   5.520   3.418 -0.9627  0.4717  0.3066
 3581TIP3    H132234   3.775   5.446   3.458 -0.0493  1.1461  2.8332
 3581TIP3    H232235   3.753   5.568   3.371 -1.6642 -1.6334 -0.9497
 3582TIP3   OH232236   2.106   2.057  15.919 -0.0764  0.6324  0.1301
 3582TIP3    H132237   2.158   2.009  15.983 -0.5326  0.0032  0.0312
 3582TIP3    H232238   2.016   2.049  15.950  0.0394  3.8029  1.6970
 3583TIP3   OH232239   6.782   5.614   1.438  0.0943 -0.2649  0.1989
 3583TIP3    H132240   6.772   5.624   1.343 -1.3839  0.2591  0.3822
 3583TIP3    H232241   6.834   5.690   1.465  3.7154 -2.2626 -0.6027
 3584TIP3   OH232242   6.502   3.188  10.997  0.2885  0.4470 -0.0062
 3584TIP3    H132243   6.505   3.187  10.901  1.7238 -0.7754  0.0272
 3584TIP3    H232244   6.425   3.241  11.017 -0.2225  0.4737 -1.8322
 3585TIP3   OH232245   2.011   0.111   4.277  0.0362 -0.3665 -0.1280
 3585TIP3    H132246   1.927   0.068   4.264 -0.0795  0.4108 -2.3073
 3585TIP3    H232247   2.036   0.144   4.190  1.9797  0.5416  0.6962
 3586TIP3   OH232248   2.379   2.803   1.535 -0.1035 -0.2073 -0.3941
 3586TIP3    H132249   2.286   2.818   1.546  0.0199 -0.1732  0.6777
 3586TIP3    H232250   2.396   2.718   1.577  0.4135 -0.0136 -0.1937
 3587TIP3   OH232251   1.066   6.311   6.211  0.4382  0.5654 -0.5586
 3587TIP3    H132252   1.008   6.381   6.183 -0.4059  1.1560  2.3652
 3587TIP3    H232253   1.139   6.356   6.254  0.8868 -0.2924 -0.3964
 3588TIP3   OH232254   5.644   5.180  16.658  0.5628  0.5658 -0.4071
 3588TIP3    H132255   5.662   5.195  16.751  0.8830  2.1559 -0.6907
 3588TIP3    H232256   5.725   5.144  16.624  0.1418 -0.9141  0.0898
 3589TIP3   OH232257   2.571   2.370  12.434 -0.3884 -0.4973 -0.6118
 3589TIP3    H132258   2.544   2.448  12.385  1.3313  1.1903  0.9531
 3589TIP3    H232259   2.667   2.372  12.430 -0.1679 -0.3507  2.6252
 3590TIP3   OH232260   1.234   1.166  16.637  0.0798  0.3511 -0.3496
 3590TIP3    H132261   1.152   1.121  16.615  0.3488  0.4339 -1.5399
 3590TIP3    H232262   1.246   1.147  16.730 -0.5128 -0.9142 -0.5014
 3591TIP3   OH232263   0.790   6.049  14.876 -0.0358 -0.3060 -0.4454
 3591TIP3    H132264   0.818   5.960  14.856 -0.9620 -0.5012 -0.9175
 3591TIP3    H232265   0.760   6.045  14.966 -2.4092 -1.0866 -1.2055
 3592TIP3   OH232266   4.224   5.818  16.840  0.5622  0.8609 -0.1477
 3592TIP3    H132267   4.186   5.734  16.815  0.3253  1.1146 -0.6524
 3592TIP3    H232268   4.269   5.800  16.923 -0.4342  0.4992  0.3349
 3593TIP3   OH232269   1.732   4.403  10.963  0.0963 -0.3208  0.2921
 3593TIP3    H132270   1.685   4.325  10.993  0.5936 -0.3515  1.0456
 3593TIP3    H232271   1.708   4.413  10.871 -2.0783  0.1984  0.8741
 3594TIP3   OH232272   0.044   1.409   4.825  0.4462 -0.0977  0.3389
 3594TIP3    H132273   0.110   1.355   4.781 -0.6885 -1.1703 -0.1337
 3594TIP3    H232274   0.038   1.488   4.772  1.1629 -0.1012  0.2415
 3595TIP3   OH232275   0.200   2.668   5.724  0.4402  0.2235  0.4723
 3595TIP3    H132276   0.145   2.745   5.707  0.2289  0.0079  0.1458
 3595TIP3    H232277   0.137   2.597   5.740  0.6285  0.0730  0.5486
 3596TIP3   OH232278   3.350   0.599  14.115 -0.2524  0.9008 -0.4022
 3596TIP3    H132279   3.390   0.607  14.202 -0.6045  1.4385 -0.2857
 3596TIP3    H232280   3.334   0.505  14.105  0.4336  0.7554 -0.1779
 3597TIP3   OH232281   2.378   3.342  14.349  0.0900  0.1015  0.0797
 3597TIP3    H132282   2.458   3.292  14.367 -0.4929 -0.5260  0.9611
 3597TIP3    H232283   2.308   3.277  14.346 -0.2291  0.4438 -2.2147
 3598TIP3   OH232284   3.829   6.089  16.748  0.1464  0.3215  0.2495
 3598TIP3    H132285   3.738   6.118  16.743  0.8818  2.6014 -1.0962
 3598TIP3    H232286   3.859   6.121  16.833 -0.5420 -1.3684  1.1836
 3599TIP3   OH232287   1.196   4.635  14.918 -0.2149  0.4350  0.1031
 3599TIP3    H132288   1.164   4.589  14.840  0.9856 -1.7741  0.8063
 3599TIP3    H232289   1.117   4.654  14.969 -0.8290 -0.2915 -0.5471
 3600TIP3   OH232290   2.654   2.193   2.469 -0.1501  0.3704  0.8384
 3600TIP3    H132291   2.680   2.283   2.451 -0.8383  0.6535  1.1928
 3600TIP3    H232292   2.567   2.201   2.509 -0.3438 -0.4664  0.6079
 3601TIP3   OH232293   3.778   1.860   1.034 -0.4192  0.0232 -0.3077
 3601TIP3    H132294   3.802   1.941   1.080  0.3935  0.9347 -2.2333
 3601TIP3    H232295   3.820   1.791   1.086 -2.0126  0.6581  1.9793
 3602TIP3   OH232296   6.408   5.503   4.660 -0.3307  0.0016  0.2458
 3602TIP3    H132297   6.362   5.477   4.739  0.1190  0.4463  0.6622
 3602TIP3    H232298   6.477   5.563   4.690 -0.8555  1.0657 -0.5793
 3603TIP3   OH232299   5.124   6.556  11.530  0.0922  0.2459  0.5068
 3603TIP3    H132300   5.216   6.563  11.555  0.3171 -1.7976  0.4140
 3603TIP3    H232301   5.125   6.546  11.435 -0.3926  2.2977  0.2508
 3604TIP3   OH232302   2.084   5.474  15.853  0.0920  0.5968 -0.6467
 3604TIP3    H132303   2.162   5.517  15.821 -0.1670  1.5453 -0.0303
 3604TIP3    H232304   2.094   5.472  15.948  0.4825 -1.4704 -0.6754
 3605TIP3   OH232305   5.307   4.597  12.541 -0.5278  0.3202 -0.5597
 3605TIP3    H132306   5.284   4.669  12.599 -1.6939 -1.0222  0.7077
 3605TIP3    H232307   5.398   4.615  12.516 -0.3080  1.4387  0.9192
 3606TIP3   OH232308   6.423   0.477   3.650 -0.5603  0.0245 -0.4295
 3606TIP3    H132309   6.478   0.432   3.586 -1.0791  1.2577 -1.8056
 3606TIP3    H232310   6.333   0.451   3.627 -0.7865  0.8750 -0.5269
 3607TIP3   OH232311   2.481   4.272  15.490  0.4414 -0.9231 -0.3038
 3607TIP3    H132312   2.556   4.228  15.530  0.8650  0.6351  0.7287
 3607TIP3    H232313   2.468   4.228  15.406  2.2228 -1.5177 -0.2972
 3608TIP3   OH232314   2.282   2.379   2.784 -0.2349 -0.1437 -0.5467
 3608TIP3    H132315   2.292   2.472   2.761  0.7072 -0.0672  0.1380
 3608TIP3    H232316   2.263   2.379   2.878  0.6442 -0.6746 -0.3557
 3609TIP3   OH232317   4.027   2.679  13.969 -0.2276 -0.4350  0.8166
 3609TIP3    H132318   4.121   2.676  13.954  0.2950 -0.2900  3.5475
 3609TIP3    H232319   4.006   2.597  14.013 -0.7604  0.7840  2.9733
 3610TIP3   OH232320   0.278   2.381  10.662  0.2056  0.0463  0.3010
 3610TIP3    H132321   0.221   2.310  10.631 -0.8206  0.0558  1.9862
 3610TIP3    H232322   0.218   2.439  10.709  1.0412  2.0247 -0.9854
 3611TIP3   OH232323   3.565   3.855   3.022  0.7270 -0.3645 -0.1096
 3611TIP3    H132324   3.589   3.856   2.929  1.2697 -1.0191  0.0112
 3611TIP3    H232325   3.537   3.765   3.039  1.2130 -0.4140  0.4945
 3612TIP3   OH232326   6.766   4.413  14.066 -0.1335 -0.3630 -0.0943
 3612TIP3    H132327   6.709   4.489  14.076 -1.0933 -0.7542 -2.0396
 3612TIP3    H232328   6.771   4.400  13.971 -1.0583 -3.4816  0.1758
 3613TIP3   OH232329   6.827   1.055  10.716 -0.3783 -0.4193 -0.0305
 3613TIP3    H132330   6.843   0.981  10.774 -1.1268 -0.2191  0.4459
 3613TIP3    H232331   6.909   1.104  10.715  0.0631 -1.1546 -0.2096
 3614TIP3   OH232332   4.480   6.614  16.012 -0.0765 -0.3693  0.0345
 3614TIP3    H132333   4.404   6.648  15.965 -0.2715  1.1095  1.3134
 3614TIP3    H232334   4.451   6.530  16.048 -1.3312  0.4307  0.9796
 3615TIP3   OH232335   5.000   4.150   1.618  0.5288  0.1668  0.3732
 3615TIP3    H132336   4.929   4.214   1.628  0.4117  0.2186 -0.6888
 3615TIP3    H232337   4.977   4.080   1.678 -0.2807  0.3143  0.2494
 3616TIP3   OH232338   3.423   4.785   1.602  0.0382  0.7918  0.0884
 3616TIP3    H132339   3.336   4.792   1.640  0.4273  1.1125  0.9354
 3616TIP3    H232340   3.450   4.694   1.617  0.2070  0.9285  0.6209
 3617TIP3   OH232341   0.595   4.273  13.715  0.3040  0.0981  0.2265
 3617TIP3    H132342   0.644   4.353  13.732 -1.2865  1.6685 -1.9771
 3617TIP3    H232343   0.603   4.258  13.621 -1.1510 -1.1322  0.2385
 3618TIP3   OH232344   4.393   6.312   4.357 -0.0815 -0.1459  0.2404
 3618TIP3    H132345   4.369   6.236   4.305  0.3370 -0.5147  0.5729
 3618TIP3    H232346   4.427   6.375   4.293 -0.0119 -0.4124  0.0111
 3619TIP3   OH232347   2.457   2.251   3.246 -0.0275 -0.6559  0.3653
 3619TIP3    H132348   2.498   2.204   3.318  0.3279 -0.0001  0.6002
 3619TIP3    H232349   2.529   2.274   3.188 -0.1515 -0.0843  0.4353
 3620TIP3   OH232350   0.981   0.307   1.107 -0.2037 -0.0237  0.5206
 3620TIP3    H132351   1.013   0.246   1.041 -1.2761 -0.3350  0.2712
 3620TIP3    H232352   0.986   0.258   1.189  2.3205  0.7782  0.9285
 3621TIP3   OH232353   2.968   0.401  14.565 -0.1190 -0.1488 -0.0959
 3621TIP3    H132354   2.892   0.458  14.565 -2.1240 -2.6416  0.1703
 3621TIP3    H232355   2.934   0.316  14.536  2.3322 -1.6404  1.0633
 3622TIP3   OH232356   4.991   1.699   1.160  0.1043  0.0971  0.1479
 3622TIP3    H132357   4.946   1.618   1.136 -1.6011  1.4323 -1.3937
 3622TIP3    H232358   4.925   1.750   1.208  1.1317  0.6321  1.0364
 3623TIP3   OH232359   5.509   1.392   2.101 -0.2651 -0.0745  0.9657
 3623TIP3    H132360   5.509   1.354   2.189  1.1206 -3.1496 -0.2264
 3623TIP3    H232361   5.447   1.338   2.051 -0.0279  0.7431 -0.2641
 3624TIP3   OH232362   0.983   2.641   4.778 -0.4968 -0.3583 -0.0618
 3624TIP3    H132363   0.927   2.673   4.848 -2.4171  1.0652 -2.1245
 3624TIP3    H232364   0.964   2.547   4.772 -0.6121 -0.4090  1.0013
 3625TIP3   OH232365   6.804   3.051  16.383 -0.2113  0.2585  0.2486
 3625TIP3    H132366   6.874   3.043  16.448 -1.9553 -1.1209  2.0798
 3625TIP3    H232367   6.723   3.034  16.432 -1.5668 -1.8990 -2.4531
 3626TIP3   OH232368   4.833   0.870   1.777  0.3703  0.1842  0.9930
 3626TIP3    H132369   4.798   0.958   1.766  0.9590  0.3320  0.1382
 3626TIP3    H232370   4.810   0.825   1.696 -1.7674 -1.1437  2.2505
 3627TIP3   OH232371   5.989   0.873   2.884 -0.2123  0.2730 -0.3045
 3627TIP3    H132372   6.051   0.880   2.957 -1.5556  1.7250  0.7607
 3627TIP3    H232373   5.915   0.824   2.921 -0.3464 -0.1416 -1.1078
 3628TIP3   OH232374   2.853   5.465   6.055 -0.7312 -0.1108  0.6537
 3628TIP3    H132375   2.799   5.392   6.084 -0.3837 -1.1861 -1.2160
 3628TIP3    H232376   2.909   5.485   6.129 -1.8726 -0.7102  1.7249
 3629TIP3   OH232377   6.670   1.701  14.810  0.0764 -0.0453  0.1223
 3629TIP3    H132378   6.692   1.608  14.806 -0.3666 -0.2279  1.3917
 3629TIP3    H232379   6.575   1.704  14.801  0.1263  0.3281 -0.3477
 3630TIP3   OH232380   2.020   2.086  14.235 -0.0408 -0.1110  0.2975
 3630TIP3    H132381   1.942   2.067  14.286  0.6063 -0.1748  1.2971
 3630TIP3    H232382   2.013   2.031  14.158 -1.1957  0.2223  0.1477
 3631TIP3   OH232383   1.005   0.805   0.143  0.3509  0.8001  0.0247
 3631TIP3    H132384   0.933   0.784   0.083  1.6924  0.2438 -1.4638
 3631TIP3    H232385   0.962   0.819   0.227 -1.3111 -1.8524 -0.2387
 3632TIP3   OH232386   6.676   6.194   3.374 -0.1723 -0.5621  0.3878
 3632TIP3    H132387   6.685   6.240   3.457  2.0532 -2.5329  1.3388
 3632TIP3    H232388   6.584   6.167   3.372 -0.7973  1.3399  1.1302
 3633TIP3   OH232389   3.929   5.946   5.086  0.2483  0.0141 -0.1133
 3633TIP3    H132390   3.997   5.881   5.101  1.0532  0.7580 -0.4627
 3633TIP3    H232391   3.957   6.022   5.138 -1.4246 -0.3871  1.4847
 3634TIP3   OH232392   0.276   3.140   2.800 -0.0694 -0.3509  0.4735
 3634TIP3    H132393   0.321   3.058   2.819  0.7886 -0.0072 -0.0352
 3634TIP3    H232394   0.228   3.160   2.881 -0.2483 -1.3158  0.6197
 3635TIP3   OH232395   6.292   4.701   5.499  0.0774 -0.5447 -0.3991
 3635TIP3    H132396   6.206   4.691   5.456  0.9616 -1.5647 -2.0518
 3635TIP3    H232397   6.303   4.619   5.547  0.2821 -0.5757 -0.5005
 3636TIP3   OH232398   2.368   2.005   1.718 -0.7820  0.7100  0.1253
 3636TIP3    H132399   2.439   2.058   1.682 -0.6570 -2.1382 -4.5817
 3636TIP3    H232400   2.412   1.929   1.756 -1.1231 -0.2194 -1.2531
 3637TIP3   OH232401   3.472   5.521   2.942 -0.3532  0.3497 -0.2704
 3637TIP3    H132402   3.449   5.588   3.007 -0.5793  0.1258 -0.1195
 3637TIP3    H232403   3.388   5.496   2.903 -0.5480 -1.3527  1.1342
 3638TIP3   OH232404   1.622   6.318   5.599 -0.0498  0.3598 -0.3830
 3638TIP3    H132405   1.710   6.315   5.562  0.4715 -0.1969  0.8552
 3638TIP3    H232406   1.607   6.410   5.617  0.5862  0.3741  0.0968
 3639TIP3   OH232407   1.910   1.042  16.984 -0.2675  0.2125 -0.2427
 3639TIP3    H132408   1.851   1.103  17.028  0.7971  0.1451  1.3464
 3639TIP3    H232409   1.938   1.089  16.906  1.9581  2.6406  1.8173
 3640TIP3   OH232410   0.287   2.569   2.089  0.4041 -0.2948 -0.4349
 3640TIP3    H132411   0.343   2.495   2.112 -2.3150 -1.6660  2.4992
 3640TIP3    H232412   0.298   2.631   2.162 -0.5810  0.1978 -0.6928
 3641TIP3   OH232413   3.230   5.970  13.892 -0.1805  0.4173 -0.3146
 3641TIP3    H132414   3.252   5.894  13.839 -1.1520  0.0096 -0.1628
 3641TIP3    H232415   3.210   5.935  13.978 -0.2712  0.8878 -0.1376
 3642TIP3   OH232416   5.528   1.103  17.054 -0.3997  0.3939 -0.2350
 3642TIP3    H132417   5.508   1.136  16.966 -1.1328  0.0329 -0.2142
 3642TIP3    H232418   5.623   1.113  17.062 -0.4048  1.0660 -0.8067
 3643TIP3   OH232419   2.831   1.449  12.753 -0.3846  0.1525 -0.1889
 3643TIP3    H132420   2.775   1.478  12.681 -0.3352  0.0163 -0.2846
 3643TIP3    H232421   2.771   1.426  12.823 -0.4500  0.0052 -0.2917
 3644TIP3   OH232422   6.565   4.877  11.482  0.4573 -0.0120 -0.0362
 3644TIP3    H132423   6.519   4.953  11.517  1.3144  0.1686  0.7064
 3644TIP3    H232424   6.657   4.891  11.504  0.6441 -1.2087  0.0284
 3645TIP3   OH232425   2.626   4.125  14.487 -0.1967  0.0359 -0.4549
 3645TIP3    H132426   2.676   4.044  14.480  0.4215  0.2683  0.8396
 3645TIP3    H232427   2.606   4.150  14.397  0.2718 -1.1416 -0.8951
 3646TIP3   OH232428   5.164   0.535  17.043 -0.4734  0.3557 -0.0105
 3646TIP3    H132429   5.224   0.561  17.114  0.2179 -0.0293 -0.4450
 3646TIP3    H232430   5.183   0.598  16.973 -1.0715  0.6598  0.0947
 3647TIP3   OH232431   4.984   6.539  11.234 -0.4561 -0.4446  0.2494
 3647TIP3    H132432   4.966   6.447  11.215 -0.2804 -0.7375  1.3978
 3647TIP3    H232433   4.998   6.580  11.149 -0.8045 -1.4267 -0.2854
 3648TIP3   OH232434   0.199   2.195   2.939  0.3629 -0.2095 -0.0750
 3648TIP3    H132435   0.252   2.177   3.017 -0.1994 -3.2132 -0.2561
 3648TIP3    H232436   0.109   2.182   2.968  0.1731 -1.8762 -1.2557
 3649TIP3   OH232437   6.780   3.176  15.182 -1.0607  0.2345  0.6578
 3649TIP3    H132438   6.806   3.094  15.225 -0.8179  0.4237  0.8760
 3649TIP3    H232439   6.754   3.150  15.094  0.3486  0.0985  0.2627
 3650TIP3   OH232440   2.508   1.913  11.662  0.0596  0.3525 -0.2996
 3650TIP3    H132441   2.522   1.994  11.712  0.0257 -0.0305  0.3521
 3650TIP3    H232442   2.572   1.917  11.591  0.1622  0.8803 -0.1811
 3651TIP3   OH232443   0.278   0.889  10.849  0.0640  0.2230  0.7104
 3651TIP3    H132444   0.337   0.964  10.845 -0.6287  0.7193 -1.4305
 3651TIP3    H232445   0.289   0.846  10.764 -1.1759 -0.8212  1.0526
 3652TIP3   OH232446   2.092   0.108  15.695 -0.2348 -0.1451  0.3441
 3652TIP3    H132447   2.099   0.049  15.620 -0.7380 -1.5260  1.3478
 3652TIP3    H232448   2.019   0.166  15.674  0.4780  0.3537 -0.8013
 3653TIP3   OH232449   4.122   1.383  13.738 -0.1363  0.7315 -0.5312
 3653TIP3    H132450   4.200   1.351  13.785 -2.0974  0.1627  2.6020
 3653TIP3    H232451   4.113   1.474  13.765 -1.9225  0.0858  1.2732
 3654TIP3   OH232452   5.842   6.546   3.516  0.6127 -0.4826  0.2831
 3654TIP3    H132453   5.922   6.561   3.465  0.0914 -0.1663 -0.4543
 3654TIP3    H232454   5.871   6.494   3.591  1.1193 -2.3412 -1.1359
 3655TIP3   OH232455   3.951   1.646   0.871  0.2526 -0.0946  0.1897
 3655TIP3    H132456   3.967   1.739   0.890  1.0401  0.0431 -1.0315
 3655TIP3    H232457   3.963   1.603   0.956  0.3545  0.8667  0.6833
 3656TIP3   OH232458   5.077   5.627  12.493  0.4845 -0.9399  0.1064
 3656TIP3    H132459   5.130   5.564  12.543  0.3630 -1.5377 -0.5112
 3656TIP3    H232460   5.019   5.573  12.440  1.2308 -0.3595 -1.3705
 3657TIP3   OH232461   5.084   2.802  14.345  0.3564 -0.2437  0.7865
 3657TIP3    H132462   5.084   2.872  14.279  1.2700  0.1527  1.2025
 3657TIP3    H232463   5.053   2.844  14.425 -0.2180 -0.5985  0.7578
 3658TIP3   OH232464   6.724   3.071  14.928  0.7426 -0.0653 -0.3437
 3658TIP3    H132465   6.761   3.030  14.850 -1.7609 -0.9462 -1.1567
 3658TIP3    H232466   6.630   3.060  14.919  0.3453 -2.1181  3.7856
 3659TIP3   OH232467   5.064   6.151   6.491  0.4213 -0.7457  0.4258
 3659TIP3    H132468   5.101   6.232   6.527 -0.8578  0.1254 -0.1256
 3659TIP3    H232469   4.970   6.158   6.508 -0.0441 -0.9827 -1.7021
 3660TIP3   OH232470   4.343   0.301   5.744  0.0883 -0.0569  0.2769
 3660TIP3    H132471   4.430   0.316   5.782 -0.6242 -0.4851  2.1847
 3660TIP3    H232472   4.320   0.212   5.771 -0.9407  0.0289 -0.2575
 3661TIP3   OH232473   1.778   1.145  15.991  0.2996  0.0102  0.2219
 3661TIP3    H132474   1.792   1.142  16.085  0.5285  2.2255  0.3250
 3661TIP3    H232475   1.687   1.172  15.981 -0.0926 -1.4274 -0.2324
 3662TIP3   OH232476   1.182   0.705  11.746  0.6092 -0.2759 -0.0389
 3662TIP3    H132477   1.140   0.644  11.685 -0.0258 -0.2978  0.4195
 3662TIP3    H232478   1.111   0.763  11.774  1.1871  0.6272 -0.4083
 3663TIP3   OH232479   1.483   0.327   5.885  0.3077 -0.3284 -0.0751
 3663TIP3    H132480   1.489   0.270   5.808  1.9797  0.7413 -0.7886
 3663TIP3    H232481   1.479   0.416   5.849 -0.6985  0.1086  1.0543
 3664TIP3   OH232482   1.226   4.008   1.008 -0.2259  0.3449 -0.0384
 3664TIP3    H132483   1.307   4.008   1.058 -0.3806 -1.5802  0.2696
 3664TIP3    H232484   1.248   4.053   0.926  0.6914  1.2886  0.7032
 3665TIP3   OH232485   4.040   0.929   2.411 -0.2213  0.0042 -0.0829
 3665TIP3    H132486   4.108   0.862   2.416 -2.3959 -2.5712 -2.1972
 3665TIP3    H232487   4.038   0.954   2.319 -0.5235  1.9127  0.3935
 3666TIP3   OH232488   3.661   2.689   2.245  0.2491  0.1143  0.2405
 3666TIP3    H132489   3.592   2.708   2.181  0.1840  0.0633  0.2962
 3666TIP3    H232490   3.619   2.633   2.310  0.7582 -1.2550 -0.5743
 3667TIP3   OH232491   4.960   4.891  14.358 -0.2256  0.4313  0.2524
 3667TIP3    H132492   4.988   4.832  14.429  1.1479 -2.3220 -2.3709
 3667TIP3    H232493   5.034   4.893  14.297 -1.7045  1.8945 -1.6152
 3668TIP3   OH232494   2.036   6.223   4.095  0.1107  0.4844 -0.2297
 3668TIP3    H132495   1.998   6.137   4.114  0.8694  0.2191  0.1253
 3668TIP3    H232496   2.062   6.257   4.180  1.7246  0.1490 -0.5670
 3669TIP3   OH232497   1.662   4.862  13.995 -0.1510 -0.0294  0.3392
 3669TIP3    H132498   1.685   4.952  13.972 -1.9520 -0.2289 -2.8886
 3669TIP3    H232499   1.567   4.865  14.009 -0.1608 -1.3353  0.6668
 3670TIP3   OH232500   3.344   4.325   2.113 -0.4701 -0.1077 -0.5337
 3670TIP3    H132501   3.257   4.324   2.075 -2.2899  0.6810  3.1633
 3670TIP3    H232502   3.352   4.242   2.159  0.2029  0.3515  0.2085
 3671TIP3   OH232503   5.215   3.876  11.992 -0.1787  0.0331  0.3622
 3671TIP3    H132504   5.211   3.816  12.067 -0.1985 -0.1737  0.1966
 3671TIP3    H232505   5.124   3.888  11.966 -0.1186 -0.6532 -0.2212
 3672TIP3   OH232506   3.035   3.516   5.639 -0.1993  0.0264 -0.5356
 3672TIP3    H132507   3.000   3.508   5.728  0.5553 -0.9539 -0.3146
 3672TIP3    H232508   3.072   3.604   5.636  0.9771 -0.4077  0.5822
 3673TIP3   OH232509   3.406   6.370   2.848 -0.5157  0.0630  0.1033
 3673TIP3    H132510   3.323   6.390   2.892 -0.7146 -0.1303 -0.1839
 3673TIP3    H232511   3.445   6.455   2.830 -0.9297  0.1732 -0.2935
 3674TIP3   OH232512   2.412   1.546   2.110  0.2072 -0.0004  0.6553
 3674TIP3    H132513   2.360   1.584   2.180  1.8297 -1.6126  2.8864
 3674TIP3    H232514   2.400   1.451   2.119  0.7427 -0.2751 -1.0409
 3675TIP3   OH232515   0.480   4.781   6.046  0.3455  0.1240  0.2549
 3675TIP3    H132516   0.415   4.839   6.005 -0.2610 -1.0818 -0.5485
 3675TIP3    H232517   0.454   4.693   6.018  1.0462 -0.5711  1.7249
 3676TIP3   OH232518   0.839   6.429  15.563  0.3052 -0.0464 -0.0354
 3676TIP3    H132519   0.879   6.342  15.569  0.1899 -0.0733  0.3306
 3676TIP3    H232520   0.871   6.476  15.640 -1.2809 -0.4461  0.9211
 3677TIP3   OH232521   4.653   3.843   4.157  0.0215 -0.4947 -0.0606
 3677TIP3    H132522   4.732   3.894   4.137 -0.3928 -0.1494 -0.8759
 3677TIP3    H232523   4.581   3.902   4.133 -0.4708 -1.5724 -1.3412
 3678TIP3   OH232524   5.671   0.757   2.697 -0.5370 -0.0574  0.4293
 3678TIP3    H132525   5.696   0.667   2.675 -1.4275 -0.3289  0.5184
 3678TIP3    H232526   5.673   0.759   2.793 -0.3990  0.0566  0.4243
 3679TIP3   OH232527   6.399   5.619  11.818  0.6903  0.1562  0.3630
 3679TIP3    H132528   6.312   5.652  11.839 -0.0570 -0.8324 -1.0311
 3679TIP3    H232529   6.421   5.563  11.892  0.1939  0.5016  0.7820
 3680TIP3   OH232530   3.183   2.410   0.516 -0.7474 -0.2045  0.0879
 3680TIP3    H132531   3.143   2.326   0.495 -0.0167 -0.9345  1.4880
 3680TIP3    H232532   3.147   2.433   0.601 -1.0050  0.9629 -0.3200
 3681TIP3   OH232533   5.122   3.871   2.597  0.3394  0.6410  0.8290
 3681TIP3    H132534   5.203   3.826   2.574 -0.2724  0.1445 -0.4917
 3681TIP3    H232535   5.147   3.962   2.611  1.0226  0.6554 -0.3353
 3682TIP3   OH232536   4.915   5.005   2.100  0.0015 -0.1326  0.5489
 3682TIP3    H132537   4.979   5.070   2.070  0.3235 -0.0764  1.3361
 3682TIP3    H232538   4.831   5.037   2.067  0.0240  1.1879  1.6808
 3683TIP3   OH232539   1.418   5.042  13.201  0.1687 -0.0031  0.1658
 3683TIP3    H132540   1.399   5.102  13.273 -1.0615 -1.2434  0.9326
 3683TIP3    H232541   1.394   4.956  13.235  0.4311 -0.7351 -1.4176
 3684TIP3   OH232542   2.943   6.658   4.208 -0.0863 -0.4542 -0.0868
 3684TIP3    H132543   2.992   6.659   4.290  1.2977  2.0824 -0.8407
 3684TIP3    H232544   3.004   6.693   4.143 -0.7422 -3.4054 -2.5311
 3685TIP3   OH232545   5.542   6.705   2.452 -0.2630 -0.3959 -0.1527
 3685TIP3    H132546   5.519   6.678   2.541 -0.4245 -0.6187 -0.2590
 3685TIP3    H232547   5.600   6.636   2.421 -0.4620 -0.4854 -0.3319
 3686TIP3   OH232548   1.249   1.299   1.140 -0.1706  0.0483  0.5008
 3686TIP3    H132549   1.245   1.354   1.062  0.4232  0.8912  1.0453
 3686TIP3    H232550   1.224   1.212   1.110  0.2216  0.3304 -0.6633
 3687TIP3   OH232551   1.765   5.325   2.573  0.1068 -0.2765  0.0889
 3687TIP3    H132552   1.725   5.243   2.601 -4.5442  0.9276 -2.1085
 3687TIP3    H232553   1.763   5.322   2.477  0.4194  2.0929 -0.0582
 3688TIP3   OH232554   5.863   0.611  15.878 -0.5368  0.3084 -0.1727
 3688TIP3    H132555   5.866   0.571  15.965  0.0020 -1.9712 -1.1657
 3688TIP3    H232556   5.894   0.542  15.819 -0.3821  1.9635 -2.1248
 3689TIP3   OH232557   6.053   6.232   2.797  0.4370  0.1161 -0.5243
 3689TIP3    H132558   6.076   6.219   2.705  0.8403  2.4404 -0.8164
 3689TIP3    H232559   5.964   6.266   2.795  0.7955  1.1283 -0.1652
 3690TIP3   OH232560   6.442   0.742  13.182 -0.0631  0.2598 -0.4023
 3690TIP3    H132561   6.361   0.793  13.178 -2.0763 -2.6774  0.0179
 3690TIP3    H232562   6.469   0.747  13.274 -1.8467 -1.5735  0.2995
 3691TIP3   OH232563   3.518   6.694   0.868  0.4095 -0.1926 -0.4831
 3691TIP3    H132564   3.457   6.627   0.899  1.6022 -0.3560  1.7051
 3691TIP3    H232565   3.562   6.654   0.793 -3.2699  0.5766 -3.3521
 3692TIP3   OH232566   6.100   6.009  13.041  0.1150  0.3409  0.4449
 3692TIP3    H132567   6.061   5.944  12.983 -0.0424  1.5270 -0.8263
 3692TIP3    H232568   6.087   6.093  12.996  1.1259  1.1558  1.5964
 3693TIP3   OH232569   0.578   1.603   1.686  0.0549 -0.5584 -0.0003
 3693TIP3    H132570   0.641   1.662   1.727  1.8721 -0.0353 -3.1963
 3693TIP3    H232571   0.631   1.528   1.657 -1.4236 -1.6633  0.0375
 3694TIP3   OH232572   5.031   3.683  15.926 -0.1499 -0.0667  0.3438
 3694TIP3    H132573   4.989   3.762  15.891  2.3106  1.5208  0.7251
 3694TIP3    H232574   5.010   3.686  16.020  0.5453  0.5963  0.4933
 3695TIP3   OH232575   3.501   2.573  12.688  0.5855 -0.0402  0.1501
 3695TIP3    H132576   3.555   2.578  12.767  1.0964  0.2405 -0.2079
 3695TIP3    H232577   3.530   2.648  12.635 -0.2093  0.1559 -0.0179
 3696TIP3   OH232578   0.458   0.144  12.851 -0.6705 -0.7258  0.1217
 3696TIP3    H132579   0.498   0.200  12.785 -3.2163 -0.0639 -0.9969
 3696TIP3    H232580   0.413   0.204  12.910 -0.0526 -1.4270  1.3456
 3697TIP3   OH232581   0.224   1.389  14.188 -0.4568  0.1204 -0.1052
 3697TIP3    H132582   0.264   1.402  14.274  2.0276 -0.2176 -1.1463
 3697TIP3    H232583   0.297   1.390  14.126 -1.7000 -3.2208 -1.8879
 3698TIP3   OH232584   3.661   1.019   3.050 -0.5685  0.3354 -0.0219
 3698TIP3    H132585   3.574   1.024   3.090 -0.4777  2.2123  0.0346
 3698TIP3    H232586   3.656   1.079   2.976  0.6240  0.2886 -0.1585
 3699TIP3   OH232587   4.522   1.473  14.213  0.0110 -0.0644  0.3983
 3699TIP3    H132588   4.480   1.554  14.242 -3.9107 -1.7584  0.0313
 3699TIP3    H232589   4.543   1.488  14.121  1.2091  1.1501  0.8354
 3700TIP3   OH232590   5.091   2.367  14.241 -0.8389  0.1163 -0.0834
 3700TIP3    H132591   5.170   2.335  14.284  0.0313  0.9983 -0.9633
 3700TIP3    H232592   5.047   2.421  14.307  1.4820  3.0962 -0.7508
 3701TIP3   OH232593   4.166   3.348  11.688  0.6004  0.0481 -0.0034
 3701TIP3    H132594   4.175   3.347  11.784  1.6855  1.0727 -0.0719
 3701TIP3    H232595   4.246   3.306  11.656  0.6417  0.4813 -0.4778
 3702TIP3   OH232596   0.629   0.773  12.821 -0.2858  1.1414  0.8604
 3702TIP3    H132597   0.635   0.693  12.770 -1.8329  0.4178  1.7440
 3702TIP3    H232598   0.713   0.778  12.868  0.4653  0.9333 -0.4276
 3703TIP3   OH232599   1.425   0.629  10.991 -0.4224  0.3424 -0.0271
 3703TIP3    H132600   1.464   0.690  11.054  0.1224 -0.5781  0.5411
 3703TIP3    H232601   1.456   0.660  10.905  2.1698 -0.7336  0.4295
 3704TIP3   OH232602   6.369   4.791   3.722 -0.0820  0.4384  0.2059
 3704TIP3    H132603   6.409   4.876   3.708  0.6555 -0.1437 -1.3199
 3704TIP3    H232604   6.398   4.765   3.810  1.2988  0.8815 -0.1070
 3705TIP3   OH232605   2.982   0.556  15.007  0.1173 -0.5130  0.5130
 3705TIP3    H132606   2.977   0.595  15.095 -0.7770 -0.4029  0.4172
 3705TIP3    H232607   2.946   0.623  14.949  2.0439  0.0111 -0.1552
 3706TIP3   OH232608   5.940   1.251  14.347 -0.0672 -0.4146  0.2769
 3706TIP3    H132609   5.876   1.218  14.411  0.9703  0.0830  1.6347
 3706TIP3    H232610   6.005   1.297  14.401  1.0751 -0.3308 -1.1271
 3707TIP3   OH232611   6.085   2.189  11.740 -0.8375  0.1529  0.4365
 3707TIP3    H132612   6.138   2.228  11.670 -2.2128  0.2127 -0.6065
 3707TIP3    H232613   6.076   2.259  11.805  1.2713 -0.2077  1.1894
 3708TIP3   OH232614   4.418   4.675  11.063 -0.1486  0.4110 -0.1751
 3708TIP3    H132615   4.388   4.590  11.032  1.2175 -0.6203  1.1466
 3708TIP3    H232616   4.497   4.655  11.113 -0.9513  2.1997  1.9703
 3709TIP3   OH232617   2.245   3.542  14.445 -0.4949  0.3500 -0.1834
 3709TIP3    H132618   2.306   3.600  14.490 -0.3007 -0.3120  0.4245
 3709TIP3    H232619   2.301   3.480  14.398 -0.6993  0.7450 -0.9817
 3710TIP3   OH232620   5.036   3.938  13.700  0.3595  0.1043 -0.2725
 3710TIP3    H132621   5.008   3.921  13.610  1.9338  0.5644 -0.8918
 3710TIP3    H232622   5.121   3.981  13.691  0.5991  0.0806  1.4457
 3711TIP3   OH232623   4.210   5.708  15.100  0.0036 -0.2414  0.2109
 3711TIP3    H132624   4.166   5.656  15.032 -0.5287  0.7695 -0.2310
 3711TIP3    H232625   4.139   5.733  15.159  0.3087 -0.2521  0.5780
 3712TIP3   OH232626   1.382   4.529   5.266  0.6162 -0.2180  0.0464
 3712TIP3    H132627   1.304   4.498   5.219  1.6439  0.4131 -2.2679
 3712TIP3    H232628   1.347   4.573   5.343 -1.2862 -0.4576 -0.5975
 3713TIP3   OH232629   6.707   5.782   3.530  1.0992 -0.0307 -0.1657
 3713TIP3    H132630   6.772   5.822   3.472  2.5044 -0.7529  0.8693
 3713TIP3    H232631   6.623   5.819   3.500  1.9015  0.5381 -1.8468
 3714TIP3   OH232632   0.380   6.300   4.422 -0.2910  0.0113  0.0247
 3714TIP3    H132633   0.349   6.212   4.443 -1.3172  0.1566 -0.8135
 3714TIP3    H232634   0.432   6.289   4.342 -0.0043  0.1034  0.1945
 3715TIP3   OH232635   6.690   4.216   0.061  0.0435  0.5754 -0.0364
 3715TIP3    H132636   6.651   4.128   0.059  0.2353  0.5003 -0.8261
 3715TIP3    H232637   6.784   4.200   0.067 -0.0202  0.7608  2.2779
 3716TIP3   OH232638   1.079   5.240   2.698  0.3825  0.0812 -0.3091
 3716TIP3    H132639   1.148   5.231   2.764  1.4222  3.5608 -0.6975
 3716TIP3    H232640   1.125   5.229   2.615 -0.2079 -0.7196 -0.5378
 3717TIP3   OH232641   3.149   0.855  14.353  0.1923  0.2215 -0.2508
 3717TIP3    H132642   3.100   0.872  14.434  0.2383  3.1046 -0.7366
 3717TIP3    H232643   3.238   0.881  14.374  0.0439  1.7871 -1.4273
 3718TIP3   OH232644   3.097   5.451  11.723 -0.0423 -0.2676 -0.3088
 3718TIP3    H132645   3.008   5.418  11.713 -0.2901  0.4586 -0.5830
 3718TIP3    H232646   3.153   5.384  11.682 -0.6939  0.6150 -2.8232
 3719TIP3   OH232647   0.495   5.126   0.033  0.5453  0.1057  0.0771
 3719TIP3    H132648   0.572   5.079   0.064 -0.2170 -0.4042  1.2673
 3719TIP3    H232649   0.423   5.092   0.086 -0.4670  0.7302 -0.8580
 3720TIP3   OH232650   5.789   1.728  12.987  0.1095 -1.1298 -0.0572
 3720TIP3    H132651   5.839   1.807  12.966  0.0026 -1.2807 -0.9183
 3720TIP3    H232652   5.854   1.657  12.986  0.1627 -1.0970  0.4822
 3721TIP3   OH232653   5.643   0.787   0.513  0.0650 -0.3265  0.0521
 3721TIP3    H132654   5.647   0.745   0.598  0.7389 -0.8556 -0.2369
 3721TIP3    H232655   5.667   0.878   0.530  1.9724 -0.8164  0.1734
 3722TIP3   OH232656   1.645   0.062   3.958  0.3848  0.0553 -0.4209
 3722TIP3    H132657   1.711  -0.007   3.961  0.6145  0.2804 -0.3224
 3722TIP3    H232658   1.662   0.116   4.035  0.6107  0.5896 -0.8344
 3723TIP3   OH232659   5.289   4.858   5.798 -0.5406 -0.0677 -0.0890
 3723TIP3    H132660   5.328   4.847   5.712 -0.9727  0.0087 -0.3013
 3723TIP3    H232661   5.197   4.878   5.780 -0.2217  2.0132  0.3085
 3724TIP3   OH232662   5.145   2.038   2.463 -0.1050  0.2222 -0.5230
 3724TIP3    H132663   5.123   2.112   2.405  0.2308 -0.8768 -2.1392
 3724TIP3    H232664   5.060   2.006   2.493 -0.2815  0.9330 -0.2480
 3725TIP3   OH232665   5.805   5.345   5.820  0.1449  1.0994 -0.0706
 3725TIP3    H132666   5.801   5.338   5.725 -1.0676 -2.2097  0.0703
 3725TIP3    H232667   5.899   5.343   5.841  0.4009  1.0972 -1.1758
 3726TIP3   OH232668   1.025   2.267  12.728 -0.2190 -0.3070 -0.3718
 3726TIP3    H132669   1.037   2.172  12.722  1.2949 -0.2647  1.0746
 3726TIP3    H232670   1.090   2.303  12.667 -0.3163 -0.1866 -0.4041
 3727TIP3   OH232671   0.632   1.719   1.086  0.2043 -0.2862 -0.0510
 3727TIP3    H132672   0.606   1.786   1.023  1.5011  0.5282  0.2494
 3727TIP3    H232673   0.551   1.695   1.130 -0.1867  1.6909  0.4008
 3728TIP3   OH232674   3.131   0.165  15.441  0.0322  0.0754 -0.3574
 3728TIP3    H132675   3.167   0.201  15.360  1.8141  0.3467  0.5186
 3728TIP3    H232676   3.080   0.238  15.479 -1.7931 -0.4059 -1.7451
 3729TIP3   OH232677   2.071   1.529   4.659 -0.0582  0.0113 -0.3321
 3729TIP3    H132678   1.992   1.569   4.624  0.7923  1.0132 -1.1623
 3729TIP3    H232679   2.086   1.453   4.603 -0.4367 -0.2011 -0.1525
 3730TIP3   OH232680   5.414   2.074  15.747  0.1237 -0.0950 -0.6574
 3730TIP3    H132681   5.330   2.050  15.787 -1.4469 -1.9590 -4.5648
 3730TIP3    H232682   5.390   2.132  15.675  2.1832 -0.6438 -1.8510
 3731TIP3   OH232683   3.993   1.901  16.687 -0.1034 -0.1390 -0.1975
 3731TIP3    H132684   3.990   1.809  16.659  0.5864 -0.4650  0.7753
 3731TIP3    H232685   3.909   1.937  16.658 -0.4208 -1.0996 -0.5065
 3732TIP3   OH232686   5.216   3.590   4.807  0.7503 -0.2649 -0.6630
 3732TIP3    H132687   5.308   3.573   4.790  1.8295  2.4353  1.7068
 3732TIP3    H232688   5.188   3.518   4.865  2.1105  0.1770  0.5914
 3733TIP3   OH232689   1.273   2.050   3.248  0.2788  0.2290 -0.0476
 3733TIP3    H132690   1.362   2.062   3.281  0.3669 -0.4414 -0.0331
 3733TIP3    H232691   1.224   2.018   3.323 -0.0623  0.9203  0.0340
 3734TIP3   OH232692   5.656   1.124   0.862 -0.1716  0.0590 -0.4087
 3734TIP3    H132693   5.657   1.170   0.946  0.7678  0.0552 -0.4047
 3734TIP3    H232694   5.744   1.088   0.854 -1.0168 -2.2280 -0.1491
 3735TIP3   OH232695   4.186   4.282   2.364 -0.1858 -0.3480 -0.4013
 3735TIP3    H132696   4.146   4.369   2.365  0.5755  0.0078  0.6281
 3735TIP3    H232697   4.267   4.293   2.314 -0.1741 -0.5033 -0.4180
 3736TIP3   OH232698   0.754   0.960  16.875  0.3227 -0.4125  0.1477
 3736TIP3    H132699   0.773   0.868  16.861 -1.6989 -1.0586  1.2367
 3736TIP3    H232700   0.662   0.970  16.851  0.9798  1.8005 -1.8465
 3737TIP3   OH232701   4.526   1.076   3.813 -0.5130 -0.3310  0.0379
 3737TIP3    H132702   4.549   1.157   3.860  0.5719  1.0306 -2.6011
 3737TIP3    H232703   4.606   1.023   3.816 -0.0943  0.2038 -1.0333
 3738TIP3   OH232704   6.389   0.853  11.773  0.4577 -0.0010  0.2797
 3738TIP3    H132705   6.320   0.901  11.727  0.1653 -0.2538  0.4473
 3738TIP3    H232706   6.420   0.913  11.840 -0.1044 -0.1447  0.6757
 3739TIP3   OH232707   2.261   0.931   5.450  0.2932  0.6048 -0.0290
 3739TIP3    H132708   2.347   0.890   5.464  0.8105  1.6252 -0.1314
 3739TIP3    H232709   2.205   0.891   5.516  0.5224 -0.9731 -0.7360
 3740TIP3   OH232710   4.059   1.320  15.268 -0.3764 -0.0014 -0.9541
 3740TIP3    H132711   4.124   1.383  15.236  0.3818 -0.3869 -0.2006
 3740TIP3    H232712   4.026   1.360  15.348  0.8023 -0.9853  0.0482
 3741TIP3   OH232713   3.519   1.321  14.245 -0.3464  0.0174  0.3536
 3741TIP3    H132714   3.497   1.360  14.330 -0.6157 -0.1551  0.3636
 3741TIP3    H232715   3.607   1.285  14.257 -0.0160  0.7662  0.2945
 3742TIP3   OH232716   2.465   1.736  14.957  0.5114  0.5570  0.5323
 3742TIP3    H132717   2.430   1.735  14.867 -1.3234 -1.0314  1.1772
 3742TIP3    H232718   2.433   1.818  14.994  2.8508  2.1638 -0.7376
 3743TIP3   OH232719   3.768   6.068  13.334  0.4280  0.0699 -0.2179
 3743TIP3    H132720   3.763   6.089  13.427 -0.7900  0.3623 -0.3339
 3743TIP3    H232721   3.717   5.987  13.324  1.7115 -0.7367 -0.4239
 3744TIP3   OH232722   4.996   1.662  14.622 -0.8899 -0.3188  0.5270
 3744TIP3    H132723   4.961   1.741  14.662 -1.3077 -1.2912  2.1572
 3744TIP3    H232724   4.935   1.642  14.551 -2.6221 -0.9185  2.1150
 3745TIP3   OH232725   2.449   2.353  13.351  0.0068  0.3808 -0.6406
 3745TIP3    H132726   2.503   2.278  13.327  0.8705  0.2253  1.5562
 3745TIP3    H232727   2.511   2.418  13.384 -0.8987  1.3406 -0.7645
 3746TIP3   OH232728   6.493   3.603  14.605 -0.1531 -0.1741  0.4995
 3746TIP3    H132729   6.464   3.658  14.533  2.0529  3.0678  1.8782
 3746TIP3    H232730   6.561   3.546  14.568  1.0612  1.5509 -0.0087
 3747TIP3   OH232731   5.278   2.945  12.270  0.0690  0.4329 -0.1082
 3747TIP3    H132732   5.319   2.877  12.216  1.6029  0.0743  1.4421
 3747TIP3    H232733   5.191   2.957  12.230 -0.4105 -2.6581 -0.2944
 3748TIP3   OH232734   4.635   2.183   3.251  0.1102 -0.0703 -0.7078
 3748TIP3    H132735   4.621   2.248   3.182  0.1449  0.7667  0.0531
 3748TIP3    H232736   4.568   2.117   3.236 -2.6225  2.1432  0.8621
 3749TIP3   OH232737   1.963   2.291  16.422 -0.1495 -0.4407 -0.0445
 3749TIP3    H132738   1.889   2.230  16.417 -2.2995  1.9757  0.2553
 3749TIP3    H232739   1.993   2.299  16.331 -0.4348 -1.2205 -0.2210
 3750TIP3   OH232740   0.346   1.813   2.087  0.2841  0.3820  0.2918
 3750TIP3    H132741   0.281   1.865   2.040 -0.9216 -2.6536 -1.6234
 3750TIP3    H232742   0.386   1.758   2.020  0.5587 -2.0874  2.3541
 3751TIP3   OH232743   2.090   0.577   3.450  0.3351 -0.0020  0.1232
 3751TIP3    H132744   2.159   0.533   3.401  0.0254 -0.2131 -0.1317
 3751TIP3    H232745   2.070   0.655   3.399  0.0489 -0.1941 -0.0622
 3752TIP3   OH232746   3.560   3.222  12.491  0.3344 -0.1046 -0.1093
 3752TIP3    H132747   3.494   3.158  12.516  1.1407 -1.0679 -0.4017
 3752TIP3    H232748   3.551   3.292  12.555 -0.6285 -0.4556  0.1539
 3753TIP3   OH232749   1.063   0.246  16.356 -0.2507  0.0013  0.0566
 3753TIP3    H132750   1.105   0.316  16.306  0.0199 -1.5087 -1.9635
 3753TIP3    H232751   1.110   0.244  16.439  2.6469 -0.5083 -1.4458
 3754TIP3   OH232752   6.151   6.147   0.722 -0.1043  0.3051 -0.3302
 3754TIP3    H132753   6.136   6.106   0.637  0.3989  0.3164 -0.4244
 3754TIP3    H232754   6.141   6.076   0.785  0.0368  0.1885 -0.4385
 3755TIP3   OH232755   4.103   3.905   1.410  0.2571 -0.5259 -0.7530
 3755TIP3    H132756   4.058   3.890   1.327 -3.3509  2.5665  0.3274
 3755TIP3    H232757   4.157   3.983   1.394 -1.0499  0.5528 -0.1103
 3756TIP3   OH232758   5.324   6.215   2.096  0.5013  0.1739  0.6202
 3756TIP3    H132759   5.309   6.143   2.158 -0.4551  0.2957  0.5379
 3756TIP3    H232760   5.267   6.285   2.127 -1.4656 -0.4028 -1.4631
 3757TIP3   OH232761   5.002   5.760  15.614  1.0136  0.7616  0.1405
 3757TIP3    H132762   5.053   5.717  15.683 -0.2202  1.0534  1.2622
 3757TIP3    H232763   5.039   5.848  15.609  0.4330  1.0809  1.1855
 3758TIP3   OH232764   6.137   1.179  13.034 -0.0124 -0.0414 -0.1381
 3758TIP3    H132765   6.073   1.227  13.086  0.6286 -0.0440  0.6720
 3758TIP3    H232766   6.188   1.248  12.990 -0.9122 -0.0441 -1.2483
 3759TIP3   OH232767   2.536   6.768  16.114  0.6956  0.1373  0.6903
 3759TIP3    H132768   2.626   6.772  16.147  1.4575  2.9429 -1.3419
 3759TIP3    H232769   2.496   6.849  16.146 -0.1250  0.3998 -0.9007
 3760TIP3   OH232770   5.060   5.070   5.659  0.0927 -0.1096 -0.1143
 3760TIP3    H132771   5.003   5.144   5.638  0.9755  0.2185 -1.4573
 3760TIP3    H232772   5.001   5.005   5.698 -1.0377  0.5584 -0.6525
 3761TIP3   OH232773   1.996   1.163  13.536  0.3367  0.1659 -0.0450
 3761TIP3    H132774   1.948   1.236  13.498  1.0631 -0.5822 -2.5804
 3761TIP3    H232775   1.933   1.122  13.597 -1.5477  0.4207 -1.7146
 3762TIP3   OH232776   6.815   4.546   3.654 -0.1240  0.3135  0.0605
 3762TIP3    H132777   6.866   4.623   3.630 -0.2623 -0.3642 -2.8394
 3762TIP3    H232778   6.874   4.493   3.707  0.5627  1.5794  0.6190
 3763TIP3   OH232779   2.945   3.102   1.344  0.4036 -0.6624  0.0215
 3763TIP3    H132780   2.860   3.124   1.382  0.7714  2.5349 -0.7454
 3763TIP3    H232781   3.007   3.111   1.417  0.3317 -1.2878  0.1714
 3764TIP3   OH232782   2.210   5.651  14.174 -0.3549  0.2281 -0.5670
 3764TIP3    H132783   2.239   5.737  14.143 -0.7259  0.2341 -0.9045
 3764TIP3    H232784   2.290   5.608  14.204 -0.0985  0.5015 -0.8536
 3765TIP3   OH232785   1.629   5.354  15.171  0.5303  0.3979  0.0947
 3765TIP3    H132786   1.587   5.431  15.211  0.3303  0.5568 -0.4132
 3765TIP3    H232787   1.713   5.387  15.140 -0.1440  0.7821 -1.4123
 3766TIP3   OH232788   1.382   6.470   6.063 -0.4377  0.5989 -0.1562
 3766TIP3    H132789   1.391   6.450   6.156  0.6881  0.5996 -0.2437
 3766TIP3    H232790   1.465   6.441   6.025 -1.1817 -0.1263 -1.2999
 3767TIP3   OH232791   6.666   5.047   0.208 -0.8469  0.0255 -0.1747
 3767TIP3    H132792   6.730   4.983   0.177 -2.0779 -0.4026 -1.9544
 3767TIP3    H232793   6.601   4.995   0.254 -0.7982  0.2620  0.1683
 3768TIP3   OH232794   2.253   0.274   2.997 -0.5856  0.4000  0.4376
 3768TIP3    H132795   2.294   0.285   3.083 -3.2688  0.1176  1.8555
 3768TIP3    H232796   2.294   0.195   2.961  0.6706  0.5939  1.3598
 3769TIP3   OH232797   0.493   0.363   4.626 -0.0602 -0.2175  0.1123
 3769TIP3    H132798   0.416   0.421   4.631  0.2810  0.1533  1.5791
 3769TIP3    H232799   0.505   0.349   4.532 -1.6708  0.0428 -0.1785
 3770TIP3   OH232800   5.930   6.248  11.154  0.1769  0.2686  0.2829
 3770TIP3    H132801   6.024   6.263  11.142  0.4561 -1.0360  0.6923
 3770TIP3    H232802   5.892   6.269  11.069  0.8641  0.5499  0.0313
 3771TIP3   OH232803   0.510   2.706   3.816 -0.9927 -0.4196  0.2324
 3771TIP3    H132804   0.437   2.768   3.806 -0.5211 -0.1257 -2.2274
 3771TIP3    H232805   0.583   2.750   3.773  0.3922 -1.1440  1.7711
 3772TIP3   OH232806   2.347   1.006   4.930  0.3510  0.1477 -0.5881
 3772TIP3    H132807   2.311   0.938   4.873  0.5645  0.2071 -0.7973
 3772TIP3    H232808   2.285   1.079   4.922  0.1921  0.0278 -0.4657
 3773TIP3   OH232809   6.365   6.794  12.626  0.1448 -1.2669 -0.0932
 3773TIP3    H132810   6.400   6.713  12.590  0.9146 -1.0756  0.1989
 3773TIP3    H232811   6.270   6.783  12.624  0.2571 -2.3736  0.4124
 3774TIP3   OH232812   2.578   3.288  14.608  0.9155 -0.2984  0.2894
 3774TIP3    H132813   2.540   3.207  14.573 -0.4038 -0.2378  1.5040
 3774TIP3    H232814   2.672   3.275  14.598  0.7526 -2.0826  0.6012
 3775TIP3   OH232815   2.014   6.760   2.936 -0.0088 -0.2804 -0.1276
 3775TIP3    H132816   1.923   6.735   2.921 -0.4516  0.1184  1.6422
 3775TIP3    H232817   2.016   6.792   3.026  1.4059  1.9730 -0.8766
 3776TIP3   OH232818   0.759   1.491  11.603  0.1517  0.0056  0.1509
 3776TIP3    H132819   0.719   1.521  11.685  2.6625  2.1485  0.7076
 3776TIP3    H232820   0.769   1.569  11.550  2.1328 -0.6544 -0.5581
 3777TIP3   OH232821   3.516   3.073   1.642  0.0038 -0.1118  0.1183
 3777TIP3    H132822   3.528   3.007   1.710 -1.6922 -0.9585 -0.3424
 3777TIP3    H232823   3.478   3.148   1.688 -0.4341 -0.4072  0.2509
 3778TIP3   OH232824   2.720   6.751  11.193 -0.0266  0.3138 -0.0648
 3778TIP3    H132825   2.762   6.812  11.132 -0.3191 -0.9362 -1.5847
 3778TIP3    H232826   2.691   6.678  11.138  1.5490 -1.9032  1.8645
 3779TIP3   OH232827   5.913   1.816   4.837  0.5290  0.0733  0.0337
 3779TIP3    H132828   5.904   1.765   4.917  0.9131 -1.0246 -0.5869
 3779TIP3    H232829   5.856   1.771   4.774  0.2687  0.8875 -0.3151
 3780TIP3   OH232830   1.198   0.269   1.638 -0.3871  0.2044 -0.2036
 3780TIP3    H132831   1.203   0.312   1.723 -1.8691 -0.6650  0.3611
 3780TIP3    H232832   1.196   0.341   1.575  2.7269  0.8573  0.2818
 3781TIP3   OH232833   1.593   6.051  12.492 -0.1894 -0.3654 -0.1424
 3781TIP3    H132834   1.587   5.956  12.502 -2.0458 -0.0562  3.1100
 3781TIP3    H232835   1.674   6.065  12.442 -1.1301 -3.6555 -2.9434
 3782TIP3   OH232836   0.092   5.601  13.380  0.1932  0.0921  0.1884
 3782TIP3    H132837   0.171   5.633  13.336  0.2683 -0.9092 -0.4394
 3782TIP3    H232838   0.087   5.651  13.461 -0.1071  2.2133 -1.0758
 3783TIP3   OH232839   4.522   4.853   0.791  0.2871  0.2705 -0.1680
 3783TIP3    H132840   4.542   4.825   0.701 -1.1502 -0.0246 -0.4145
 3783TIP3    H232841   4.604   4.839   0.839  0.2837 -2.2966 -0.7855
 3784TIP3   OH232842   6.724   1.969   4.696  0.2495 -0.5728  0.1634
 3784TIP3    H132843   6.785   1.994   4.626  0.4025 -1.6686 -0.1140
 3784TIP3    H232844   6.656   1.920   4.651 -0.4880  0.0526  0.5756
 3785TIP3   OH232845   0.507   2.624  15.475 -0.4191  0.4154  0.6056
 3785TIP3    H132846   0.482   2.537  15.504 -1.0825  0.4273  0.0828
 3785TIP3    H232847   0.468   2.633  15.388  1.3330  0.4590 -0.2195
 3786TIP3   OH232848   1.358   6.731  14.879  0.7076  0.0527  0.7310
 3786TIP3    H132849   1.379   6.642  14.910  0.9761 -0.4524 -0.8213
 3786TIP3    H232850   1.269   6.724  14.846  1.9266 -0.6940 -2.8596
 3787TIP3   OH232851   2.773   4.269  16.907 -0.3202 -0.5035 -0.4494
 3787TIP3    H132852   2.724   4.225  16.838 -0.3751  0.6147 -1.1463
 3787TIP3    H232853   2.863   4.274  16.873  0.7039 -3.7139  1.3516
 3788TIP3   OH232854   1.815   2.528  16.076 -0.3714 -0.1903 -0.0498
 3788TIP3    H132855   1.737   2.472  16.069 -1.2944  1.1161 -0.5762
 3788TIP3    H232856   1.872   2.500  16.004 -0.6600 -0.6908 -0.0849
 3789TIP3   OH232857   0.803   1.963  15.413 -0.0263 -0.2006  0.0145
 3789TIP3    H132858   0.876   1.930  15.362 -0.0136 -1.8100  0.9867
 3789TIP3    H232859   0.843   2.010  15.486  0.2862 -3.4591  2.1600
 3790TIP3   OH232860   3.620   4.074  16.758 -0.8729  0.0643 -0.0680
 3790TIP3    H132861   3.608   4.002  16.819  0.6668 -0.0038  0.2070
 3790TIP3    H232862   3.687   4.043  16.697 -0.0929  1.2656  0.1274
 3791TIP3   OH232863   1.827   1.652   1.280 -0.4702  0.4581  0.0126
 3791TIP3    H132864   1.890   1.709   1.325  0.6881  0.1551 -1.1685
 3791TIP3    H232865   1.854   1.563   1.303 -1.0633  0.3390  0.2655
 3792TIP3   OH232866   5.751   2.850   5.274 -0.9232 -0.1670  0.0621
 3792TIP3    H132867   5.663   2.814   5.283 -1.0814  0.3996  0.8543
 3792TIP3    H232868   5.741   2.922   5.211 -0.3452 -2.2947 -2.7071
 3793TIP3   OH232869   4.854   2.011  11.916 -0.5714  0.2834  0.3606
 3793TIP3    H132870   4.798   2.034  11.842  0.4674 -0.1533 -0.5767
 3793TIP3    H232871   4.850   2.088  11.973 -1.4391  0.5960 -0.1118
 3794TIP3   OH232872   5.788   6.141  15.146 -0.5503  0.0429  0.7770
 3794TIP3    H132873   5.813   6.109  15.059 -3.3192 -2.6746  0.8361
 3794TIP3    H232874   5.836   6.085  15.207  1.1088  1.7119  1.0869
 3795TIP3   OH232875   5.962   5.840   2.149 -0.1574 -0.7150  0.1430
 3795TIP3    H132876   5.927   5.928   2.141  0.9365 -0.1518  1.2041
 3795TIP3    H232877   5.976   5.811   2.059  0.7785  0.7451 -0.2132
 3796TIP3   OH232878   0.656   2.634  16.339  0.3939  0.1943  0.0898
 3796TIP3    H132879   0.607   2.644  16.258 -0.6985  1.9148  0.8959
 3796TIP3    H232880   0.598   2.584  16.397  1.3556 -1.4362 -0.2931
 3797TIP3   OH232881   4.755   0.532  13.996 -0.0821 -0.1118 -0.0447
 3797TIP3    H132882   4.821   0.558  14.060 -0.1931 -0.6039  0.2718
 3797TIP3    H232883   4.674   0.573  14.027 -0.7565 -2.5445  1.6968
 3798TIP3   OH232884   3.121   3.373  11.705 -0.2665  0.5880 -0.1861
 3798TIP3    H132885   3.151   3.391  11.794  0.1626  0.8909 -0.3848
 3798TIP3    H232886   3.026   3.371  11.711 -0.2200 -0.1517  0.4206
 3799TIP3   OH232887   6.563   4.149  15.176  0.0379  0.1402 -0.0216
 3799TIP3    H132888   6.486   4.154  15.233 -0.8214 -2.2764 -0.8400
 3799TIP3    H232889   6.588   4.056  15.178  1.2512  0.3865 -1.9430
 3800TIP3   OH232890   5.591   5.164   4.091 -0.2321 -0.1215  0.4609
 3800TIP3    H132891   5.555   5.075   4.095 -1.6090  0.4169  0.2829
 3800TIP3    H232892   5.516   5.220   4.074  0.6194  1.0954  0.6045
 3801TIP3   OH232893   0.989   4.561  12.297 -0.0150  0.2474 -0.0129
 3801TIP3    H132894   0.896   4.537  12.302 -0.0548  0.3232 -0.3892
 3801TIP3    H232895   1.025   4.532  12.381 -0.1582 -0.7130 -0.2735
 3802TIP3   OH232896   4.756   3.381  14.404 -0.2815 -0.1881  0.2657
 3802TIP3    H132897   4.815   3.405  14.332  0.6435 -1.6316  0.5076
 3802TIP3    H232898   4.740   3.287  14.391  1.1887 -0.8717  2.8055
 3803TIP3   OH232899   2.399   3.667  13.292 -0.0280  0.0828 -0.4524
 3803TIP3    H132900   2.307   3.694  13.293 -0.3564 -0.9219  1.2810
 3803TIP3    H232901   2.428   3.684  13.203 -1.5698  1.4712 -0.7416
 3804TIP3   OH232902   0.511   0.172  16.403  0.1692  0.0637  0.1594
 3804TIP3    H132903   0.469   0.224  16.471 -1.2965  0.5540 -1.0718
 3804TIP3    H232904   0.553   0.236  16.346  0.3321 -0.2531 -0.0821
 3805TIP3   OH232905   3.918   1.886  13.991  0.0679 -0.2928 -0.1530
 3805TIP3    H132906   3.883   1.810  13.944  1.1840 -0.9053 -0.0111
 3805TIP3    H232907   3.889   1.873  14.081  0.1588 -0.4991 -0.1512
 3806TIP3   OH232908   3.165   3.045   5.092 -0.1545 -0.8414  0.2217
 3806TIP3    H132909   3.166   3.110   5.162 -0.3241  1.3246 -1.6807
 3806TIP3    H232910   3.088   2.991   5.111 -2.5265  2.0737 -0.2342
 3807TIP3   OH232911   0.590   1.975   2.922  0.3767 -0.0975 -0.5595
 3807TIP3    H132912   0.613   2.040   2.988 -3.3153  1.5361 -0.6489
 3807TIP3    H232913   0.648   1.993   2.849  0.5784  2.0315  0.0680
 3808TIP3   OH232914   4.729   4.455  13.228  0.3345  0.2510 -0.5873
 3808TIP3    H132915   4.734   4.361  13.209 -1.2675 -0.0827  0.3836
 3808TIP3    H232916   4.683   4.459  13.312  1.8531  1.8606  0.2234
 3809TIP3   OH232917   3.049   5.040   4.934 -0.4254 -0.3145  0.2075
 3809TIP3    H132918   2.970   4.985   4.939 -0.3143 -0.4042  1.0941
 3809TIP3    H232919   3.022   5.124   4.972 -0.6610  0.3542 -1.3572
 3810TIP3   OH232920   1.303   0.868  16.370  0.3792 -0.2045 -0.6338
 3810TIP3    H132921   1.285   0.953  16.410  1.0654 -0.2662 -0.1827
 3810TIP3    H232922   1.273   0.877  16.280  0.5320  0.5462 -0.6115
 3811TIP3   OH232923   3.108   1.461   4.874 -0.2122  0.1403 -0.4530
 3811TIP3    H132924   3.146   1.548   4.884 -1.4910  0.5695  1.0514
 3811TIP3    H232925   3.032   1.461   4.933  0.9602 -2.7139  1.2146
 3812TIP3   OH232926   4.303   6.282  15.918 -0.3279  0.0418  0.1662
 3812TIP3    H132927   4.324   6.325  16.001 -0.9500  0.5397  0.0778
 3812TIP3    H232928   4.296   6.189  15.939 -1.2746  0.2528  0.8420
 3813TIP3   OH232929   4.747   2.476   3.600  0.3659  0.5289 -0.0579
 3813TIP3    H132930   4.751   2.387   3.566 -0.8863  0.8539 -1.1430
 3813TIP3    H232931   4.752   2.466   3.695  0.7244 -0.6484 -0.1828
 3814TIP3   OH232932   6.764   3.265   5.564 -0.4059  0.3954 -0.3424
 3814TIP3    H132933   6.788   3.355   5.585 -1.6620  0.3171  1.6979
 3814TIP3    H232934   6.795   3.252   5.474  0.8055  2.4717 -0.2840
 3815TIP3   OH232935   1.850   1.028  15.225 -0.3545  0.4864  0.2840
 3815TIP3    H132936   1.873   0.938  15.249 -2.0949 -0.3846 -1.1058
 3815TIP3    H232937   1.842   1.073  15.308  1.4493 -0.3834  0.9851
 3816TIP3   OH232938   0.266   5.672   5.602  0.0653  0.2503  0.2736
 3816TIP3    H132939   0.344   5.718   5.633 -0.5013  1.4158  0.0360
 3816TIP3    H232940   0.266   5.687   5.507  0.9874 -2.0338 -0.1690
 3817TIP3   OH232941   3.185   3.975  12.923  0.0991 -0.2656  0.3003
 3817TIP3    H132942   3.234   3.925  12.858 -0.7299 -1.8446  0.8397
 3817TIP3    H232943   3.223   3.951  13.007  0.9756  1.5504  0.4763
 3818TIP3   OH232944   6.052   6.350   5.789  0.6071  0.7356 -0.3412
 3818TIP3    H132945   5.991   6.362   5.861  0.0568  1.3822 -0.9050
 3818TIP3    H232946   5.998   6.315   5.717  1.1653 -0.0042 -0.4164
 3819TIP3   OH232947   2.997   4.140   6.682  0.1382 -0.3128 -0.1773
 3819TIP3    H132948   3.082   4.098   6.697 -0.1052 -0.7131  0.1292
 3819TIP3    H232949   2.964   4.158   6.770 -0.3620 -0.7134 -0.2812
 3820TIP3   OH232950   1.243   0.715   1.256 -0.2864  0.0581 -0.3436
 3820TIP3    H132951   1.156   0.746   1.229  0.1210  1.2342 -0.3224
 3820TIP3    H232952   1.277   0.670   1.179 -0.6766  0.1044 -0.5461
 3821TIP3   OH232953   4.678   5.345  13.455 -0.1637  0.1248 -0.8419
 3821TIP3    H132954   4.758   5.311  13.415  1.2698  2.4734 -0.1790
 3821TIP3    H232955   4.648   5.275  13.513  0.3550 -1.4914 -2.4324
 3822TIP3   OH232956   2.671   5.901   2.630  0.3125 -0.3117  0.0897
 3822TIP3    H132957   2.719   5.912   2.711  0.2477 -0.3636  0.1351
 3822TIP3    H232958   2.586   5.865   2.656 -0.6946  2.0649  0.2612
 3823TIP3   OH232959   5.685   0.373  16.496 -0.3469  0.3487 -0.5117
 3823TIP3    H132960   5.614   0.398  16.437 -0.8535 -0.6023 -0.3349
 3823TIP3    H232961   5.706   0.283  16.470  1.1369  0.7882 -0.8864
 3824TIP3   OH232962   6.321   3.924  12.082  0.5271  0.3739 -0.0623
 3824TIP3    H132963   6.242   3.875  12.106 -0.6435  2.4640  0.5589
 3824TIP3    H232964   6.311   3.940  11.988  0.5570  0.0339 -0.1236
 3825TIP3   OH232965   3.767   0.545   2.967 -0.0309 -0.3414  0.2233
 3825TIP3    H132966   3.734   0.602   2.897 -0.7363 -2.0314 -0.8944
 3825TIP3    H232967   3.701   0.553   3.036 -1.4375 -1.6051 -0.9086
 3826TIP3   OH232968   4.416   3.458  13.464  0.2907 -0.2643 -0.5321
 3826TIP3    H132969   4.418   3.545  13.426  1.4153  1.5162  3.1065
 3826TIP3    H232970   4.329   3.450  13.504  1.4892  1.1403  2.7358
 3827TIP3   OH232971   1.954   3.315  12.365  0.0074 -0.4693 -0.2052
 3827TIP3    H132972   1.962   3.295  12.459 -0.5471  1.6066  0.3207
 3827TIP3    H232973   1.861   3.331  12.352 -0.0065 -1.2899 -1.2715
 3828TIP3   OH232974   4.043   5.798   2.531 -0.3019 -0.1685 -0.0240
 3828TIP3    H132975   4.003   5.869   2.581 -1.5741  0.0800 -1.3179
 3828TIP3    H232976   3.978   5.728   2.532 -0.2305 -0.2642 -1.0605
 3829TIP3   OH232977   0.046   3.190   3.305  0.0137  0.2732 -0.3746
 3829TIP3    H132978   0.127   3.178   3.353 -0.4012 -1.2683  0.0181
 3829TIP3    H232979   0.044   3.283   3.283  1.1941  0.6124  0.8176
 3830TIP3   OH232980   5.028   3.195  12.996 -0.2906 -0.3287  0.0708
 3830TIP3    H132981   5.105   3.140  12.984  0.0866  0.4706 -1.4893
 3830TIP3    H232982   4.955   3.144  12.960 -0.2201 -0.4445  0.0941
 3831TIP3   OH232983   5.619   2.475   3.457 -0.3744  0.6125  0.5269
 3831TIP3    H132984   5.574   2.410   3.510  1.1949 -2.4742 -1.5966
 3831TIP3    H232985   5.578   2.468   3.370  1.7037  0.2993 -0.5034
 3832TIP3   OH232986   4.333   6.664   0.683  0.6904  0.0898 -0.4631
 3832TIP3    H132987   4.319   6.570   0.668  1.9717 -0.4375  1.2575
 3832TIP3    H232988   4.248   6.704   0.667  0.0350 -1.4178 -0.9183
 3833TIP3   OH232989   2.774   1.921  16.330 -0.3704 -0.1659  0.0732
 3833TIP3    H132990   2.769   1.825  16.325  0.6990 -0.2017 -0.4441
 3833TIP3    H232991   2.714   1.952  16.262  0.1517 -0.4857 -0.5418
 3834TIP3   OH232992   2.365   5.113  15.397  0.3612 -0.0605 -0.3647
 3834TIP3    H132993   2.361   5.026  15.359 -1.4682 -0.2205  0.0910
 3834TIP3    H232994   2.360   5.172  15.322 -0.0019 -0.3687 -0.5905
 3835TIP3   OH232995   0.842   1.525  14.291  0.9668 -0.2267 -0.1530
 3835TIP3    H132996   0.889   1.539  14.210  1.6414 -0.1809  0.2378
 3835TIP3    H232997   0.752   1.550  14.271  1.1533 -0.0857 -0.8425
 3836TIP3   OH232998   6.214   0.379   4.155 -0.6745  0.3043 -0.3739
 3836TIP3    H132999   6.236   0.421   4.072  0.8216  0.3613  0.0212
 3836TIP3    H233000   6.130   0.416   4.179 -0.1257  1.9020 -0.8057
 3837TIP3   OH233001   2.969   3.507   3.292  0.2734  0.4692 -0.2571
 3837TIP3    H133002   2.906   3.533   3.224  0.5804  1.6866 -0.1024
 3837TIP3    H233003   3.046   3.560   3.274  0.7060  0.1005  0.4786
 3838TIP3   OH233004   4.283   0.667  13.937 -0.3591  0.3762  0.7278
 3838TIP3    H133005   4.205   0.706  13.976  1.0442  3.3518  0.8416
 3838TIP3    H233006   4.256   0.580  13.910 -3.8350  1.4113  0.4149
 3839TIP3   OH233007   1.181   6.106  11.964  0.0855 -0.2076 -0.6806
 3839TIP3    H133008   1.230   6.167  11.909 -0.8186  0.9784 -0.2235
 3839TIP3    H233009   1.126   6.163  12.019 -0.8438 -1.4429 -0.2996
 3840TIP3   OH233010   3.602   2.538   1.046 -0.6094 -0.4597 -0.0172
 3840TIP3    H133011   3.682   2.522   1.096  0.3171 -1.6714 -1.7524
 3840TIP3    H233012   3.537   2.479   1.084 -0.4366 -0.0872  0.8651
 3841TIP3   OH233013   0.186   1.556   1.984 -0.1443 -0.0617 -0.1345
 3841TIP3    H133014   0.130   1.633   1.977 -0.0831 -0.0253 -0.2451
 3841TIP3    H233015   0.271   1.586   1.951  0.2331  0.1861  1.0493
 3842TIP3   OH233016   4.952   2.030  12.488 -0.5823  0.2972  0.5504
 3842TIP3    H133017   4.894   2.103  12.508 -0.3754  1.0189 -1.2762
 3842TIP3    H233018   5.035   2.052  12.530 -0.6781  0.8713  0.4392
 3843TIP3   OH233019   1.040   5.232  15.574 -0.1087  0.0650 -0.3646
 3843TIP3    H133020   1.024   5.137  15.576  0.6015 -0.0740 -1.0184
 3843TIP3    H233021   1.100   5.248  15.647 -1.1150  0.1957  0.4584
 3844TIP3   OH233022   3.196   6.643   3.390  0.0247 -0.7407  0.7162
 3844TIP3    H133023   3.209   6.666   3.298  0.4952  2.4390  1.4761
 3844TIP3    H233024   3.122   6.581   3.388  0.0870 -0.8561 -1.7733
 3845TIP3   OH233025   3.876   2.816   2.006  0.4446 -0.6913 -0.3509
 3845TIP3    H133026   3.963   2.778   2.021  0.1575 -1.1316  0.2452
 3845TIP3    H233027   3.816   2.759   2.055  0.0152  0.6030  0.6809
 3846TIP3   OH233028   6.360   5.818   3.828 -0.4633  0.4421  0.0916
 3846TIP3    H133029   6.387   5.898   3.784 -2.1351  2.0067  1.7094
 3846TIP3    H233030   6.372   5.836   3.921  0.9458 -1.9500  0.4628
 3847TIP3   OH233031   0.935   3.623  13.092 -0.5645  0.3079  0.8026
 3847TIP3    H133032   0.840   3.630  13.097 -0.5713 -0.2332  1.5633
 3847TIP3    H233033   0.954   3.614  12.999 -1.2333  0.6903  0.6249
 3848TIP3   OH233034   0.083   0.237   1.058  0.0114  0.3572 -0.2571
 3848TIP3    H133035   0.062   0.316   1.108  0.0132 -0.6849  1.4910
 3848TIP3    H233036   0.175   0.219   1.078 -0.3595 -0.8288  0.4935
 3849TIP3   OH233037   6.693   4.608   2.635 -0.0712  0.9877  0.2129
 3849TIP3    H133038   6.716   4.584   2.546 -0.1380 -0.0811  0.4722
 3849TIP3    H233039   6.769   4.582   2.687 -0.2745  1.0533  0.5474
 3850TIP3   OH233040   1.326   2.764  13.949  0.6549  0.7871  0.4729
 3850TIP3    H133041   1.316   2.857  13.968 -0.1577  0.4839  1.6161
 3850TIP3    H233042   1.330   2.722  14.035 -2.4661 -0.5828  0.0699
 3851TIP3   OH233043   1.947   1.128  16.725 -0.6316  0.0943  0.4043
 3851TIP3    H133044   2.014   1.196  16.734 -2.0361  1.3060  2.0607
 3851TIP3    H233045   1.892   1.158  16.653  0.6783 -1.0722 -1.1953
 3852TIP3   OH233046   6.491   5.262   6.104 -0.6704  0.0180 -0.3398
 3852TIP3    H133047   6.477   5.353   6.130  1.7835  0.4085 -0.1985
 3852TIP3    H233048   6.469   5.260   6.011 -4.8505 -0.3170  0.4350
 3853TIP3   OH233049   2.043   1.352  14.365 -0.1707  0.3715  0.2145
 3853TIP3    H133050   1.958   1.369  14.326 -0.8038  0.6367  1.6557
 3853TIP3    H233051   2.085   1.438  14.370 -0.4714  0.4799  0.9574
 3854TIP3   OH233052   0.376   2.188   4.847  0.8701  0.0313 -0.2757
 3854TIP3    H133053   0.419   2.186   4.933 -0.1191 -0.5427  0.2213
 3854TIP3    H233054   0.434   2.240   4.792  1.8717 -0.1798  0.5565
 3855TIP3   OH233055   6.448   1.759   3.339  0.0352  0.0292 -0.3751
 3855TIP3    H133056   6.479   1.682   3.386  2.7647  0.0256 -1.9423
 3855TIP3    H233057   6.513   1.827   3.359 -0.2285  0.7822 -1.9288
 3856TIP3   OH233058   2.033   5.635  13.556  0.3730 -0.1993  0.3449
 3856TIP3    H133059   2.107   5.588  13.520  0.9697  0.4795  0.6569
 3856TIP3    H233060   1.956   5.592  13.519  0.9291 -0.6752 -0.2653
 3857TIP3   OH233061   5.044   1.846   1.669 -0.3493  0.2364 -0.6826
 3857TIP3    H133062   5.103   1.812   1.603 -1.2696 -1.7104 -0.5740
 3857TIP3    H233063   5.074   1.807   1.751  0.8797  2.7416  0.1718
 3858TIP3   OH233064   6.640   1.416   4.518  0.1553 -0.3819 -0.8030
 3858TIP3    H133065   6.644   1.498   4.566  1.5697 -1.1346  0.4524
 3858TIP3    H233066   6.548   1.389   4.525 -0.2858  0.9829 -1.0886
 3859TIP3   OH233067   0.362   2.835  13.854 -1.1030  0.5210  0.1335
 3859TIP3    H133068   0.401   2.783  13.924 -2.3926  0.8217  1.0987
 3859TIP3    H233069   0.316   2.906  13.899 -1.5650  1.0005 -1.0490
 3860TIP3   OH233070   5.611   3.149   3.488  0.0814  0.1313  0.4053
 3860TIP3    H133071   5.595   3.172   3.579 -2.0621  0.7455 -0.0666
 3860TIP3    H233072   5.639   3.230   3.446  0.0464  0.0959  0.3116
 3861TIP3   OH233073   4.167   2.781  11.146 -0.1626 -0.0936 -0.0673
 3861TIP3    H133074   4.089   2.827  11.116  0.2151 -0.7833 -2.3747
 3861TIP3    H233075   4.162   2.696  11.102  1.6377 -0.3222  0.0960
 3862TIP3   OH233076   5.099   4.245  16.240  0.3798 -0.3173  0.3319
 3862TIP3    H133077   5.056   4.227  16.323  0.8037 -1.4024  0.3327
 3862TIP3    H233078   5.182   4.198  16.245  0.6241 -0.0023 -0.5160
 3863TIP3   OH233079   1.804   5.829   5.254 -0.3460  0.1379  0.5540
 3863TIP3    H133080   1.767   5.908   5.293  0.8352 -0.3306  2.7466
 3863TIP3    H233081   1.895   5.852   5.233  0.1892 -0.7838  1.7641
 3864TIP3   OH233082   1.875   6.330   1.354 -0.6995  0.1728  0.2502
 3864TIP3    H133083   1.801   6.340   1.413 -0.8886 -0.1079  0.0645
 3864TIP3    H233084   1.845   6.364   1.270 -0.7201 -0.2033  0.1002
 3865TIP3   OH233085   3.863   1.241  13.815 -0.0136  0.1965  0.0999
 3865TIP3    H133086   3.790   1.302  13.830  1.1524  1.7606 -0.3253
 3865TIP3    H233087   3.941   1.294  13.828  1.0891 -1.6523  1.3656
 3866TIP3   OH233088   6.452   2.143   4.572 -0.1536  0.0558  0.2316
 3866TIP3    H133089   6.524   2.182   4.523 -0.2131  1.7309  1.3748
 3866TIP3    H233090   6.474   2.160   4.664 -1.8841  0.4146  0.6188
 3867TIP3   OH233091   2.327   1.030   1.263 -0.0533  0.0946 -0.1402
 3867TIP3    H133092   2.353   1.079   1.341  2.5716  0.9335 -1.4413
 3867TIP3    H233093   2.361   0.942   1.277 -0.4147 -0.0149  0.0581
 3868TIP3   OH233094   0.597   5.147  14.275  0.9163 -0.4465 -0.5191
 3868TIP3    H133095   0.618   5.078  14.338  2.2151 -0.8940 -1.3907
 3868TIP3    H233096   0.680   5.194  14.262 -0.1036  1.8688  0.6830
 3869TIP3   OH233097   0.319   4.210   1.494 -0.9336 -0.5654  0.1470
 3869TIP3    H133098   0.266   4.279   1.534  0.0553 -0.2739  1.0148
 3869TIP3    H233099   0.361   4.166   1.568 -0.4513 -1.1862 -0.4785
 3870TIP3   OH233100   0.879   5.834   3.282  0.1755 -0.5346  0.5406
 3870TIP3    H133101   0.898   5.740   3.292  0.3121 -0.5126  0.5007
 3870TIP3    H233102   0.916   5.874   3.361  0.8127 -0.4213  0.1963
 3871TIP3   OH233103   5.755   0.458   5.118 -0.1779  0.2341  0.4065
 3871TIP3    H133104   5.773   0.550   5.138  0.8107  0.3765 -0.9577
 3871TIP3    H233105   5.659   0.453   5.112 -0.3017  0.9106  1.6072
 3872TIP3   OH233106   6.589   0.551  16.104 -0.3533  0.2763  0.3626
 3872TIP3    H133107   6.561   0.549  16.012  0.1946  1.9160  0.1263
 3872TIP3    H233108   6.674   0.595  16.101 -0.7617  1.2218  1.7421
 3873TIP3   OH233109   0.103   1.136  15.998  0.0231 -0.0313 -0.0562
 3873TIP3    H133110   0.118   1.099  16.085 -0.4111  1.4171  0.6540
 3873TIP3    H233111   0.158   1.214  15.995 -1.6117  1.1564 -0.2397
 3874TIP3   OH233112   5.230   6.567   3.353  0.1891 -0.4162  0.2064
 3874TIP3    H133113   5.233   6.617   3.434 -0.0408 -1.8590  1.1511
 3874TIP3    H233114   5.305   6.507   3.360  1.4425  0.8574 -1.6395
 3875TIP3   OH233115   3.260   2.816   4.380 -0.3764  0.4473  0.0335
 3875TIP3    H133116   3.277   2.740   4.435 -0.7939  0.0577 -0.3673
 3875TIP3    H233117   3.166   2.832   4.391 -0.3391  0.7480 -0.0807
 3876TIP3   OH233118   2.281   2.212  15.745  0.6888  0.2617  0.1796
 3876TIP3    H133119   2.233   2.175  15.820  0.6764  0.7743  0.4295
 3876TIP3    H233120   2.347   2.270  15.785  0.0807  1.2560 -0.2290
 3877TIP3   OH233121   5.737   2.436  11.718  0.1557  0.0162  0.0108
 3877TIP3    H133122   5.673   2.497  11.680  0.3909  0.4908  0.3665
 3877TIP3    H233123   5.688   2.354  11.729  0.6383 -0.8758 -3.3645
 3878TIP3   OH233124   0.509   1.570   2.513  0.2141 -0.0445 -0.6107
 3878TIP3    H133125   0.586   1.513   2.512 -0.1061 -0.5302  0.5571
 3878TIP3    H233126   0.523   1.631   2.440  2.1213  0.4495  0.1074
 3879TIP3   OH233127   5.544   2.507   2.499  0.0004 -0.1691  0.8249
 3879TIP3    H133128   5.490   2.464   2.565  0.2406 -0.8210  0.6064
 3879TIP3    H233129   5.614   2.548   2.550  0.4597 -1.0763  0.9567
 3880TIP3   OH233130   5.803   0.133   0.514  0.4175 -0.2674  0.5454
 3880TIP3    H133131   5.841   0.206   0.465 -0.1680  0.5422  1.2536
 3880TIP3    H233132   5.738   0.095   0.455  0.7553 -0.2488  0.1568
 3881TIP3   OH233133   5.202   2.160   2.001  0.2755  0.0380 -0.4343
 3881TIP3    H133134   5.214   2.097   2.073  0.7064  1.0636  0.4141
 3881TIP3    H233135   5.291   2.191   1.982  0.0086  0.7675 -0.4943
 3882TIP3   OH233136   2.455   3.891   0.120  0.4948 -0.0082 -0.6158
 3882TIP3    H133137   2.501   3.807   0.129 -0.9828 -0.8348 -0.3462
 3882TIP3    H233138   2.508   3.953   0.169  0.3560 -1.3240  1.3496
 3883TIP3   OH233139   4.910   3.115  15.007  0.1109 -0.3824 -0.5936
 3883TIP3    H133140   4.916   3.210  15.018  1.1395 -0.5605  0.6313
 3883TIP3    H233141   4.906   3.081  15.096  1.2920 -1.5570 -0.9568
 3884TIP3   OH233142   6.773   5.405   6.246 -0.1464 -0.1672 -0.3060
 3884TIP3    H133143   6.779   5.377   6.337  0.3855 -2.2640 -0.9168
 3884TIP3    H233144   6.681   5.428   6.234 -0.1052  0.6986  0.8951
 3885TIP3   OH233145   2.028   2.868   2.277  0.1783  0.4065  0.7150
 3885TIP3    H133146   1.978   2.797   2.319 -1.3060  0.2147 -1.2311
 3885TIP3    H233147   1.962   2.917   2.228  1.4785  2.0597  0.5542
 3886TIP3   OH233148   3.888   5.107  15.365 -0.3207  0.7621  0.0867
 3886TIP3    H133149   3.965   5.080  15.416 -0.0478  1.6251  0.1467
 3886TIP3    H233150   3.814   5.095  15.425  0.1059  2.7711  1.1037
 3887TIP3   OH233151   4.766   4.843   3.250 -0.2232 -0.1638  0.5284
 3887TIP3    H133152   4.854   4.825   3.285  0.7119  1.8302 -0.6536
 3887TIP3    H233153   4.746   4.931   3.281 -1.0682  0.0724 -0.6327
 3888TIP3   OH233154   4.233   1.900  15.994 -0.3887 -0.2489 -0.2805
 3888TIP3    H133155   4.327   1.910  15.985 -0.2945 -0.5958  0.2882
 3888TIP3    H233156   4.200   1.902  15.904  0.2370 -0.9245 -0.5331
 3889TIP3   OH233157   2.924   3.963  11.673  0.2440 -0.0306 -0.0844
 3889TIP3    H133158   2.898   3.936  11.585 -0.7408  0.0467  0.1630
 3889TIP3    H233159   2.888   4.051  11.683 -0.6867 -0.4864  0.8011
 3890TIP3   OH233160   4.717   2.346  10.978  0.0122  0.0599  0.2673
 3890TIP3    H133161   4.809   2.334  10.953 -0.3255 -0.6595 -0.7064
 3890TIP3    H233162   4.685   2.414  10.919 -0.2592 -0.1913  0.1220
 3891TIP3   OH233163   4.435   2.856   6.004 -0.3147 -0.3326 -0.2609
 3891TIP3    H133164   4.452   2.945   6.037  2.1610 -0.4286 -1.0514
 3891TIP3    H233165   4.437   2.801   6.082 -1.5765  0.2368  0.2030
 3892TIP3   OH233166   1.771   3.737   4.296 -0.2183 -0.4238  0.9518
 3892TIP3    H133167   1.804   3.815   4.252 -0.0987 -0.8010  0.3609
 3892TIP3    H233168   1.839   3.671   4.282 -2.2870 -2.0636 -2.6931
 3893TIP3   OH233169   3.216   5.054   1.992  0.1865  0.2995 -0.0272
 3893TIP3    H133170   3.286   4.993   1.971 -0.4412  0.0632 -1.5330
 3893TIP3    H233171   3.225   5.070   2.086 -0.3973 -3.1246  0.7276
 3894TIP3   OH233172   5.457   4.122   1.093 -0.3162 -0.1147 -0.2693
 3894TIP3    H133173   5.441   4.186   1.024 -3.2708  0.7976  1.0867
 3894TIP3    H233174   5.528   4.160   1.145  2.1553 -0.9676 -2.8293
 3895TIP3   OH233175   6.613   0.134  16.222  0.3845  0.1577  0.4820
 3895TIP3    H133176   6.572   0.215  16.191 -0.4616 -0.5453 -0.2803
 3895TIP3    H233177   6.577   0.066  16.166  0.7988 -0.8025  1.3551
 3896TIP3   OH233178   1.879   3.580   4.962 -0.4189  0.5905  0.1127
 3896TIP3    H133179   1.860   3.674   4.964  1.3295  0.9772  1.9825
 3896TIP3    H233180   1.859   3.550   5.051  2.1141 -0.0682  0.5398
 3897TIP3   OH233181   6.411   3.234  13.116 -0.2902 -0.6482 -0.0532
 3897TIP3    H133182   6.337   3.210  13.060 -0.2089  0.1387 -0.5102
 3897TIP3    H233183   6.465   3.155  13.119 -1.1589 -1.2449  0.3179
 3898TIP3   OH233184   3.100   0.375   2.653 -0.2892  0.3193  0.6572
 3898TIP3    H133185   3.096   0.333   2.567 -0.4911  2.2036 -0.3208
 3898TIP3    H233186   3.061   0.312   2.713 -0.8378 -0.7452 -0.7595
 3899TIP3   OH233187   6.824   5.494   4.449 -0.2863 -0.0294  0.0564
 3899TIP3    H133188   6.749   5.552   4.441  0.4098  0.6623 -1.9523
 3899TIP3    H233189   6.875   5.509   4.370  2.1061 -0.3220  1.4465
 3900TIP3   OH233190   1.666   1.777   5.530  0.3175 -0.1452  0.2149
 3900TIP3    H133191   1.656   1.702   5.589 -0.3164  0.4489  0.8806
 3900TIP3    H233192   1.744   1.756   5.477 -0.3659 -1.6892 -0.2485
 3901TIP3   OH233193   4.749   4.139  14.063  0.3803 -0.2927 -0.1432
 3901TIP3    H133194   4.736   4.219  14.114 -0.1108 -1.9144  2.4673
 3901TIP3    H233195   4.844   4.129  14.057  0.4403  0.2212 -0.0948
 3902TIP3   OH233196   6.274   6.701   0.438  0.1499 -0.0314  0.2575
 3902TIP3    H133197   6.229   6.734   0.516 -1.0118 -0.0368 -0.3896
 3902TIP3    H233198   6.337   6.637   0.472  0.1155  0.4330  1.2392
 3903TIP3   OH233199   3.342   5.713  14.671 -0.4726 -0.1186 -0.1636
 3903TIP3    H133200   3.380   5.691  14.755 -1.7528 -1.0865  0.2006
 3903TIP3    H233201   3.302   5.799  14.685 -1.4823 -0.6717  0.5307
 3904TIP3   OH233202   4.915   3.856  15.546 -0.0400  0.6001  0.6131
 3904TIP3    H133203   4.842   3.917  15.553 -1.2659 -0.7549  0.1390
 3904TIP3    H233204   4.970   3.875  15.622 -2.4537 -0.3018  2.7240
 3905TIP3   OH233205   3.621   2.401   3.121 -0.0671  0.2216 -0.3737
 3905TIP3    H133206   3.625   2.408   3.025 -0.9841  2.2910 -0.3175
 3905TIP3    H233207   3.677   2.472   3.152 -0.3748  0.0431  0.6186
 3906TIP3   OH233208   3.430   5.010  14.096  0.3261  0.0586  0.2835
 3906TIP3    H133209   3.336   5.002  14.113  0.3967 -0.4519  0.4642
 3906TIP3    H233210   3.468   4.936  14.143  0.8736  0.5635  0.6450
 3907TIP3   OH233211   5.046   3.057  17.064  0.2797  0.4299  0.3581
 3907TIP3    H133212   5.130   3.066  17.109  0.4442 -1.3256  0.4712
 3907TIP3    H233213   5.004   3.142  17.074  1.1253  0.6700  2.1741
 3908TIP3   OH233214   5.603   6.586  15.814  0.3153  0.5568  0.5294
 3908TIP3    H133215   5.638   6.519  15.873 -0.2503 -0.6809 -0.4998
 3908TIP3    H233216   5.671   6.654  15.813  1.6637 -0.7277  0.3650
 3909TIP3   OH233217   0.625   0.660  13.702 -0.1784 -0.1906 -0.0125
 3909TIP3    H133218   0.658   0.679  13.614  0.3455  0.5383  0.3370
 3909TIP3    H233219   0.703   0.643  13.754 -0.3704  0.8330  0.6469
 3910TIP3   OH233220   5.939   2.514   3.816  0.2403  0.0557 -0.0826
 3910TIP3    H133221   6.025   2.473   3.827  0.5515  1.1429  1.9813
 3910TIP3    H233222   5.954   2.607   3.829 -1.6678  0.0131  3.9691
 3911TIP3   OH233223   2.004   5.739   4.898  0.5494 -0.3943 -0.1734
 3911TIP3    H133224   1.990   5.789   4.817  1.6059  0.0368 -0.1061
 3911TIP3    H233225   1.980   5.800   4.968  1.0498 -0.2481 -0.1214
 3912TIP3   OH233226   4.750   1.846   1.280  0.1170  0.1241 -0.4579
 3912TIP3    H133227   4.734   1.858   1.186 -2.3397  1.8654  0.1039
 3912TIP3    H233228   4.749   1.934   1.316  1.5931 -0.4724  1.1857
 3913TIP3   OH233229   5.788   0.450   4.699  0.7799 -0.1111  0.1506
 3913TIP3    H133230   5.735   0.515   4.745 -0.3424 -0.9796  0.0996
 3913TIP3    H233231   5.840   0.409   4.768 -0.4508 -0.9844  0.5790
 3914TIP3   OH233232   0.996   4.429  16.872  0.2396  0.0805  0.3653
 3914TIP3    H133233   0.996   4.524  16.873  0.6357  0.1263 -1.2477
 3914TIP3    H233234   0.959   4.404  16.957 -0.4947  1.6606  0.5432
 3915TIP3   OH233235   4.781   5.648   1.106 -0.7536 -0.0715 -0.2054
 3915TIP3    H133236   4.866   5.686   1.128 -0.2275 -1.0501 -0.4491
 3915TIP3    H233237   4.752   5.604   1.186  0.5953 -2.6071 -1.0094
 3916TIP3   OH233238   3.602   2.961  14.928 -0.2832 -0.1245  0.1627
 3916TIP3    H133239   3.673   2.899  14.913  1.0597  1.2547  0.4365
 3916TIP3    H233240   3.589   3.003  14.843 -0.7642 -0.3616  0.1186
 3917TIP3   OH233241   6.738   2.784   5.399  0.1340 -0.5170  0.0782
 3917TIP3    H133242   6.721   2.714   5.336  1.5903 -1.4460  0.6517
 3917TIP3    H233243   6.674   2.852   5.378  0.8842 -0.5622 -2.7302
 3918TIP3   OH233244   0.198   0.198   6.521  0.4710  0.0135 -0.3999
 3918TIP3    H133245   0.143   0.234   6.590  1.7325  0.6957  0.2909
 3918TIP3    H233246   0.155   0.116   6.497 -0.6572  0.3678  0.3291
 3919TIP3   OH233247   5.299   6.179   1.608  0.1949  0.1089  0.2548
 3919TIP3    H133248   5.338   6.256   1.566  1.0651 -0.4355  0.0286
 3919TIP3    H233249   5.290   6.203   1.700 -2.1003  1.4658 -0.2480
 3920TIP3   OH233250   0.028   3.650  15.084 -0.6609  0.1530 -0.6216
 3920TIP3    H133251  -0.022   3.698  15.019 -0.3249 -0.0687 -1.0467
 3920TIP3    H233252   0.026   3.559  15.054  1.4792  0.3710 -1.6434
 3921TIP3   OH233253   0.888   3.656  14.348  0.0014  0.1940 -0.3896
 3921TIP3    H133254   0.956   3.629  14.410 -0.4083  2.0925  0.9884
 3921TIP3    H233255   0.937   3.685  14.270  0.7474  0.7215  0.2542
 3922TIP3   OH233256   0.238   3.384  13.669 -0.1278 -0.2846 -0.7247
 3922TIP3    H133257   0.222   3.303  13.620 -1.6853 -0.0049 -0.7299
 3922TIP3    H233258   0.156   3.401  13.715 -0.2908  1.9667 -1.7316
 3923TIP3   OH233259   5.314   3.243  12.223 -0.0927 -0.4090 -0.1228
 3923TIP3    H133260   5.289   3.304  12.291 -0.3432  0.2313 -0.7729
 3923TIP3    H233261   5.318   3.158  12.266  1.7015  0.2618  1.1328
 3924TIP3   OH233262   6.133   2.968   2.270  0.8387 -0.6125  0.2082
 3924TIP3    H133263   6.170   2.881   2.255  0.0145 -1.0342  0.5488
 3924TIP3    H233264   6.182   3.003   2.344  1.5654 -0.5408 -0.2945
 3925TIP3   OH233265   5.324   0.283   4.914 -0.1557  0.3537 -0.4883
 3925TIP3    H133266   5.265   0.349   4.951 -0.6128  0.7495 -1.8270
 3925TIP3    H233267   5.267   0.231   4.856  0.8058  0.8399 -1.9280
 3926TIP3   OH233268   4.957   4.597  12.464 -0.1540  0.0068  0.1419
 3926TIP3    H133269   5.047   4.629  12.469  0.0940 -0.6356 -0.1049
 3926TIP3    H233270   4.938   4.591  12.370 -0.4380  0.0840  0.1906
 3927TIP3   OH233271   1.508   0.028   6.220  0.3012  0.6794 -0.2277
 3927TIP3    H133272   1.604   0.033   6.216  0.3686  0.1376  0.4660
 3927TIP3    H233273   1.486   0.059   6.308 -0.2068  1.2944 -0.5620
 3928TIP3   OH233274   0.163   4.240   3.213  0.4550 -0.1910  0.3890
 3928TIP3    H133275   0.173   4.147   3.234  0.3490 -0.0716  0.9974
 3928TIP3    H233276   0.070   4.258   3.229  0.6123  0.1699  0.9357
 3929TIP3   OH233277   6.629   5.486   0.258 -0.3852 -0.6205 -0.0573
 3929TIP3    H133278   6.617   5.406   0.309  0.2238 -1.3451 -1.0097
 3929TIP3    H233279   6.607   5.461   0.168 -1.2442  0.5764 -0.1987
 3930TIP3   OH233280   3.142   3.669   4.982 -0.0300  0.0162 -0.4333
 3930TIP3    H133281   3.175   3.598   4.927 -0.0566  0.1967 -0.6860
 3930TIP3    H233282   3.053   3.643   5.005 -0.4936  0.5425 -1.5562
 3931TIP3   OH233283   2.705   4.677  14.629  0.2911 -0.0161  0.1558
 3931TIP3    H133284   2.664   4.591  14.637  0.2593 -0.1131 -0.9322
 3931TIP3    H233285   2.665   4.730  14.698 -1.2229 -0.2756 -0.4976
 3932TIP3   OH233286   4.479   1.118   0.602  0.1575 -0.1066  0.1012
 3932TIP3    H133287   4.465   1.028   0.630  0.3539 -0.6124 -1.3400
 3932TIP3    H233288   4.429   1.126   0.521 -1.1501  1.5701  0.9968
 3933TIP3   OH233289   2.437   4.674   2.608 -0.1241  0.1512 -0.3590
 3933TIP3    H133290   2.529   4.656   2.627  0.0294  0.3144 -0.9138
 3933TIP3    H233291   2.436   4.763   2.574 -0.4559  0.0711 -0.5671
 3934TIP3   OH233292   0.218   1.518   6.796  0.1330 -0.1947  0.6595
 3934TIP3    H133293   0.241   1.526   6.704 -1.7059 -0.9451  0.0862
 3934TIP3    H233294   0.248   1.600   6.835 -1.6059  1.4425 -1.2198
 3935TIP3   OH233295   3.102   0.583   5.900 -0.0836 -0.1386  0.2639
 3935TIP3    H133296   3.189   0.623   5.903 -0.2604  0.2597  0.2303
 3935TIP3    H233297   3.060   0.611   5.981 -0.7220  0.9521 -0.4134
 3936TIP3   OH233298   1.550   4.210  13.295  0.4472 -0.3647 -0.1059
 3936TIP3    H133299   1.488   4.138  13.305  1.1127 -0.8186  0.8280
 3936TIP3    H233300   1.614   4.178  13.231  0.1460 -0.1749 -0.5117
 3937TIP3   OH233301   0.184   5.777   1.806 -0.0585  0.0063  0.2347
 3937TIP3    H133302   0.213   5.868   1.820 -1.5765  0.6590 -0.5759
 3937TIP3    H233303   0.147   5.778   1.717 -1.7126 -0.9679  0.8840
 3938TIP3   OH233304   1.342   5.617  13.472 -0.5989 -0.1362 -0.0107
 3938TIP3    H133305   1.378   5.567  13.399 -0.9654 -0.1383 -0.1927
 3938TIP3    H233306   1.379   5.705  13.462 -0.5271 -0.1784 -0.1109
 3939TIP3   OH233307   1.559   0.776  15.290  0.2456  0.2330  0.7611
 3939TIP3    H133308   1.579   0.830  15.366  1.6319  1.1116 -0.1826
 3939TIP3    H233309   1.573   0.833  15.215  0.4847 -1.0590 -0.2288
 3940TIP3   OH233310   0.446   2.288  13.909 -0.1998 -0.1245 -0.2042
 3940TIP3    H133311   0.402   2.224  13.967  0.1266 -1.3407 -1.2533
 3940TIP3    H233312   0.464   2.239  13.829  1.1646  0.9642 -0.5964
 3941TIP3   OH233313   1.999   4.181  17.088 -0.3911  0.1271 -0.4495
 3941TIP3    H133314   1.994   4.144  17.176 -0.2525  2.7529  0.7510
 3941TIP3    H233315   1.908   4.203  17.066 -0.2220  1.1516 -0.1645
 3942TIP3   OH233316   4.183   5.328  15.205 -0.1690 -0.5610 -0.7080
 3942TIP3    H133317   4.251   5.271  15.169  0.5315  0.2323 -0.6722
 3942TIP3    H233318   4.101   5.287  15.178  0.3046 -1.8022 -0.3392
 3943TIP3   OH233319   3.357   1.910  12.383  0.0039  0.4326 -0.6117
 3943TIP3    H133320   3.280   1.859  12.358  0.6900 -1.0010  0.0203
 3943TIP3    H233321   3.416   1.845  12.421  0.3004  1.9392  1.7246
 3944TIP3   OH233322   4.347   2.946  12.158  0.4158  0.0963 -0.1439
 3944TIP3    H133323   4.326   3.007  12.228 -0.9708 -0.7202  0.1930
 3944TIP3    H233324   4.425   2.900  12.188  1.5207  1.6994 -0.4301
 3945TIP3   OH233325   5.082   3.001   2.543 -0.3719 -0.1204  0.2707
 3945TIP3    H133326   5.134   2.941   2.596 -1.4421  0.1241  1.6732
 3945TIP3    H233327   5.014   2.945   2.504  0.6963 -0.3827 -1.2809
 3946TIP3   OH233328   1.236   5.602   0.671 -0.2855 -0.0269  0.1793
 3946TIP3    H133329   1.285   5.521   0.678 -0.3498 -0.0391  0.5083
 3946TIP3    H233330   1.177   5.588   0.597 -0.3314 -0.2978  0.2678
 3947TIP3   OH233331   5.839   3.043   1.623  0.2235  0.4190  0.1909
 3947TIP3    H133332   5.827   2.979   1.553  1.3959 -0.4451  0.7380
 3947TIP3    H233333   5.752   3.055   1.661  0.1917 -1.9511  1.0011
 3948TIP3   OH233334   2.368   3.721  15.728  0.0898 -0.6474  0.6336
 3948TIP3    H133335   2.356   3.646  15.669  2.5969  0.0793 -0.9865
 3948TIP3    H233336   2.446   3.698  15.779  0.9651  0.8086  0.0366
 3949TIP3   OH233337   1.945   3.613  13.411  0.2516  0.2304  0.1012
 3949TIP3    H133338   1.860   3.608  13.367  0.7373 -1.9885 -0.7453
 3949TIP3    H233339   1.936   3.553  13.486  0.8462  0.5183  0.4064
 3950TIP3   OH233340   0.788   5.561  14.118 -0.3723 -0.1321  0.1109
 3950TIP3    H133341   0.819   5.634  14.172  2.4512 -1.0859 -0.0696
 3950TIP3    H233342   0.834   5.485  14.152 -0.5187 -1.1995 -1.9610
 3951TIP3   OH233343   1.166   0.885  11.162 -0.6193  0.4291 -0.1306
 3951TIP3    H133344   1.113   0.807  11.174 -0.2378  0.4083  1.6850
 3951TIP3    H233345   1.107   0.949  11.122 -1.0723 -0.5904 -1.1595
 3952TIP3   OH233346   1.253   3.190  15.522  0.2736  0.0958  0.1614
 3952TIP3    H133347   1.307   3.112  15.533 -0.8761 -0.7696 -0.1411
 3952TIP3    H233348   1.220   3.209  15.610 -1.6165 -1.4153 -0.1512
 3953TIP3   OH233349   4.731   1.483  15.819 -0.2432 -0.3238 -0.1554
 3953TIP3    H133350   4.814   1.437  15.811  0.9282  1.5820  0.3463
 3953TIP3    H233351   4.755   1.576  15.825 -2.4632  0.3840 -1.0122
 3954TIP3   OH233352   0.828   4.386  11.968  0.5891  0.4944 -0.1572
 3954TIP3    H133353   0.898   4.365  12.030  0.7542  0.2500 -0.4244
 3954TIP3    H233354   0.810   4.303  11.923  0.1253  0.5584 -0.0861
 3955TIP3   OH233355   0.907   0.629  11.672 -0.0426 -0.5756 -0.4511
 3955TIP3    H133356   0.908   0.540  11.709  0.6772 -0.7292 -0.8382
 3955TIP3    H233357   0.813   0.651  11.667 -0.2251 -1.2859 -0.2866
 3956TIP3   OH233358   4.480   0.450   3.832 -0.7814  0.4285 -0.4393
 3956TIP3    H133359   4.508   0.442   3.923  0.8697  1.3314 -0.8221
 3956TIP3    H233360   4.387   0.430   3.834 -0.5448 -0.7752  1.2496
 3957TIP3   OH233361   3.458   6.542   1.331 -0.2276  0.0956 -0.1520
 3957TIP3    H133362   3.470   6.633   1.301  1.0202 -0.5834 -1.8593
 3957TIP3    H233363   3.439   6.493   1.251  0.6233 -1.3999  0.5379
 3958TIP3   OH233364   4.945   5.032   3.120  0.1902  0.1727  0.2234
 3958TIP3    H133365   5.033   5.020   3.154  0.1911 -1.1009 -0.1589
 3958TIP3    H233366   4.900   4.949   3.140 -1.5793  1.5143  2.2583
 3959TIP3   OH233367   2.444   1.370   3.134 -0.4774  0.5087  0.5099
 3959TIP3    H133368   2.437   1.278   3.160  2.0548  0.6047  1.9000
 3959TIP3    H233369   2.477   1.367   3.044 -2.6570  0.1340 -0.3330
 3960TIP3   OH233370   1.008   4.335  16.485  0.5696 -0.6920  0.0354
 3960TIP3    H133371   1.093   4.367  16.516 -0.2494  0.8348  0.8444
 3960TIP3    H233372   1.025   4.301  16.398  1.9917 -0.2616  0.1215
 3961TIP3   OH233373   5.315   6.307  14.215  0.8073  0.4829 -0.2939
 3961TIP3    H133374   5.381   6.364  14.176  0.6657  0.4030 -0.6564
 3961TIP3    H233375   5.242   6.366  14.235  1.0021  0.5788  0.1479
 3962TIP3   OH233376   1.726   4.384   2.457  0.4781 -0.4093  0.4957
 3962TIP3    H133377   1.774   4.447   2.511  2.6809 -0.8676 -0.7760
 3962TIP3    H233378   1.762   4.397   2.369 -1.8189 -0.8111 -0.5574
 3963TIP3   OH233379   4.637   0.817  12.679 -0.0183  0.8433  0.4244
 3963TIP3    H133380   4.611   0.760  12.607 -0.4724  0.9609  0.4946
 3963TIP3    H233381   4.733   0.817  12.675 -0.0414  1.0629 -0.3445
 3964TIP3   OH233382   0.215   0.544  11.548  0.0850  0.1044  0.0759
 3964TIP3    H133383   0.248   0.510  11.464 -1.3324 -0.5161 -0.2601
 3964TIP3    H233384   0.137   0.594  11.524 -0.8969 -0.8936  1.1062
 3965TIP3   OH233385   5.927   4.770   3.201  0.6418  0.2029  0.2632
 3965TIP3    H133386   5.885   4.688   3.228 -1.3968  1.8730  2.6141
 3965TIP3    H233387   5.956   4.810   3.283 -1.5415  3.3753 -0.3220
 3966TIP3   OH233388   4.118   5.895  12.167  0.2932 -0.2521 -0.2395
 3966TIP3    H133389   4.079   5.975  12.203 -1.1899 -0.2738 -1.6264
 3966TIP3    H233390   4.212   5.910  12.170  0.1157  0.7495  1.2499
 3967TIP3   OH233391   5.064   2.112   1.785  0.1795  0.2508  0.0680
 3967TIP3    H133392   5.114   2.130   1.865  0.5770  2.1463 -0.5563
 3967TIP3    H233393   5.054   2.017   1.784  3.3736 -0.2152  0.4956
 3968TIP3   OH233394   3.869   2.672   5.153 -0.0122 -0.6500  0.3919
 3968TIP3    H133395   3.855   2.734   5.081  1.6248 -1.5348 -0.7589
 3968TIP3    H233396   3.961   2.646   5.144  0.7624  0.3509  3.7476
 3969TIP3   OH233397   4.639   1.327   3.461  0.2290  0.0202  0.4808
 3969TIP3    H133398   4.588   1.247   3.472 -1.4892  0.9138 -0.5140
 3969TIP3    H233399   4.629   1.374   3.544  0.1733 -0.2041  0.6020
 3970TIP3   OH233400   0.203   3.534   4.317  0.0221  0.0593 -0.4566
 3970TIP3    H133401   0.265   3.474   4.359 -0.7217 -0.1759  0.3335
 3970TIP3    H233402   0.118   3.511   4.355 -0.3268  1.3805 -0.3914
 3971TIP3   OH233403   0.540   3.148  13.221  0.3105 -0.5919 -0.0115
 3971TIP3    H133404   0.531   3.082  13.289 -2.4213 -1.3278 -0.9776
 3971TIP3    H233405   0.474   3.125  13.156  1.2043  1.4676 -1.7586
 3972TIP3   OH233406   6.594   0.459  13.671  0.5029 -0.0650  0.6151
 3972TIP3    H133407   6.571   0.440  13.580 -1.5234  0.0598  1.0575
 3972TIP3    H233408   6.570   0.381  13.719  2.2574 -0.4119  0.9809
 3973TIP3   OH233409   5.635   5.285  15.528  0.5315 -0.4059  0.2054
 3973TIP3    H133410   5.568   5.248  15.586 -0.3777  0.7438 -0.0885
 3973TIP3    H233411   5.607   5.375  15.514  0.7462 -0.6375 -1.9759
 3974TIP3   OH233412   5.143   1.589   0.611  0.7691  0.7719 -0.3291
 3974TIP3    H133413   5.176   1.538   0.685  0.0351 -0.3347 -0.7451
 3974TIP3    H233414   5.212   1.584   0.545  1.7717  2.4199  0.5363
 3975TIP3   OH233415   1.151   6.710  14.667  0.2714 -0.1301 -0.7911
 3975TIP3    H133416   1.076   6.767  14.683 -0.5646 -1.5484  0.6825
 3975TIP3    H233417   1.114   6.629  14.634  1.2352 -0.5351 -0.9288
 3976TIP3   OH233418   4.543   5.919   3.234  0.3644 -0.1666  0.0953
 3976TIP3    H133419   4.553   5.823   3.236  1.0139 -0.0965  0.6971
 3976TIP3    H233420   4.479   5.935   3.165 -0.5067 -1.0959  0.6673
 3977TIP3   OH233421   4.217   0.403  15.224  0.4632  0.3474  0.0522
 3977TIP3    H133422   4.158   0.341  15.268  2.5154  0.2755  3.0234
 3977TIP3    H233423   4.273   0.347  15.169 -0.9191  0.2107 -1.2735
 3978TIP3   OH233424   4.390   6.264  14.595  0.1890  0.2802 -0.2599
 3978TIP3    H133425   4.376   6.208  14.672  0.1705  0.5448 -0.0711
 3978TIP3    H233426   4.432   6.206  14.531  1.4457  0.3913  0.4222
 3979TIP3   OH233427   4.492   0.573  14.359 -0.0145  0.3358 -0.3166
 3979TIP3    H133428   4.483   0.662  14.392 -1.7650  0.5219 -1.1651
 3979TIP3    H233429   4.488   0.582  14.263  0.3908 -0.5963 -0.4343
 3980TIP3   OH233430   6.280   0.445   1.411  0.9980  0.4049 -0.2200
 3980TIP3    H133431   6.341   0.379   1.379  0.8195 -0.1707  0.5981
 3980TIP3    H233432   6.335   0.520   1.434  1.3278  0.1114 -0.0558
 3981TIP3   OH233433   3.474   1.682  16.612  0.0647 -0.0485 -0.0204
 3981TIP3    H133434   3.432   1.616  16.556 -0.2592  0.0683  0.0872
 3981TIP3    H233435   3.498   1.753  16.552  2.2734 -1.1141 -0.5232
 3982TIP3   OH233436   6.790   3.457   2.854  0.3387  0.1407 -0.0514
 3982TIP3    H133437   6.809   3.537   2.904  1.6123 -0.8337  1.1095
 3982TIP3    H233438   6.697   3.463   2.833  0.1417  1.3686  1.0487
 3983TIP3   OH233439   6.247   5.870  16.853 -0.2506 -0.0082  0.2830
 3983TIP3    H133440   6.337   5.888  16.827  0.1913 -0.0161  1.7058
 3983TIP3    H233441   6.224   5.789  16.808  0.3367  0.1764 -0.3534
 3984TIP3   OH233442   2.999   4.587  14.740  0.2452 -0.1351  0.4290
 3984TIP3    H133443   3.043   4.657  14.692  0.7293 -0.8241 -0.1646
 3984TIP3    H233444   2.911   4.620  14.756  0.1207  0.1832 -0.8154
 3985TIP3   OH233445   3.631   6.283  16.854 -0.1708  0.6556 -0.3397
 3985TIP3    H133446   3.684   6.360  16.876  0.6887  0.1805 -0.6890
 3985TIP3    H233447   3.583   6.309  16.776  1.7631  0.1527 -1.7867
 3986TIP3   OH233448   3.640   4.050   5.530 -0.1205  0.0628 -0.1570
 3986TIP3    H133449   3.717   4.022   5.580  1.0941  0.5245 -1.6896
 3986TIP3    H233450   3.611   3.970   5.485 -0.5391 -0.1040  0.3952
 3987TIP3   OH233451   0.003   3.050  14.125  0.7857  0.0098 -0.0040
 3987TIP3    H133452   0.046   2.964  14.125  0.5733 -0.0976  0.2582
 3987TIP3    H233453   0.036   3.093  14.046  2.3790  0.4309  0.8316
 3988TIP3   OH233454   2.005   1.044   4.179 -0.0269  0.4258  0.3179
 3988TIP3    H133455   2.075   1.012   4.122 -1.1288  2.1997 -2.2288
 3988TIP3    H233456   1.943   0.972   4.184 -0.3789  0.5424 -1.6597
 3989TIP3   OH233457   5.815   1.340  15.793 -0.2089 -0.5085 -0.4273
 3989TIP3    H133458   5.910   1.344  15.779 -0.3401  0.8040 -1.0296
 3989TIP3    H233459   5.785   1.431  15.784 -0.9007  0.0208  4.2442
 3990TIP3   OH233460   0.248   2.015   1.157 -0.3092 -0.2623  0.2474
 3990TIP3    H133461   0.166   1.993   1.201 -1.5731  3.0558 -0.1343
 3990TIP3    H233462   0.229   2.097   1.111  2.3890 -0.9122 -2.3518
 3991TIP3   OH233463   3.589   1.028   1.791  0.6509  0.3581  0.5672
 3991TIP3    H133464   3.501   0.999   1.765  1.4687 -1.7092 -0.0057
 3991TIP3    H233465   3.627   1.062   1.710  0.8820 -0.0390  0.5112
 3992TIP3   OH233466   3.600   3.075  12.839 -0.2127 -0.1902 -0.2012
 3992TIP3    H133467   3.539   3.067  12.912  0.2512 -3.2801 -0.0229
 3992TIP3    H233468   3.680   3.111  12.879 -0.7177  0.3818  0.3076
 3993TIP3   OH233469   5.176   3.045   1.041 -0.3279 -0.5155  0.3691
 3993TIP3    H133470   5.146   3.015   1.127 -0.8744 -2.0946 -0.3517
 3993TIP3    H233471   5.124   3.124   1.025 -0.7789 -0.6407  1.1445
 3994TIP3   OH233472   6.065   3.726   2.437  0.1124 -0.7922 -0.0235
 3994TIP3    H133473   5.989   3.783   2.424  1.0870  0.9580  1.3844
 3994TIP3    H233474   6.029   3.640   2.457 -1.6414  0.4795  2.9152
 3995TIP3   OH233475   5.497   6.150   3.762 -0.2409 -0.0838  0.2525
 3995TIP3    H133476   5.449   6.183   3.838 -1.3747  0.9496 -0.8724
 3995TIP3    H233477   5.452   6.188   3.687  1.0899 -0.7723 -0.9348
 3996TIP3   OH233478   0.383   5.938   4.859 -0.0663  0.2650  0.0168
 3996TIP3    H133479   0.375   5.883   4.937 -0.4399  0.2173 -0.0527
 3996TIP3    H233480   0.460   5.903   4.814  1.0378  1.2225  1.0863
 3997TIP3   OH233481   1.708   3.653  13.280  0.5605 -0.2553  0.5749
 3997TIP3    H133482   1.750   3.726  13.233 -0.7007  1.1562  1.5735
 3997TIP3    H233483   1.630   3.633  13.228  1.1726 -1.3215  0.0063
 3998TIP3   OH233484   2.679   6.660  16.791 -0.1090  0.3670 -0.0208
 3998TIP3    H133485   2.746   6.620  16.846 -0.4264  1.2032  1.0064
 3998TIP3    H233486   2.628   6.715  16.851 -2.5733 -1.2593 -0.4836
 3999TIP3   OH233487   6.716   4.164  13.317 -0.1871 -0.2018 -0.6523
 3999TIP3    H133488   6.748   4.129  13.401 -1.2494  0.8105  0.2186
 3999TIP3    H233489   6.622   4.174  13.330 -0.6476 -1.5412 -2.5613
 4000TIP3   OH233490   2.738   5.571  15.882  0.6348  0.1994 -0.0438
 4000TIP3    H133491   2.796   5.647  15.883 -0.2286  0.8671  0.9364
 4000TIP3    H233492   2.677   5.588  15.811  0.0791  0.7365  0.5392
 4001TIP3   OH233493   1.595   2.085  14.170  0.3690 -0.1680 -0.5067
 4001TIP3    H133494   1.640   2.140  14.105 -1.0374  0.5556 -0.9009
 4001TIP3    H233495   1.523   2.139  14.202 -0.2145 -1.2905  0.1443
 4002TIP3   OH233496   6.219   0.155   5.448 -0.2634 -0.2110  0.2069
 4002TIP3    H133497   6.147   0.096   5.425 -1.4867  1.1711  0.3700
 4002TIP3    H233498   6.178   0.241   5.457  1.6701  0.9622 -1.3209
 4003TIP3   OH233499   6.045   6.411  14.019  0.5391  0.7136  0.1202
 4003TIP3    H133500   5.951   6.403  14.004  0.5818 -0.4119  0.3708
 4003TIP3    H233501   6.056   6.392  14.112  0.8963  2.0797  0.3877
 4004TIP3   OH233502   1.576   4.757   3.076 -0.0307 -0.2858 -0.1187
 4004TIP3    H133503   1.585   4.748   3.171 -0.3092  0.9101  0.0359
 4004TIP3    H233504   1.524   4.681   3.050 -1.7159  0.4150  0.9860
 4005TIP3   OH233505   3.586   6.370  15.071  0.3868  0.0003  0.2587
 4005TIP3    H133506   3.536   6.304  15.024  1.5542  0.4610 -1.7276
 4005TIP3    H233507   3.521   6.435  15.097 -0.3692 -0.5570 -0.1796
 4006TIP3   OH233508   4.028   1.375  12.456 -0.2784  0.2824 -0.2198
 4006TIP3    H133509   4.008   1.317  12.383 -0.0369 -0.9120  0.6227
 4006TIP3    H233510   3.954   1.436  12.459 -0.4112  0.1869 -1.2920
 4007TIP3   OH233511   4.775   0.257  14.035 -0.0402  0.3565  0.4954
 4007TIP3    H133512   4.738   0.345  14.044  1.5799  0.9055  2.3022
 4007TIP3    H233513   4.820   0.258  13.951 -0.0664  1.2318  0.4889
 4008TIP3   OH233514   3.279   4.925   6.783  0.2835  0.6356  0.2935
 4008TIP3    H133515   3.349   4.909   6.846  1.0635  1.0220 -0.4724
 4008TIP3    H233516   3.321   4.917   6.698 -0.7826  0.0331 -0.1942
 4009TIP3   OH233517   4.525   3.429   2.282 -0.1126 -0.4265  0.2366
 4009TIP3    H133518   4.609   3.464   2.253  0.0810  1.3099  2.5793
 4009TIP3    H233519   4.467   3.506   2.286 -0.2432 -0.5314  3.6435
 4010TIP3   OH233520   2.750   4.348   3.285 -0.0749 -0.1031  0.2272
 4010TIP3    H133521   2.723   4.275   3.341 -0.5995 -1.7123 -1.9958
 4010TIP3    H233522   2.837   4.372   3.316  0.9954 -3.0544 -0.2039
 4011TIP3   OH233523   2.490   4.189   1.613 -0.1562 -0.0095  0.8602
 4011TIP3    H133524   2.561   4.198   1.549 -1.8507 -2.4037 -1.5948
 4011TIP3    H233525   2.432   4.263   1.594  1.0225  1.2805  2.0806
 4012TIP3   OH233526   4.745   0.229   4.905 -0.1265 -0.2809  0.0044
 4012TIP3    H133527   4.702   0.283   4.839 -0.7820 -1.8907 -0.9592
 4012TIP3    H233528   4.828   0.204   4.865 -0.0450 -0.3756  0.2299
 4013TIP3   OH233529   3.329   5.888   2.221 -0.0877 -0.3745  0.4285
 4013TIP3    H133530   3.403   5.886   2.161 -1.0488 -1.3834 -0.7842
 4013TIP3    H233531   3.314   5.981   2.238 -0.0331 -0.0425 -1.2271
 4014TIP3   OH233532   6.129   4.291   3.217  0.4173 -0.1123 -0.2454
 4014TIP3    H133533   6.184   4.318   3.291  0.0413 -2.1272  0.8408
 4014TIP3    H233534   6.132   4.365   3.157 -0.5863  2.3841  2.5006
 4015TIP3   OH233535   5.876   2.815  15.075  0.9389  0.9061  0.1454
 4015TIP3    H133536   5.834   2.900  15.061 -0.9905  0.3995  2.3046
 4015TIP3    H233537   5.947   2.834  15.137  2.5175  1.3587 -1.6871
 4016TIP3   OH233538   1.364   6.099   3.681 -0.1613  0.2239  0.1686
 4016TIP3    H133539   1.285   6.048   3.701 -0.1316 -0.0011 -0.2664
 4016TIP3    H233540   1.351   6.182   3.726  0.1211 -0.4337  1.4832
 4017TIP3   OH233541   1.205   3.186  13.705 -0.2417  0.5221  0.3338
 4017TIP3    H133542   1.273   3.253  13.717  0.3155  0.0701 -0.2387
 4017TIP3    H233543   1.123   3.236  13.701  0.3193  1.3612 -1.8496
 4018TIP3   OH233544   5.381   5.493   2.629  0.2141 -0.6875 -0.2002
 4018TIP3    H133545   5.314   5.486   2.697  0.7189 -1.2136  0.2554
 4018TIP3    H233546   5.373   5.583   2.597 -0.0715 -0.4488  0.5178
 4019TIP3   OH233547   1.778   2.558   3.600  0.2272  0.3160  0.4953
 4019TIP3    H133548   1.688   2.526   3.611  0.6983 -0.6871  1.8029
 4019TIP3    H233549   1.779   2.643   3.644 -0.0913  0.3462  0.4466
 4020TIP3   OH233550   4.533   1.856   3.156 -0.3346 -0.2310 -0.1125
 4020TIP3    H133551   4.449   1.846   3.201  0.1629 -2.9068  0.3460
 4020TIP3    H233552   4.522   1.807   3.074  0.8195 -0.7523  0.0341
 4021TIP3   OH233553   2.695   0.591  13.739  0.1904 -0.1448 -0.0509
 4021TIP3    H133554   2.634   0.546  13.681 -0.7351  2.1700 -0.9842
 4021TIP3    H233555   2.770   0.613  13.683  0.2206  0.2767  0.1478
 4022TIP3   OH233556   0.753   4.806   4.113  0.4585  0.5203  0.6166
 4022TIP3    H133557   0.749   4.846   4.026  0.1759 -0.2238  0.2782
 4022TIP3    H233558   0.756   4.711   4.096  1.0060  0.3841  1.4017
 4023TIP3   OH233559   2.656   0.681  11.830 -0.2804 -0.3264 -0.2689
 4023TIP3    H133560   2.561   0.693  11.832 -0.1676  1.1348 -1.8603
 4023TIP3    H233561   2.668   0.588  11.811 -1.3855 -0.5024 -0.1471
 4024TIP3   OH233562   2.900   4.029   2.797 -0.1952  0.3736 -0.6595
 4024TIP3    H133563   2.990   4.053   2.820 -0.9420  1.1143  1.7833
 4024TIP3    H233564   2.886   4.068   2.710  2.4060 -1.4358 -2.0315
 4025TIP3   OH233565   2.240   5.828  16.426 -0.1640 -0.4306 -0.2164
 4025TIP3    H133566   2.245   5.873  16.510  1.8030 -1.8569  0.5300
 4025TIP3    H233567   2.173   5.761  16.439 -1.2858  0.6075 -0.4898
 4026TIP3   OH233568   0.732   5.614  15.716  0.8541  0.3953 -0.1948
 4026TIP3    H133569   0.660   5.668  15.681 -1.3121 -1.0390  1.7244
 4026TIP3    H233570   0.756   5.557  15.643 -0.0192  0.8704 -0.8816
 4027TIP3   OH233571   6.141   6.343   4.793  0.2831  0.3541 -0.4906
 4027TIP3    H133572   6.157   6.268   4.735  2.3711 -0.1354  0.6144
 4027TIP3    H233573   6.172   6.418   4.743 -0.5869  0.3279 -1.0888
 4028TIP3   OH233574   5.804   5.422  16.938 -0.2462 -0.3146  0.0917
 4028TIP3    H133575   5.759   5.347  16.898  0.1964 -0.4046 -0.2495
 4028TIP3    H233576   5.827   5.478  16.864 -0.7690  0.2766  0.3605
 4029TIP3   OH233577   3.861   0.781   5.550  0.5957 -0.4688  0.3913
 4029TIP3    H133578   3.840   0.809   5.640 -0.3068 -1.1875  0.4118
 4029TIP3    H233579   3.851   0.861   5.498  1.7894  0.1195  1.0079
 4030TIP3   OH233580   0.663   6.106  14.288 -0.8877 -0.5885  0.6989
 4030TIP3    H133581   0.626   6.046  14.352  0.0831 -2.0976 -0.0936
 4030TIP3    H233582   0.748   6.068  14.265 -1.3478 -0.2948 -1.7184
 4031TIP3   OH233583   3.123   4.369   1.963  0.0205  0.5106  0.0070
 4031TIP3    H133584   3.055   4.421   2.006  0.6550  1.2592  0.1304
 4031TIP3    H233585   3.116   4.392   1.870 -0.9924 -0.6966 -0.2429
 4032TIP3   OH233586   1.666   1.493   0.113  0.7046 -0.4018  0.6064
 4032TIP3    H133587   1.598   1.433   0.081  1.1139 -0.4230 -0.2600
 4032TIP3    H233588   1.703   1.450   0.189  3.1994 -2.8969 -1.7734
 4033TIP3   OH233589   1.036   2.593  14.102 -0.6378  0.0492 -0.0196
 4033TIP3    H133590   1.079   2.519  14.059  0.1254  0.8416 -0.6502
 4033TIP3    H233591   1.033   2.568  14.195  0.3392 -0.4402 -0.1061
 4034TIP3   OH233592   1.384   3.409  13.670 -0.2715 -0.5866  1.4244
 4034TIP3    H133593   1.451   3.411  13.739  0.2293  2.3394  0.9705
 4034TIP3    H233594   1.433   3.386  13.591 -0.1431 -0.3109  1.4211
 4035TIP3   OH233595   0.993   6.366  14.810 -0.6050 -0.3654  0.3191
 4035TIP3    H133596   1.053   6.369  14.735  0.1825 -1.8723  0.8611
 4035TIP3    H233597   0.916   6.415  14.781  0.6342  1.1375 -0.6001
 4036TIP3   OH233598   2.327   4.940  15.728 -0.4154 -0.0876  0.2089
 4036TIP3    H133599   2.257   4.960  15.667  0.4977 -0.4774 -1.0018
 4036TIP3    H233600   2.407   4.947  15.676  0.2962 -1.8496  0.9933
 4037TIP3   OH233601   0.443   0.983  15.972  0.4991 -0.2752  0.1699
 4037TIP3    H133602   0.461   0.913  15.909 -0.8835 -0.7219  0.2207
 4037TIP3    H233603   0.348   0.980  15.984  0.4981  1.1358  0.7429
 4038TIP3   OH233604   1.174   4.532   0.652 -0.4645 -0.0620  0.0995
 4038TIP3    H133605   1.119   4.578   0.715  0.0223 -1.8553  1.9084
 4038TIP3    H233606   1.260   4.530   0.693 -0.2874 -1.8244 -0.3090
 4039TIP3   OH233607   0.660   1.234  13.888  0.1359 -0.1319  0.7662
 4039TIP3    H133608   0.692   1.177  13.818  1.4498  1.5943 -0.1470
 4039TIP3    H233609   0.591   1.184  13.931  0.3480 -1.8663 -0.7800
 4040TIP3   OH233610   1.157   6.260   5.678  0.1423 -0.2384  0.4392
 4040TIP3    H133611   1.248   6.229   5.676  0.6059  1.0878 -1.2165
 4040TIP3    H233612   1.162   6.352   5.653 -1.7768 -0.5402 -1.3564
 4041TIP3   OH233613   5.604   3.747   3.985 -0.0461  0.0146  0.0046
 4041TIP3    H133614   5.600   3.799   4.065  1.9921  0.0581  0.1242
 4041TIP3    H233615   5.688   3.702   3.989  0.4551  0.5998 -2.4655
 4042TIP3   OH233616   3.876   2.237  13.596  0.0166  0.4447 -0.4641
 4042TIP3    H133617   3.886   2.263  13.687 -0.8145  0.1110 -0.2729
 4042TIP3    H233618   3.949   2.176  13.580 -0.7556 -0.7593  0.4576
 4043TIP3   OH233619   1.325   0.744   6.370 -0.4697 -0.1774  0.4839
 4043TIP3    H133620   1.279   0.749   6.454 -2.8120 -1.0834 -0.6435
 4043TIP3    H233621   1.301   0.658   6.335  1.5016 -0.3627 -0.5706
 4044TIP3   OH233622   2.508   2.015   5.248 -0.2374  0.1597  0.0627
 4044TIP3    H133623   2.599   2.019   5.275 -0.2896 -2.1627  0.7904
 4044TIP3    H233624   2.462   1.979   5.323 -1.1986 -1.8104 -1.3847
 4045TIP3   OH233625   1.066   5.675  14.775  0.5773  0.2656  0.6484
 4045TIP3    H133626   0.981   5.694  14.815 -1.2061  0.3446 -2.8194
 4045TIP3    H233627   1.100   5.760  14.749  0.3978  0.0424 -0.3557
 4046TIP3   OH233628   6.517   0.741  11.545 -0.6339 -0.7499 -0.6150
 4046TIP3    H133629   6.482   0.779  11.465  0.0929 -0.7455 -0.9360
 4046TIP3    H233630   6.472   0.789  11.615  0.2753  0.7495 -1.0066
 4047TIP3   OH233631   2.481   5.588  14.242 -0.3326 -0.0217 -0.1401
 4047TIP3    H133632   2.458   5.513  14.187  1.4612 -1.1457  0.5526
 4047TIP3    H233633   2.566   5.617  14.209 -0.4709  0.9847  0.3475
 4048TIP3   OH233634   3.179   0.551   3.806 -0.0522 -0.2273 -0.2976
 4048TIP3    H133635   3.213   0.614   3.869 -0.2819  0.5661 -0.9414
 4048TIP3    H233636   3.106   0.597   3.764  1.6955  0.3286 -3.0090
 4049TIP3   OH233637   0.379   0.173   6.298  0.3452  0.1586 -0.0781
 4049TIP3    H133638   0.300   0.125   6.321  0.0903  1.0501  1.0061
 4049TIP3    H233639   0.347   0.254   6.258  0.7073  0.3992  0.1038
 4050TIP3   OH233640   4.041   0.801   2.839 -0.4626  0.2503 -0.2386
 4050TIP3    H133641   3.965   0.828   2.890 -1.4355  0.1498 -1.5780
 4050TIP3    H233642   4.005   0.772   2.755  0.8597 -1.7747 -0.1895
 4051TIP3   OH233643   4.893   1.714   2.321  0.4751  0.3588 -0.0973
 4051TIP3    H133644   4.882   1.663   2.240  0.7374 -2.8295  1.7002
 4051TIP3    H233645   4.805   1.720   2.357  0.6195 -0.0174  0.3324
 4052TIP3   OH233646   3.940   2.194  14.930  0.2369  0.3435 -0.7400
 4052TIP3    H133647   3.861   2.248  14.926 -0.5381 -0.8159 -1.8977
 4052TIP3    H233648   3.990   2.230  15.003 -2.1185  0.1050  1.1119
 4053TIP3   OH233649   2.081   5.668   0.768  0.1552  0.0989  0.2459
 4053TIP3    H133650   1.987   5.650   0.760  0.2781 -0.8267  0.7929
 4053TIP3    H233651   2.087   5.763   0.762 -1.0173  0.3334  1.9707
 4054TIP3   OH233652   2.216   4.549  13.915 -0.4522 -0.3292 -0.1564
 4054TIP3    H133653   2.257   4.469  13.947 -1.0260 -1.3177 -1.7757
 4054TIP3    H233654   2.225   4.545  13.820 -1.8267  0.7872 -0.3715
 4055TIP3   OH233655   3.583   5.720  13.110  0.4934 -0.4144 -0.0173
 4055TIP3    H133656   3.518   5.654  13.088  3.1689 -3.2887 -0.0408
 4055TIP3    H233657   3.579   5.727  13.206 -0.0673 -0.3320 -0.0473
 4056TIP3   OH233658   4.332   3.962   3.405  0.0281 -0.2034  0.1342
 4056TIP3    H133659   4.251   3.999   3.368 -1.9099 -1.2768  2.9679
 4056TIP3    H233660   4.337   3.874   3.368 -0.1256 -0.1562 -0.0005
 4057TIP3   OH233661   4.638   2.319  12.478 -0.2773  0.0063  0.2211
 4057TIP3    H133662   4.718   2.313  12.530  0.3373 -2.9396 -0.8522
 4057TIP3    H233663   4.570   2.282  12.534 -0.0058 -1.2916 -0.2499
 4058TIP3   OH233664   1.602   4.067   5.146 -0.0474 -0.0468  0.3191
 4058TIP3    H133665   1.670   4.065   5.213  0.1978  0.2909  0.0788
 4058TIP3    H233666   1.571   4.158   5.146 -0.3486 -0.1475  0.2758
 4059TIP3   OH233667   0.254   1.908   5.824  0.2889  0.0447 -0.5711
 4059TIP3    H133668   0.245   1.819   5.790  1.1270 -0.5191  0.6234
 4059TIP3    H233669   0.275   1.897   5.917  0.1933  1.4931 -0.3476
 4060TIP3   OH233670   3.250   6.573  11.526  0.3105  0.1978  0.4950
 4060TIP3    H133671   3.344   6.571  11.547  0.0254 -0.3452  1.7884
 4060TIP3    H233672   3.245   6.630  11.448  1.7485 -0.1000  0.1396
 4061TIP3   OH233673   6.752   5.444  16.633 -0.2063 -0.4104  0.1729
 4061TIP3    H133674   6.705   5.458  16.715  1.8161 -0.7155  1.4404
 4061TIP3    H233675   6.761   5.531  16.595  1.3915  0.1901  1.7858
 4062TIP3   OH233676   4.178   4.257   4.634 -0.2708  0.4704  0.2219
 4062TIP3    H133677   4.213   4.291   4.717 -1.0582  0.3820  0.5986
 4062TIP3    H233678   4.254   4.221   4.589  0.2797  1.1054  0.6193
 4063TIP3   OH233679   1.230   4.402   3.940 -0.5177 -0.8333 -0.8296
 4063TIP3    H133680   1.182   4.342   3.883 -1.6845 -0.9418  0.2291
 4063TIP3    H233681   1.303   4.432   3.887  0.0764 -3.1548 -1.3999
 4064TIP3   OH233682   0.538   0.414  12.291 -0.2940 -0.2338  0.6624
 4064TIP3    H133683   0.548   0.357  12.367 -1.8716  1.3203  2.1176
 4064TIP3    H233684   0.511   0.356  12.220  1.0054 -1.6859  1.2991
 4065TIP3   OH233685   5.712   6.606  12.028 -0.2027  0.1860 -0.0930
 4065TIP3    H133686   5.660   6.581  12.104  0.7178  0.2019  0.5598
 4065TIP3    H233687   5.803   6.586  12.052  0.1990  0.9524 -0.8614
 4066TIP3   OH233688   0.713   5.504   4.697  0.3207  0.3687 -0.4960
 4066TIP3    H133689   0.739   5.412   4.686  1.2038  0.6931 -1.2277
 4066TIP3    H233690   0.793   5.549   4.722 -0.7449  0.4107  3.4051
 4067TIP3   OH233691   4.765   3.075  12.922  0.1902 -0.1770 -0.6098
 4067TIP3    H133692   4.777   2.981  12.910  1.0110 -0.3082  1.0584
 4067TIP3    H233693   4.705   3.100  12.852 -0.7862 -2.1048 -0.5230
 4068TIP3   OH233694   6.328   2.528  17.091  0.7685  0.4696 -0.6142
 4068TIP3    H133695   6.337   2.519  17.185  1.6060  1.3753 -0.5910
 4068TIP3    H233696   6.335   2.438  17.057 -1.7719 -0.1747  0.3058
 4069TIP3   OH233697   6.421   1.162  11.728  0.3747 -0.4077  0.3687
 4069TIP3    H133698   6.413   1.245  11.681 -0.4451 -0.8667 -0.3536
 4069TIP3    H233699   6.483   1.111  11.676  2.7155  0.5398  2.0614
 4070TIP3   OH233700   5.090   2.473   4.108  0.3636  0.0400  0.3286
 4070TIP3    H133701   5.133   2.496   4.190  1.4050  0.3469 -0.2918
 4070TIP3    H233702   5.160   2.439   4.052 -0.5147 -1.2208 -0.0641
 4071TIP3   OH233703   1.515   6.235   4.168  0.1803  0.2406  0.3192
 4071TIP3    H133704   1.596   6.198   4.203  0.1611 -1.1956 -1.0328
 4071TIP3    H233705   1.538   6.266   4.081 -0.5421  0.5469  0.2310
 4072TIP3   OH233706   2.030   3.032  15.668  0.0136  0.1983 -0.4630
 4072TIP3    H133707   2.080   3.033  15.750  1.3650 -0.1900 -1.2542
 4072TIP3    H233708   1.950   2.983  15.689  1.0368 -1.2281  0.2402
 4073TIP3   OH233709   6.714   5.995  16.766 -0.3807 -0.1754 -0.2885
 4073TIP3    H133710   6.689   6.069  16.711 -1.8183 -1.6111 -1.6937
 4073TIP3    H233711   6.808   6.005  16.780 -0.1540  0.7587 -2.2292
 4074TIP3   OH233712   2.018   6.315  11.214  0.0439 -0.0373 -0.4454
 4074TIP3    H133713   2.048   6.226  11.232  0.2041 -0.3389 -2.0942
 4074TIP3    H233714   2.098   6.367  11.210  0.0081  0.0317 -0.2719
 4075TIP3   OH233715   0.221   0.044  13.899  1.0234  0.3659 -0.2281
 4075TIP3    H133716   0.291   0.026  13.962  0.9281 -2.2649 -0.7353
 4075TIP3    H233717   0.235   0.135  13.872  1.7444  1.2267  2.6787
 4076TIP3   OH233718   3.247   0.639   5.334 -0.1576 -0.4998  0.2640
 4076TIP3    H133719   3.329   0.590   5.350  1.1521  1.0113 -1.4398
 4076TIP3    H233720   3.207   0.594   5.260 -0.2228 -0.4956  0.2976
 4077TIP3   OH233721   4.122   2.462   2.639  0.0707 -0.4329 -0.5454
 4077TIP3    H133722   4.078   2.386   2.601  0.0032 -1.4238  1.3982
 4077TIP3    H233723   4.055   2.502   2.695  0.9220 -0.5894  0.6181
 4078TIP3   OH233724   6.516   3.670   0.468 -0.1061 -0.3244  0.3588
 4078TIP3    H133725   6.506   3.663   0.373 -1.1089 -0.9104  0.4858
 4078TIP3    H233726   6.471   3.751   0.490  1.1728  0.4457  0.2135
 4079TIP3   OH233727   1.398   3.619   4.049 -0.3027 -0.5917  0.6689
 4079TIP3    H133728   1.443   3.561   4.110 -1.7230 -2.4256  0.0722
 4079TIP3    H233729   1.386   3.566   3.969 -1.0435  0.7491 -0.1529
 4080TIP3   OH233730   0.751   2.249  12.702 -0.0133  0.4691 -0.3861
 4080TIP3    H133731   0.763   2.279  12.611  0.0837 -0.0212 -0.5375
 4080TIP3    H233732   0.839   2.238  12.735 -0.0462  0.9869 -0.1124
 4081TIP3   OH233733   0.757   5.821   0.723 -0.5928 -0.0245 -0.5500
 4081TIP3    H133734   0.766   5.854   0.813 -0.5176  1.2259 -0.9972
 4081TIP3    H233735   0.688   5.756   0.728 -0.4536 -0.1107  0.4543
 4082TIP3   OH233736   1.314   5.144  14.477 -0.0846  0.5121 -0.4616
 4082TIP3    H133737   1.405   5.121  14.499 -0.0341 -0.1583 -1.3366
 4082TIP3    H233738   1.321   5.232  14.440  0.2063  0.4650 -0.5257
 4083TIP3   OH233739   0.254   2.498   2.914  0.0170 -0.6327 -0.1106
 4083TIP3    H133740   0.295   2.548   2.985 -1.4151  1.9765 -1.0240
 4083TIP3    H233741   0.192   2.440   2.959 -1.7845  1.8428  0.8353
 4084TIP3   OH233742   1.517   5.534   5.744  0.4106  0.0850  0.8033
 4084TIP3    H133743   1.562   5.592   5.805  0.5587 -1.0865  1.8410
 4084TIP3    H233744   1.426   5.563   5.745  0.3402 -0.1365  1.8658
 4085TIP3   OH233745   4.229   0.011  11.281 -0.0010  0.1582  0.3780
 4085TIP3    H133746   4.283   0.067  11.338  0.6816  0.4185 -0.5103
 4085TIP3    H233747   4.229   0.056  11.197 -0.3365 -0.6399 -0.0540
 4086TIP3   OH233748   1.796   1.358  14.873 -0.2445 -0.2515  0.6989
 4086TIP3    H133749   1.846   1.374  14.793  0.1325  0.1346  1.0116
 4086TIP3    H233750   1.859   1.323  14.935 -0.5285 -0.5179  0.8411
 4087TIP3   OH233751   1.793   1.941  16.671 -0.0537  0.4658 -0.1525
 4087TIP3    H133752   1.805   1.896  16.587  0.3901  0.9651 -0.3634
 4087TIP3    H233753   1.864   1.910  16.726 -1.8630 -1.9524  0.9915
 4088TIP3   OH233754   4.350   2.861   4.806  0.3348 -0.0265  0.2152
 4088TIP3    H133755   4.425   2.919   4.789 -0.1755  0.6855  0.3718
 4088TIP3    H233756   4.362   2.789   4.744 -0.1499  1.2866 -1.4776
 4089TIP3   OH233757   6.806   6.267  12.707  0.0003  0.5554  0.1055
 4089TIP3    H133758   6.756   6.346  12.687 -1.5196 -0.4390 -0.1909
 4089TIP3    H233759   6.839   6.237  12.623 -0.4232  0.2502  0.0406
 4090TIP3   OH233760   6.317   6.308   5.879  0.2948  0.4231  0.3404
 4090TIP3    H133761   6.329   6.376   5.945  1.3215 -0.6721  1.3390
 4090TIP3    H233762   6.222   6.303   5.867  0.2145  2.7589 -0.6044
 4091TIP3   OH233763   5.896   6.702  15.496 -0.3770  0.1696  0.2048
 4091TIP3    H133764   5.801   6.692  15.500 -0.1809 -1.8584  0.4749
 4091TIP3    H233765   5.921   6.667  15.411  0.2825 -0.9185  0.8224
 4092TIP3   OH233766   2.328   4.765  12.201 -0.5426 -0.3516  0.0996
 4092TIP3    H133767   2.367   4.849  12.227 -0.5045  0.1544 -1.5043
 4092TIP3    H233768   2.402   4.707  12.186 -0.5373 -0.3963  0.2927
 4093TIP3   OH233769   1.945   5.318   3.371  0.2692 -1.1856  0.2341
 4093TIP3    H133770   2.035   5.326   3.340 -0.3255 -2.7164 -2.1940
 4093TIP3    H233771   1.928   5.224   3.373 -1.1223 -0.9559  1.1843
 4094TIP3   OH233772   0.724   5.673  10.868  0.6189 -0.5179 -0.2969
 4094TIP3    H133773   0.817   5.654  10.881  0.5279  0.0428  1.3096
 4094TIP3    H233774   0.721   5.767  10.849  0.4906 -0.8135 -1.8853
 4095TIP3   OH233775   1.137   5.174   3.393  0.5136 -0.1362  0.1828
 4095TIP3    H133776   1.187   5.256   3.396 -0.2434  0.2881  1.7714
 4095TIP3    H233777   1.204   5.106   3.392  1.1761  0.4612 -1.9019
 4096TIP3   OH233778   0.093   6.505   1.643 -0.2886 -0.4109  0.3640
 4096TIP3    H133779   0.083   6.518   1.548  3.3358 -1.3920 -0.3341
 4096TIP3    H233780   0.061   6.587   1.681 -2.4278 -0.2251 -1.5993
 4097TIP3   OH233781   2.632   1.440   5.896  0.6066 -0.0036 -0.1641
 4097TIP3    H133782   2.570   1.509   5.874  0.4554 -0.5396 -1.5094
 4097TIP3    H233783   2.676   1.472   5.975 -0.6541  0.8414  0.2386
 4098TIP3   OH233784   3.198   0.222  15.195 -0.4841 -0.0981  0.2465
 4098TIP3    H133785   3.291   0.245  15.187 -0.6490  1.1409  1.3980
 4098TIP3    H233786   3.158   0.258  15.116 -0.1205  0.1920  0.1899
 4099TIP3   OH233787   1.578   2.828   2.257  0.7242  0.1648  0.1577
 4099TIP3    H133788   1.531   2.788   2.184  1.0567  0.5102 -0.2548
 4099TIP3    H233789   1.531   2.800   2.335 -1.0699  1.6710 -0.2958
 4100TIP3   OH233790   0.550   2.462  14.960  0.4199  0.0415 -0.0803
 4100TIP3    H133791   0.587   2.504  15.037 -0.8118 -0.0164  0.5710
 4100TIP3    H233792   0.480   2.520  14.932 -0.2808 -0.7970 -0.1004
 4101TIP3   OH233793   5.968   3.690   1.010  0.2079 -0.2071  0.6546
 4101TIP3    H133794   6.036   3.758   1.017 -2.7799  2.9622  1.4251
 4101TIP3    H233795   5.947   3.668   1.100 -0.4316 -0.4624  0.4452
 4102TIP3   OH233796   0.420   4.418  15.753  0.1192 -0.5903 -0.3685
 4102TIP3    H133797   0.347   4.474  15.724  0.7072  0.2026 -0.3608
 4102TIP3    H233798   0.435   4.359  15.679 -1.5360 -1.8436  0.2185
 4103TIP3   OH233799   5.890   1.114  15.360 -0.7991 -0.2095 -0.1702
 4103TIP3    H133800   5.869   1.092  15.450  0.3352  0.8169  0.3783
 4103TIP3    H233801   5.889   1.210  15.358  1.5549 -0.1225 -0.6054
 4104TIP3   OH233802   3.375   1.770   5.567 -0.2983 -0.2786  0.4757
 4104TIP3    H133803   3.390   1.763   5.473  0.2569 -0.5252  0.5729
 4104TIP3    H233804   3.298   1.715   5.584 -1.8764  1.6368 -0.1568
 4105TIP3   OH233805   5.618   3.734  12.714  0.2985  0.3705 -0.3058
 4105TIP3    H133806   5.598   3.646  12.682 -4.1338  1.3357 -0.7843
 4105TIP3    H233807   5.706   3.752  12.681  0.5450 -3.0720 -1.9285
 4106TIP3   OH233808   3.617   5.717   3.887 -0.3552 -0.0336  0.6827
 4106TIP3    H133809   3.617   5.806   3.922  2.0742  0.5186 -0.4814
 4106TIP3    H233810   3.630   5.728   3.793  1.8266 -1.5891  0.7284
 4107TIP3   OH233811   0.597   0.247  13.649  0.0213  0.3688  0.2458
 4107TIP3    H133812   0.589   0.208  13.735 -0.6570  0.3734  0.1876
 4107TIP3    H233813   0.692   0.258  13.636  0.2730 -1.6239  0.0857
 4108TIP3   OH233814   4.447   1.061  11.329 -0.1019 -0.2086  0.1686
 4108TIP3    H133815   4.408   1.140  11.291 -2.9783 -0.3704  2.4844
 4108TIP3    H233816   4.491   1.092  11.408  0.0788 -0.7443  0.2815
 4109TIP3   OH233817   5.673   3.906  10.948  0.2026  0.0190 -0.0485
 4109TIP3    H133818   5.714   3.884  10.865  0.6512  0.8406 -0.0517
 4109TIP3    H233819   5.597   3.848  10.953  0.5250 -0.4731 -0.7331
 4110TIP3   OH233820   0.404   2.659   4.701  0.7797 -0.0682 -0.1805
 4110TIP3    H133821   0.446   2.733   4.658  1.1953 -1.4749 -2.3862
 4110TIP3    H233822   0.311   2.667   4.676  0.1992  1.2822  2.0772
 4111TIP3   OH233823   1.038   4.643  13.236 -0.3650  0.7791  0.2273
 4111TIP3    H133824   1.006   4.708  13.173 -1.2620  0.5766  0.4609
 4111TIP3    H233825   1.071   4.571  13.182 -1.7558  0.3050 -0.0410
 4112TIP3   OH233826   2.051   5.248  15.637  0.0677  0.6154 -0.5637
 4112TIP3    H133827   2.063   5.261  15.731 -3.3168 -0.1685  0.1358
 4112TIP3    H233828   2.078   5.157  15.621  0.9728  0.8566 -0.4576
 4113TIP3   OH233829   3.788   4.649  13.015  0.0250 -0.4249 -0.9722
 4113TIP3    H133830   3.703   4.641  12.971 -0.3904 -1.7806  0.0111
 4113TIP3    H233831   3.847   4.681  12.946 -0.8904 -1.2061 -2.1714
 4114TIP3   OH233832   4.539   1.030  15.515 -0.0644  0.4456  0.3338
 4114TIP3    H133833   4.445   1.029  15.500 -0.1376 -1.2279  0.6662
 4114TIP3    H233834   4.558   0.945  15.554  1.5643  0.8232  0.4529
 4115TIP3   OH233835   2.137   4.417  17.116  0.0439 -0.0479 -0.0327
 4115TIP3    H133836   2.104   4.331  17.092 -0.3566  0.1743 -0.2702
 4115TIP3    H233837   2.195   4.442  17.044  0.6127 -0.3594  0.3010
 4116TIP3   OH233838   3.577   5.033   2.303  0.5456  0.3003  0.1402
 4116TIP3    H133839   3.586   5.091   2.379 -0.1414 -0.2242  0.6323
 4116TIP3    H233840   3.563   4.946   2.341  0.6178 -0.0396 -0.5942
 4117TIP3   OH233841   1.502   3.359   3.542 -0.2831  0.5719 -0.2748
 4117TIP3    H133842   1.551   3.291   3.588 -1.4129 -0.0603  0.0482
 4117TIP3    H233843   1.565   3.397   3.481  0.3718 -0.7987 -0.4976
 4118TIP3   OH233844   6.665   0.866  14.905 -0.1513 -0.1551  0.5396
 4118TIP3    H133845   6.737   0.851  14.843 -0.8927 -0.7637 -0.2085
 4118TIP3    H233846   6.600   0.800  14.882 -1.8444  1.6587 -0.1724
 4119TIP3   OH233847   4.017   2.475  15.440  0.8549 -0.9837  0.7403
 4119TIP3    H133848   4.092   2.528  15.413  2.2231 -3.3238 -0.3274
 4119TIP3    H233849   3.981   2.441  15.358  0.2196 -1.9316  1.3894
 4120TIP3   OH233850   4.469   3.198  13.515 -0.3579 -0.1852  0.0518
 4120TIP3    H133851   4.471   3.285  13.475  1.1957 -0.2781 -0.1569
 4120TIP3    H233852   4.376   3.177  13.523 -0.7988  1.9192  1.0868
 4121TIP3   OH233853   3.584   0.353   1.730 -0.4420 -0.3799  0.0382
 4121TIP3    H133854   3.597   0.435   1.778 -2.0683  0.9908 -1.7228
 4121TIP3    H233855   3.575   0.287   1.799 -0.7323  1.1726  1.5703
 4122TIP3   OH233856   3.037   2.910  16.963 -0.5389  0.3264  0.3963
 4122TIP3    H133857   2.993   2.836  17.007 -1.4025  0.1615 -0.7096
 4122TIP3    H233858   2.988   2.922  16.882  0.3740  1.3202 -0.0258
 4123TIP3   OH233859   3.664   6.256   5.128  0.0413  0.3787  0.1568
 4123TIP3    H133860   3.749   6.288   5.157  0.2518 -0.0487  0.0276
 4123TIP3    H233861   3.675   6.242   5.034 -0.3856  0.9826  0.0126
 4124TIP3   OH233862   5.402   0.222   2.459 -0.9849 -0.3610  0.7221
 4124TIP3    H133863   5.411   0.314   2.435 -3.2364 -0.3548 -0.3607
 4124TIP3    H233864   5.439   0.216   2.547  0.1175  1.3406  0.4167
 4125TIP3   OH233865   5.437   1.435  12.905 -0.3506  0.6179  0.3154
 4125TIP3    H133866   5.471   1.367  12.847  1.6003  1.1602  0.7658
 4125TIP3    H233867   5.371   1.390  12.957 -1.4759 -0.1183 -1.6137
 4126TIP3   OH233868   4.971   4.635   0.853  0.1384 -0.2723 -0.0742
 4126TIP3    H133869   5.006   4.639   0.942  1.4691 -0.1744 -0.5827
 4126TIP3    H233870   5.011   4.558   0.815 -0.0268 -0.0302 -0.7508
 4127TIP3   OH233871   5.222   5.550  14.572  0.2543  0.2648  0.0552
 4127TIP3    H133872   5.127   5.539  14.570  0.3676 -1.4107  1.6075
 4127TIP3    H233873   5.238   5.611  14.643  0.3902 -1.0219  1.1870
 4128TIP3   OH233874   2.198   0.315   6.427 -0.0363 -0.6425 -0.7823
 4128TIP3    H133875   2.214   0.368   6.348  1.5612  2.1026  1.2058
 4128TIP3    H233876   2.284   0.281   6.451 -0.2328 -0.3148  0.4649
 4129TIP3   OH233877   2.174   4.742   0.281 -0.0210 -0.1880  0.3941
 4129TIP3    H133878   2.147   4.656   0.249 -1.5518  0.3651  0.0996
 4129TIP3    H233879   2.247   4.767   0.223  0.2967 -1.1759  0.3433
 4130TIP3   OH233880   2.805   2.922  14.784  0.4068  0.0907 -0.2609
 4130TIP3    H133881   2.751   2.973  14.844 -0.0399 -0.5488 -0.1090
 4130TIP3    H233882   2.869   2.985  14.750  1.0456  0.3487  1.3288
 4131TIP3   OH233883   4.719   3.371   5.581  0.3786  0.3149  0.5250
 4131TIP3    H133884   4.772   3.293   5.565  1.1927  0.5260  1.9591
 4131TIP3    H233885   4.630   3.338   5.595  0.7559 -0.3977  1.3202
 4132TIP3   OH233886   4.852   5.065   2.818 -0.1687  0.3631  0.0508
 4132TIP3    H133887   4.911   5.140   2.815  0.4512  0.0082  1.9560
 4132TIP3    H233888   4.808   5.072   2.903 -0.7366 -0.9601 -0.1123
 4133TIP3   OH233889   2.547   5.435   0.392  0.3979 -0.1315 -0.2161
 4133TIP3    H133890   2.544   5.498   0.320  2.5718 -0.4193 -0.6392
 4133TIP3    H233891   2.500   5.478   0.464  0.2226  1.1698 -1.0745
 4134TIP3   OH233892   5.255   6.718   1.754 -0.6407 -0.1181  0.5668
 4134TIP3    H133893   5.198   6.795   1.757 -2.5045 -1.4592  1.8239
 4134TIP3    H233894   5.334   6.745   1.799 -0.9670  1.2751  0.3517
 4135TIP3   OH233895   1.124   1.000   6.753  0.5545  0.0285  0.5832
 4135TIP3    H133896   1.084   0.994   6.839  0.8036 -2.6596  0.5867
 4135TIP3    H233897   1.199   1.058   6.766  1.0116 -0.8976  2.3697
 4136TIP3   OH233898   6.072   4.165   6.358  0.5487 -0.1057  0.3481
 4136TIP3    H133899   6.018   4.156   6.437  0.7674 -0.9065  0.4206
 4136TIP3    H233900   6.065   4.257   6.335  0.5666  0.1693  1.3710
 4137TIP3   OH233901   6.505   2.641  16.100  0.1122 -0.1820 -0.5714
 4137TIP3    H133902   6.445   2.590  16.046  1.8987 -1.7561 -1.1851
 4137TIP3    H233903   6.525   2.719  16.049  0.0579 -0.5813 -1.2033
 4138TIP3   OH233904   4.215   0.916   5.429  0.0345 -0.2254  0.5862
 4138TIP3    H133905   4.212   0.839   5.484  0.8967  0.3865  1.5106
 4138TIP3    H233906   4.300   0.956   5.445 -1.2386  2.2107  1.9674
 4139TIP3   OH233907   3.107   5.348  15.523 -0.5563 -0.2374  0.4107
 4139TIP3    H133908   3.113   5.260  15.487  0.3366 -0.1453  0.3093
 4139TIP3    H233909   3.159   5.344  15.604  2.3415  1.0208 -1.2584
 4140TIP3   OH233910   3.342   4.052   6.041  0.2672 -0.5496 -0.3073
 4140TIP3    H133911   3.389   3.984   6.089  1.3634  1.0093  0.9534
 4140TIP3    H233912   3.255   4.015   6.025  0.9570 -2.3800 -0.0644
 4141TIP3   OH233913   2.201   1.115  12.207 -0.3480 -0.1480  0.1864
 4141TIP3    H133914   2.278   1.088  12.158 -0.4695 -2.1237  0.9945
 4141TIP3    H233915   2.185   1.205  12.180  3.9698  1.4688  2.1599
 4142TIP3   OH233916   5.767   4.899  14.216 -0.5980 -0.0059  0.0045
 4142TIP3    H133917   5.701   4.832  14.199  0.2708 -1.3711  1.6688
 4142TIP3    H233918   5.796   4.881  14.306  0.2499  2.1180  0.2012
 4143TIP3   OH233919   0.408   1.268   1.813  0.1339  0.0617 -0.2912
 4143TIP3    H133920   0.369   1.203   1.754  0.2278 -0.2363 -0.0280
 4143TIP3    H233921   0.341   1.336   1.821  0.5810  0.6954 -1.6849
 4144TIP3   OH233922   3.409   4.508  16.162 -0.3915  0.1007 -0.0810
 4144TIP3    H133923   3.390   4.593  16.202 -1.9233 -0.3436  0.2106
 4144TIP3    H233924   3.351   4.447  16.207 -0.4756 -0.8265 -1.3954
 4145TIP3   OH233925   1.526   0.577   6.205  0.5239  0.3000 -0.3506
 4145TIP3    H133926   1.566   0.577   6.292 -2.6602 -0.2064  1.2722
 4145TIP3    H233927   1.532   0.486   6.176  2.3277  0.6191 -1.1240
 4146TIP3   OH233928   1.473   0.256  10.803  0.2663 -0.5331  0.9633
 4146TIP3    H133929   1.423   0.174  10.800  0.1773 -0.4643  0.1780
 4146TIP3    H233930   1.565   0.228  10.804  0.2408 -0.6551  0.5326
 4147TIP3   OH233931   5.496   3.182   5.205  0.1633  0.5822 -0.1296
 4147TIP3    H133932   5.551   3.105   5.190  0.5064  0.8390 -0.1806
 4147TIP3    H233933   5.425   3.173   5.142  1.0378  1.1201 -1.2129
 4148TIP3   OH233934   5.552   6.678   3.394 -0.3773 -0.2566 -0.2845
 4148TIP3    H133935   5.643   6.667   3.368 -0.2689  2.0742 -1.1627
 4148TIP3    H233936   5.544   6.630   3.476  1.6945 -0.3323 -0.0809
 4149TIP3   OH233937   2.833   1.903  15.061  0.5054  0.4450 -0.0192
 4149TIP3    H133938   2.807   1.942  14.977  0.4326 -0.3510 -0.3779
 4149TIP3    H233939   2.792   1.816  15.061  0.2044  0.5762  1.0110
 4150TIP3   OH233940   5.221   2.289   0.477  0.1313 -0.6907 -0.3260
 4150TIP3    H133941   5.299   2.324   0.521  0.6741 -0.8882 -1.1192
 4150TIP3    H233942   5.163   2.365   0.469  0.4926 -0.4046 -0.2817
 4151TIP3   OH233943   4.508   0.143  11.844 -0.8119  0.5099 -0.0617
 4151TIP3    H133944   4.529   0.184  11.760  0.4292  0.4110  0.1818
 4151TIP3    H233945   4.429   0.189  11.873 -1.6215  0.1329 -1.5508
 4152TIP3   OH233946   5.643   3.843   3.608 -0.9380  0.6265 -0.1437
 4152TIP3    H133947   5.571   3.884   3.656 -2.1787  0.8353 -2.0680
 4152TIP3    H233948   5.606   3.824   3.522  0.9159 -0.5729 -0.7246
 4153TIP3   OH233949   4.487   2.758   0.083 -0.2478  0.2388 -0.2433
 4153TIP3    H133950   4.494   2.714   0.168 -1.2910  1.5169  0.5485
 4153TIP3    H233951   4.513   2.849   0.101  3.0579 -0.1556 -2.0704
 4154TIP3   OH233952   0.268   3.923  13.681  0.7122  0.3580 -0.0405
 4154TIP3    H133953   0.183   3.967  13.685  0.9039  0.7470 -0.2442
 4154TIP3    H233954   0.263   3.856  13.749 -0.0222 -0.0859 -0.5167
 4155TIP3   OH233955   2.915   1.415   0.657  0.5752 -0.0616  0.4281
 4155TIP3    H133956   2.964   1.351   0.709  0.1718  0.1213  1.0464
 4155TIP3    H233957   2.960   1.498   0.672  0.9682 -0.1527 -0.2016
 4156TIP3   OH233958   0.119   4.079   4.055  0.4105  0.0104 -0.4318
 4156TIP3    H133959   0.109   3.994   4.098  1.1368  0.1259 -0.0115
 4156TIP3    H233960   0.212   4.101   4.067  0.8406 -0.3044 -2.7270
 4157TIP3   OH233961   0.598   6.817  14.505 -0.0605  0.1119 -0.0243
 4157TIP3    H133962   0.671   6.779  14.457  0.3220  0.7808  0.0154
 4157TIP3    H233963   0.523   6.805  14.447  0.0390 -0.7448  0.0146
 4158TIP3   OH233964   5.222   4.079   4.757 -0.3059  0.2773 -0.4055
 4158TIP3    H133965   5.189   4.013   4.697 -0.0340  0.7988 -1.1438
 4158TIP3    H233966   5.280   4.032   4.816 -1.2028 -0.3840 -0.0319
 4159TIP3   OH233967   4.509   1.854   0.677 -0.0376 -0.0029  0.2764
 4159TIP3    H133968   4.535   1.876   0.587  0.7882 -0.2881  0.4440
 4159TIP3    H233969   4.491   1.939   0.717  0.7431  0.2081  0.1883
 4160TIP3   OH233970   4.057   4.130  15.084  0.4944  0.2993 -0.7354
 4160TIP3    H133971   4.111   4.202  15.053  2.3368 -1.0700 -0.8077
 4160TIP3    H233972   3.977   4.135  15.031  0.7200  2.0436 -0.9658
 4161TIP3   OH233973   1.664   4.843  11.709  0.3858 -0.3016  0.6457
 4161TIP3    H133974   1.582   4.809  11.674  0.9045  0.5505 -1.5752
 4161TIP3    H233975   1.712   4.766  11.737 -0.5013 -0.9579  0.4071
 4162TIP3   OH233976   1.577   2.340  13.662  0.1630  0.3948 -0.1243
 4162TIP3    H133977   1.511   2.386  13.713 -0.3741 -0.5292  0.0304
 4162TIP3    H233978   1.528   2.296  13.593  0.9030  1.9320 -1.7264
 4163TIP3   OH233979   1.951   5.249  13.670 -0.4055 -0.3559 -0.3555
 4163TIP3    H133980   1.983   5.177  13.616 -0.6637 -0.2773 -0.6126
 4163TIP3    H233981   1.858   5.255  13.650 -0.5365 -0.4218  0.2086
 4164TIP3   OH233982   4.581   2.021  10.888 -0.0748  0.0243  0.2197
 4164TIP3    H133983   4.667   2.035  10.926  0.8823 -0.9024 -1.4532
 4164TIP3    H233984   4.597   1.961  10.815 -1.9704  0.7058 -0.8240
 4165TIP3   OH233985   2.835   3.906  14.231 -0.2752 -0.2330  0.8240
 4165TIP3    H133986   2.839   3.918  14.326 -1.0854  1.9234  0.6568
 4165TIP3    H233987   2.906   3.962  14.198 -0.7160 -0.0736  0.1297
 4166TIP3   OH233988   3.775   4.000  15.286  0.2057 -0.1215  0.1955
 4166TIP3    H133989   3.817   4.079  15.253  0.1814 -0.8622 -1.7422
 4166TIP3    H233990   3.833   3.968  15.355  0.9440  0.8029  0.0124
 4167TIP3   OH233991   5.947   0.048   2.463  0.0057  0.4257 -0.8908
 4167TIP3    H133992   5.958   0.131   2.418 -1.0973  0.5500 -0.9653
 4167TIP3    H233993   5.949  -0.018   2.394  1.1755  0.3477 -0.8017
 4168TIP3   OH233994   3.883   2.224   2.902  0.1611 -0.0959  0.0832
 4168TIP3    H133995   3.849   2.242   2.814  3.1236 -2.0713 -1.6158
 4168TIP3    H233996   3.887   2.129   2.907  0.7240 -0.0080  2.1420
 4169TIP3   OH233997   3.501   5.852   0.859  0.1413 -0.4053 -0.6274
 4169TIP3    H133998   3.498   5.758   0.838  0.3919 -1.0046  1.7748
 4169TIP3    H233999   3.422   5.867   0.910  1.0384  0.2556  0.5977
 4170TIP3   OH234000   2.329   5.854   6.057  0.0127 -0.0548 -1.0347
 4170TIP3    H134001   2.423   5.844   6.041  0.7059  2.5701  0.7253
 4170TIP3    H234002   2.296   5.764   6.062  3.1561 -1.2524  2.0540
 4171TIP3   OH234003   4.318   3.249  15.359  0.1405  0.0248 -0.6141
 4171TIP3    H134004   4.248   3.311  15.378 -0.9030 -1.1282 -0.6018
 4171TIP3    H234005   4.395   3.287  15.401 -0.6615  0.8866  0.1179
 4172TIP3   OH234006   3.770   4.519   3.846  0.0444  0.7994 -0.0077
 4172TIP3    H134007   3.735   4.476   3.768  0.3417  1.5607 -0.5735
 4172TIP3    H234008   3.696   4.570   3.880 -1.0040 -1.8018  1.9528
 4173TIP3   OH234009   4.080   6.756   2.401 -0.2197 -0.5851  0.1890
 4173TIP3    H134010   4.092   6.720   2.313 -1.7014 -2.5053  0.7142
 4173TIP3    H234011   4.051   6.681   2.453 -0.7941  0.8404  1.9811
 4174TIP3   OH234012   1.762   4.250  15.320  0.0043  0.2867 -0.0621
 4174TIP3    H134013   1.797   4.274  15.406 -2.1404  2.6067  0.2815
 4174TIP3    H234014   1.780   4.327  15.265 -1.7529  0.2952 -0.6786
 4175TIP3   OH234015   2.682   1.902  12.086  0.7636 -0.2621 -0.1986
 4175TIP3    H134016   2.633   1.870  12.010  1.0198 -1.2191  0.0274
 4175TIP3    H234017   2.744   1.832  12.106 -0.0352 -0.5145  1.5596
 4176TIP3   OH234018   0.561   1.952  15.246 -0.0666  0.2262 -0.5078
 4176TIP3    H134019   0.563   1.859  15.223 -1.8403  0.4556 -1.8618
 4176TIP3    H234020   0.628   1.962  15.313 -0.0227 -2.0748 -0.1288
 4177TIP3   OH234021   1.942   4.762   0.823  0.4886  0.0656 -0.6986
 4177TIP3    H134022   1.847   4.757   0.827  0.4445  1.0900 -0.0636
 4177TIP3    H234023   1.972   4.672   0.836 -0.4007 -0.4309 -1.9154
 4178TIP3   OH234024   2.206   3.521  11.060 -0.3310  0.0406 -0.0333
 4178TIP3    H134025   2.242   3.609  11.048 -0.0331  0.1257  1.3183
 4178TIP3    H234026   2.263   3.480  11.126 -2.3187 -0.0342  1.7269
 4179TIP3   OH234027   2.818   4.000  15.825 -0.5364 -0.7445 -0.0784
 4179TIP3    H134028   2.777   3.942  15.888 -0.8242 -0.7886 -0.3054
 4179TIP3    H234029   2.797   4.088  15.856 -0.4429 -0.7646  0.0408
 4180TIP3   OH234030   1.767   1.656  13.570  0.2999  0.0052 -0.0668
 4180TIP3    H134031   1.773   1.725  13.505  0.2011 -0.5316 -0.6533
 4180TIP3    H234032   1.796   1.697  13.652  0.2898  0.7173 -0.4181
 4181TIP3   OH234033   1.368   6.048   6.498 -0.1524  0.1182 -0.5180
 4181TIP3    H134034   1.343   6.140   6.492  1.8825  0.8458  0.9161
 4181TIP3    H234035   1.298   6.007   6.548 -0.2671  1.2801  0.3080
 4182TIP3   OH234036   4.354   6.256  11.538 -0.3881  0.7395  0.0682
 4182TIP3    H134037   4.409   6.333  11.529 -0.5676  0.9452  0.6505
 4182TIP3    H234038   4.288   6.264  11.469 -0.6991  1.3578  0.4310
 4183TIP3   OH234039   5.840   3.361  12.902 -0.7596  0.0361  0.3368
 4183TIP3    H134040   5.747   3.373  12.887 -0.4578  0.3635 -1.4668
 4183TIP3    H234041   5.883   3.406  12.829  0.7743 -1.2040  0.4006
 4184TIP3   OH234042   5.531   3.111   5.738 -0.2050  0.0746 -0.2947
 4184TIP3    H134043   5.502   3.120   5.647  1.4835  0.9674 -0.7860
 4184TIP3    H234044   5.567   3.023   5.743 -1.2044 -0.3381 -0.2044
 4185TIP3   OH234045   2.735   0.789   4.818 -0.0523 -0.9651 -0.0229
 4185TIP3    H134046   2.724   0.706   4.772  0.4400 -1.7215  1.1755
 4185TIP3    H234047   2.771   0.849   4.752  0.7954 -2.0593 -0.5758
 4186TIP3   OH234048   4.060   4.857  12.581  0.2636  0.5445 -0.3435
 4186TIP3    H134049   4.017   4.834  12.499  1.2404 -0.6380 -0.5599
 4186TIP3    H234050   4.087   4.948  12.570 -0.0055  0.5311 -1.1658
 4187TIP3   OH234051   0.672   5.983   3.149 -0.2229  0.4085 -0.1728
 4187TIP3    H134052   0.589   5.948   3.182 -0.3548  0.8591 -0.0233
 4187TIP3    H234053   0.738   5.921   3.181 -0.3672  0.7472  0.8044
 4188TIP3   OH234054   0.840   4.254   4.336  0.1454 -0.0145  0.1053
 4188TIP3    H134055   0.782   4.221   4.405 -1.0604 -0.1902 -0.9433
 4188TIP3    H234056   0.844   4.348   4.351 -2.1304  0.3363 -0.9550
 4189TIP3   OH234057   1.930   4.826  14.461 -0.0946  0.0621 -0.5276
 4189TIP3    H134058   1.902   4.770  14.534 -0.0225  0.4461 -0.2001
 4189TIP3    H234059   1.850   4.872  14.436 -0.3125 -0.6814 -1.2516
 4190TIP3   OH234060   2.394   3.322   2.526  0.1030  0.5712 -0.0362
 4190TIP3    H134061   2.385   3.237   2.571 -0.0207  0.7247  0.2325
 4190TIP3    H234062   2.316   3.329   2.472  0.9471 -0.2785 -1.4151
 4191TIP3   OH234063   5.013   2.736  16.068  0.0605  1.1991  0.1095
 4191TIP3    H134064   5.053   2.820  16.044 -1.8699  1.9930 -0.5666
 4191TIP3    H234065   4.944   2.723  16.002 -1.1436  0.1898  1.5070
 4192TIP3   OH234066   5.914   0.872  13.432 -0.2046 -0.4026  0.4423
 4192TIP3    H134067   5.840   0.916  13.389  0.3078 -1.2366 -1.3765
 4192TIP3    H234068   5.875   0.794  13.472 -0.7923  0.6830  2.1260
 4193TIP3   OH234069   1.321   5.172   5.086 -0.2612 -0.0055  0.5033
 4193TIP3    H134070   1.379   5.158   5.161 -0.8871 -2.0318  0.6879
 4193TIP3    H234071   1.265   5.245   5.112 -0.6928 -0.8634  2.2066
 4194TIP3   OH234072   6.401   0.924  16.674 -0.3599 -0.1808  0.0022
 4194TIP3    H134073   6.472   0.895  16.732  0.1301 -0.7405 -0.8416
 4194TIP3    H234074   6.321   0.906  16.723  0.0855  1.1174  1.2618
 4195TIP3   OH234075   6.658   3.115   5.128 -0.0423  0.0055  0.3405
 4195TIP3    H134076   6.570   3.149   5.146 -1.2140 -0.0915 -4.0078
 4195TIP3    H234077   6.681   3.153   5.044  2.8365 -2.3307 -0.0692
 4196TIP3   OH234078   2.791   6.182   2.123  0.8802  0.5639 -0.7129
 4196TIP3    H134079   2.876   6.149   2.094  0.1793 -0.7497 -1.3618
 4196TIP3    H234080   2.748   6.211   2.042  1.2471  2.6042 -0.2239
 4197TIP3   OH234081   3.653   6.781  11.215  0.2071  0.4099  0.0830
 4197TIP3    H134082   3.585   6.848  11.205  0.8113  0.8913 -0.9019
 4197TIP3    H234083   3.609   6.711  11.264 -1.0636  0.6145 -0.7023
 4198TIP3   OH234084   3.253   2.084   0.162 -0.2376  0.2182 -0.1746
 4198TIP3    H134085   3.230   2.075   0.255 -1.5900  0.2711 -0.4712
 4198TIP3    H234086   3.344   2.113   0.162 -1.0579  3.1652  1.2378
 4199TIP3   OH234087   6.370   0.714   1.996 -0.3752 -0.4859 -0.1742
 4199TIP3    H134088   6.318   0.673   1.927 -0.4301 -1.0467  0.2008
 4199TIP3    H234089   6.337   0.677   2.077 -0.2893  0.1515  0.1617
 4200TIP3   OH234090   3.235   5.606   3.331 -0.4062 -0.2935 -0.4636
 4200TIP3    H134091   3.282   5.663   3.392 -4.0017  2.1690  0.3636
 4200TIP3    H234092   3.259   5.517   3.357  0.1551  0.7081  2.9143
 4201TIP3   OH234093   3.143   5.961  16.895  0.4360 -0.3457 -0.3817
 4201TIP3    H134094   3.137   5.978  16.989 -1.3818  0.3428 -0.5826
 4201TIP3    H234095   3.199   5.883  16.889  0.4220 -0.5298  1.2834
 4202TIP3   OH234096   6.408   4.994  10.672 -0.3549  0.0052  0.5145
 4202TIP3    H134097   6.341   4.956  10.728 -1.5544  0.5088 -0.5318
 4202TIP3    H234098   6.487   4.942  10.690 -1.2225 -1.1236  1.1664
 4203TIP3   OH234099   0.300   3.555  15.531  0.4264 -0.1394  0.1991
 4203TIP3    H134100   0.214   3.564  15.490 -0.1857  1.1362  1.6370
 4203TIP3    H234101   0.334   3.644  15.534  1.8840 -0.6490 -0.4759
 4204TIP3   OH234102   2.935   4.727   1.592  0.4328  0.6765  0.3495
 4204TIP3    H134103   2.972   4.724   1.504 -1.0484 -0.1487 -0.2792
 4204TIP3    H234104   2.857   4.673   1.587  1.4638 -1.2304  2.7304
 4205TIP3   OH234105   4.742   3.604  16.906 -0.4046  0.0201  0.0156
 4205TIP3    H134106   4.712   3.668  16.841  0.0891  1.2860  0.9927
 4205TIP3    H234107   4.828   3.636  16.933  0.5283 -1.8810 -0.5248
 4206TIP3   OH234108   3.937   1.371  11.587 -0.4701  0.5222  0.0056
 4206TIP3    H134109   3.889   1.296  11.622 -0.7769  0.0066 -1.4669
 4206TIP3    H234110   3.883   1.447  11.612 -1.2723  0.0707 -0.3184
 4207TIP3   OH234111   3.883   4.591   4.349  0.2776 -0.3354 -0.4406
 4207TIP3    H134112   3.930   4.642   4.415 -0.2446 -1.6876  1.0215
 4207TIP3    H234113   3.899   4.500   4.373 -1.5129 -0.8484 -1.0388
 4208TIP3   OH234114   1.155   2.380   1.226 -0.5866 -0.1395  0.1354
 4208TIP3    H134115   1.113   2.340   1.150 -0.5530 -0.0957  0.0933
 4208TIP3    H234116   1.156   2.474   1.206 -1.1139 -0.0644  0.4581
 4209TIP3   OH234117   3.971   5.581  11.292 -0.2188 -0.5823 -0.7919
 4209TIP3    H134118   4.028   5.643  11.246 -0.7137 -0.4916 -1.2943
 4209TIP3    H234119   4.031   5.520  11.334  0.3065  0.7992  0.5251
 4210TIP3   OH234120   6.565   0.952   4.490 -0.2704  0.0724  0.2286
 4210TIP3    H134121   6.618   1.022   4.527  1.1974 -0.6909 -0.3726
 4210TIP3    H234122   6.576   0.879   4.550 -2.6727  0.5963  1.4605
 4211TIP3   OH234123   0.009   0.188   5.569  0.0343 -0.9138  0.7731
 4211TIP3    H134124   0.010   0.121   5.637  1.5349 -0.6813  1.0086
 4211TIP3    H234125   0.052   0.263   5.609  0.8616 -0.7463 -0.4033
 4212TIP3   OH234126   0.364   4.416   5.835  0.0502 -0.1570 -0.4448
 4212TIP3    H134127   0.457   4.435   5.848  0.5950 -3.0076  0.3714
 4212TIP3    H234128   0.323   4.503   5.829  2.6344  1.1845 -0.0980
 4213TIP3   OH234129   1.498   4.719   3.882  0.3182 -0.2051  0.1125
 4213TIP3    H134130   1.459   4.801   3.912 -0.5756 -0.7993  0.6246
 4213TIP3    H234131   1.546   4.686   3.959 -0.2203 -0.6821  0.2553
 4214TIP3   OH234132   0.646   4.320  15.212 -0.2343  0.2445  0.3049
 4214TIP3    H134133   0.622   4.230  15.191  1.5730 -0.6847  1.9681
 4214TIP3    H234134   0.729   4.334  15.165 -1.4457  1.7644 -1.5245
 4215TIP3   OH234135   3.765   6.136   3.168  0.3776  0.2062 -0.3818
 4215TIP3    H134136   3.831   6.200   3.142 -0.7670  1.7628  0.3995
 4215TIP3    H234137   3.681   6.175   3.142 -0.3935 -0.7148  0.6091
 4216TIP3   OH234138   1.390   4.617  14.555 -0.2392 -0.4374 -0.2908
 4216TIP3    H134139   1.303   4.644  14.585  0.4515  1.8319 -0.1423
 4216TIP3    H234140   1.450   4.653  14.620  0.9528  0.1878 -1.6879
 4217TIP3   OH234141   6.035   0.780   0.376  0.1236  0.7902 -0.5691
 4217TIP3    H134142   5.991   0.711   0.425  1.5993 -0.2311 -0.6117
 4217TIP3    H234143   6.011   0.861   0.421  0.5152 -0.0095  1.1572
 4218TIP3   OH234144   2.449   4.045   2.997 -0.7516  0.1470  0.0397
 4218TIP3    H134145   2.381   3.986   2.965 -1.6397  0.5602  1.1042
 4218TIP3    H234146   2.529   4.014   2.955 -1.2507 -1.5973  0.3155
 4219TIP3   OH234147   4.746   1.055  14.460 -0.3854 -0.4330 -0.3679
 4219TIP3    H134148   4.727   1.108  14.382  0.5231 -1.5232 -1.3674
 4219TIP3    H234149   4.668   1.002  14.472 -1.0153  0.5905  0.2156
 4220TIP3   OH234150   0.339   4.956   4.929 -0.0234 -0.1923 -0.8294
 4220TIP3    H134151   0.275   5.014   4.971 -0.8639 -0.4632 -1.7158
 4220TIP3    H234152   0.296   4.871   4.925  0.8142 -0.6444 -0.4695
 4221TIP3   OH234153   2.086   3.296   1.726 -0.2883 -0.8303  0.0165
 4221TIP3    H134154   2.142   3.220   1.710 -0.3263 -0.6465 -1.1294
 4221TIP3    H234155   2.015   3.286   1.662  0.9242  1.3397 -1.7900
 4222TIP3   OH234156   6.447   0.103  15.174  0.3977  0.7479  0.1437
 4222TIP3    H134157   6.494   0.158  15.112 -1.8039  2.7369  0.0741
 4222TIP3    H234158   6.463   0.013  15.144  2.4594  1.4349 -0.9821
 4223TIP3   OH234159   5.407   1.011   1.987  0.3511  0.0045 -0.1738
 4223TIP3    H134160   5.492   1.044   1.958  0.5987 -0.7358 -0.3179
 4223TIP3    H234161   5.404   1.029   2.081  0.0516  1.3267 -0.4110
 4224TIP3   OH234162   1.629   0.223   1.496  0.3123  0.0107  0.2887
 4224TIP3    H134163   1.709   0.256   1.455  1.0023 -2.7935 -0.8776
 4224TIP3    H234164   1.640   0.243   1.589  0.9080  2.3327 -0.2145
 4225TIP3   OH234165   0.421   4.181  14.691 -0.2107  0.2770  0.7524
 4225TIP3    H134166   0.463   4.137  14.765  0.9370  1.3072  0.7456
 4225TIP3    H234167   0.364   4.246  14.730  0.3142  0.7481  0.7491
 4226TIP3   OH234168   5.995   2.551  14.120 -0.7464  0.4900  0.3964
 4226TIP3    H134169   6.051   2.544  14.198  0.2142  0.3084 -0.2873
 4226TIP3    H234170   6.027   2.630  14.075  1.1908 -1.3418 -1.6691
 4227TIP3   OH234171   6.468   3.513  11.133  0.0919 -0.0618  0.5946
 4227TIP3    H134172   6.469   3.600  11.174 -1.7945 -0.3987  1.4618
 4227TIP3    H234173   6.481   3.531  11.040 -0.2721  1.1616  0.7571
 4228TIP3   OH234174   2.255   3.503   4.579 -0.0085  0.5127  0.6613
 4228TIP3    H134175   2.206   3.536   4.654  1.3837  0.6407  1.5475
 4228TIP3    H234176   2.265   3.409   4.596 -3.2057 -0.3813 -1.4243
 4229TIP3   OH234177   0.281   0.968   5.329  0.2894  0.4580 -0.4645
 4229TIP3    H134178   0.216   0.971   5.399  0.9725  2.8294  0.1676
 4229TIP3    H234179   0.276   1.055   5.289  2.8989  0.6486 -0.5220
 4230TIP3   OH234180   2.723   5.629   3.602  0.6506  0.4411 -0.4615
 4230TIP3    H134181   2.783   5.584   3.661  0.1895  0.8435  0.3282
 4230TIP3    H234182   2.723   5.576   3.522  3.1240  1.1835 -1.0403
 4231TIP3   OH234183   2.682   3.848  12.535  0.2130 -0.3510  0.0452
 4231TIP3    H134184   2.622   3.782  12.499  1.5203 -0.0419 -2.9875
 4231TIP3    H234185   2.627   3.900  12.594 -2.3054 -0.7085 -1.7983
 4232TIP3   OH234186   2.160   5.720  12.047  0.2688  0.1646  0.1996
 4232TIP3    H134187   2.242   5.753  12.083 -0.4672  1.4001  0.8330
 4232TIP3    H234188   2.095   5.739  12.115 -0.7782  0.5046 -0.8488
 4233TIP3   OH234189   5.235   1.405  16.685  0.4722  0.0143  0.6143
 4233TIP3    H134190   5.188   1.325  16.710  1.2234  0.0609  2.3398
 4233TIP3    H234191   5.224   1.464  16.760 -0.7984  1.9261 -0.9621
 4234TIP3   OH234192   2.750   3.347   4.504 -0.0565  0.7057 -0.0961
 4234TIP3    H134193   2.743   3.305   4.590  1.8958  0.1076 -0.1901
 4234TIP3    H234194   2.813   3.417   4.517 -0.7550  1.4707 -0.7530
 4235TIP3   OH234195   0.732   4.610  16.808  0.4747  0.6650 -0.3255
 4235TIP3    H134196   0.784   4.616  16.728 -0.4312 -1.0528 -1.0822
 4235TIP3    H234197   0.687   4.526  16.802 -3.1925  2.4298 -0.1935
 4236TIP3   OH234198   1.485   4.926  11.478  0.0110  0.4860  0.1684
 4236TIP3    H134199   1.406   4.965  11.517  0.5897  0.9789  0.8931
 4236TIP3    H234200   1.555   4.946  11.541  0.8623  0.7352 -0.8248
 4237TIP3   OH234201   4.360   0.840  15.150  0.4168  0.2740  0.0685
 4237TIP3    H134202   4.291   0.904  15.166  2.3655  2.5619 -0.1536
 4237TIP3    H234203   4.353   0.778  15.223 -0.3205  1.8644  1.4136
 4238TIP3   OH234204   3.854   4.729   1.871 -0.2709 -0.0014 -0.1619
 4238TIP3    H134205   3.791   4.701   1.937 -0.8897 -0.4645 -0.9196
 4238TIP3    H234206   3.883   4.815   1.899 -2.3731  0.8971 -0.5466
 4239TIP3   OH234207   2.988   2.092   2.363 -0.6231 -0.2167 -0.3825
 4239TIP3    H134208   3.018   2.009   2.399 -0.5455 -0.2155 -0.4444
 4239TIP3    H234209   2.972   2.147   2.440 -1.7803 -0.6580 -0.2877
 4240TIP3   OH234210   2.679   4.962  10.362  0.4847  0.1617 -0.1065
 4240TIP3    H134211   2.669   5.010  10.444 -0.1027 -0.7424  0.3573
 4240TIP3    H234212   2.606   4.991  10.308  0.2946  0.0079  0.0670
 4241TIP3   OH234213   3.699   6.656  14.113 -0.1043  0.3899  0.2771
 4241TIP3    H134214   3.794   6.650  14.125 -0.2400 -1.5025  0.8685
 4241TIP3    H234215   3.667   6.696  14.194  0.1943  1.1293  0.0313
 4242TIP3   OH234216   4.085   0.812   4.224 -0.1041 -0.2369 -0.3045
 4242TIP3    H134217   4.085   0.908   4.228 -2.2405 -0.1747 -0.5722
 4242TIP3    H234218   4.013   0.786   4.281  0.7046 -1.7333  0.0814
 4243TIP3   OH234219   0.306   1.092  13.742 -0.4653  0.2682 -0.1550
 4243TIP3    H134220   0.338   1.002  13.740  0.5893  0.6227 -2.6444
 4243TIP3    H234221   0.245   1.094  13.815 -0.4561 -2.4316  0.0223
 4244TIP3   OH234222   0.343   3.291  13.913  0.8858 -0.2295 -0.0664
 4244TIP3    H134223   0.332   3.348  13.989  0.0549 -0.3355 -0.1018
 4244TIP3    H234224   0.320   3.346  13.838  1.1629 -0.2888 -0.1952
 4245TIP3   OH234225   5.590   1.799   5.789  0.0099  0.3060  0.2110
 4245TIP3    H134226   5.619   1.800   5.880 -1.0331 -1.2908  0.6073
 4245TIP3    H234227   5.553   1.711   5.777 -0.6677  0.7886 -1.4975
 4246TIP3   OH234228   0.220   4.425   5.269 -0.0882 -0.0429 -0.0248
 4246TIP3    H134229   0.176   4.351   5.310  0.6983 -0.8343 -0.5788
 4246TIP3    H234230   0.285   4.454   5.333 -0.1891 -0.0217  0.0675
 4247TIP3   OH234231   4.774   6.168  13.815  0.4282 -0.4223  0.1617
 4247TIP3    H134232   4.813   6.125  13.739  2.2897 -0.5505  1.1406
 4247TIP3    H234233   4.797   6.260  13.805  0.7730 -0.4575  0.6264
 4248TIP3   OH234234   2.576   6.745  16.432  0.6519 -0.1004  0.7382
 4248TIP3    H134235   2.521   6.740  16.510 -0.8902  1.0524 -0.2167
 4248TIP3    H234236   2.521   6.787  16.366  2.1952 -0.2567 -0.7299
 4249TIP3   OH234237   0.964   4.234  12.866  0.6650  0.0907 -0.5366
 4249TIP3    H134238   0.912   4.264  12.791  0.8580  2.8757  0.3204
 4249TIP3    H234239   0.899   4.210  12.932  0.4713  0.3853 -0.6171
 4250TIP3   OH234240   6.775   0.594  14.388  0.4394 -0.7500  0.0417
 4250TIP3    H134241   6.686   0.615  14.362  0.9570 -0.7579 -1.8209
 4250TIP3    H234242   6.792   0.507  14.352  1.5310 -0.3314 -0.5037
 4251TIP3   OH234243   2.363   0.352   5.951 -0.2321 -0.0962  0.2871
 4251TIP3    H134244   2.458   0.344   5.940  0.2221  0.5337  3.1551
 4251TIP3    H234245   2.346   0.317   6.038 -2.2003  2.5581  1.0722
 4252TIP3   OH234246   5.669   3.404  13.337  0.3853  0.7839 -0.1461
 4252TIP3    H134247   5.659   3.476  13.275  2.5866  0.3314 -1.1334
 4252TIP3    H234248   5.642   3.326  13.288 -0.7633  0.7530  0.4988
 4253TIP3   OH234249   1.654   6.807  15.426  0.4730  0.7094 -0.1416
 4253TIP3    H134250   1.577   6.817  15.481  0.2275 -0.1157 -0.3083
 4253TIP3    H234251   1.703   6.889  15.436 -0.1804  1.0457  0.3393
 4254TIP3   OH234252   2.838   5.265  11.228 -0.3321 -0.3260 -0.0678
 4254TIP3    H134253   2.913   5.318  11.202  1.4854 -0.9461  3.3100
 4254TIP3    H234254   2.777   5.327  11.267 -0.7271 -0.0699 -1.0686
 4255TIP3   OH234255   4.840   0.260  13.669 -0.1224  0.6210  0.1305
 4255TIP3    H134256   4.820   0.167  13.675 -2.3502  0.8363 -2.1679
 4255TIP3    H234257   4.934   0.264  13.650  0.2823 -1.0231  1.5376
 4256TIP3   OH234258   2.426   4.213  14.892 -0.2218  0.1181  0.1440
 4256TIP3    H134259   2.457   4.156  14.822  1.3834  0.6803  0.3536
 4256TIP3    H234260   2.438   4.301  14.859  0.3009  0.3864  1.0101
 4257TIP3   OH234261   5.090   4.016   0.256 -0.2510  0.3717  0.2045
 4257TIP3    H134262   5.092   3.927   0.290  0.7677 -0.1791 -1.2209
 4257TIP3    H234263   5.174   4.027   0.210 -0.1191  2.2540  0.8181
 4258TIP3   OH234264   1.836   5.732   0.133  0.0932  0.3112 -0.4298
 4258TIP3    H134265   1.748   5.699   0.113 -0.8564  0.9722  2.1975
 4258TIP3    H234266   1.842   5.727   0.228  3.3285 -0.6045 -0.5864
 4259TIP3   OH234267   5.408   1.428  15.070 -0.4268 -0.5313 -0.2052
 4259TIP3    H134268   5.364   1.458  14.990 -2.0614 -3.8411 -0.6923
 4259TIP3    H234269   5.501   1.429  15.048 -0.6845  0.6491 -1.3702
 4260TIP3   OH234270   6.536   3.472  13.026 -1.2356  0.4947 -0.0293
 4260TIP3    H134271   6.535   3.385  13.067  2.8743  0.7334  1.0030
 4260TIP3    H234272   6.513   3.532  13.097  0.5100  0.5157  0.5541
 4261TIP3   OH234273   5.435   5.782   1.359 -0.0878 -0.3714 -0.3916
 4261TIP3    H134274   5.459   5.784   1.452 -1.0542  0.9992 -0.1431
 4261TIP3    H234275   5.512   5.817   1.314  0.4659 -1.2384 -0.1467
 4262TIP3   OH234276   5.825   3.021  14.007 -0.9219 -0.2954  0.1062
 4262TIP3    H134277   5.769   2.982  13.940  0.4660  0.9043 -1.8643
 4262TIP3    H234278   5.818   3.115  13.992  0.7833 -0.0850  0.4806
 4263TIP3   OH234279   0.620   3.312  12.807  0.2760 -0.3322  0.2526
 4263TIP3    H134280   0.566   3.364  12.866  0.7330  0.2362  0.1873
 4263TIP3    H234281   0.563   3.293  12.732  0.0028 -0.2077  0.4273
 4264TIP3   OH234282   4.266   6.695  15.869  0.3622  0.0721  0.1295
 4264TIP3    H134283   4.218   6.614  15.850  1.3903 -0.4247 -0.4503
 4264TIP3    H234284   4.198   6.759  15.889 -0.5917 -0.4128 -1.3952
 4265TIP3   OH234285   5.276   1.096  14.246  0.0329 -0.4078  0.4733
 4265TIP3    H134286   5.221   1.170  14.272 -1.1764 -1.0471 -0.1756
 4265TIP3    H234287   5.235   1.020  14.286 -0.7061 -1.1426 -1.5521
 4266TIP3   OH234288   6.079   6.429  11.752  0.3814 -0.2341 -0.3277
 4266TIP3    H134289   6.106   6.367  11.819  1.8537  0.0262 -0.6268
 4266TIP3    H234290   5.984   6.435  11.759  0.5210 -0.0776  1.8348
 4267TIP3   OH234291   1.225   3.849   1.499 -0.3480  0.5458 -0.3183
 4267TIP3    H134292   1.177   3.840   1.582 -1.7551  0.2101 -1.1381
 4267TIP3    H234293   1.296   3.910   1.519 -1.3991  1.4445  0.8199
 4268TIP3   OH234294   4.513   5.101  16.379 -0.2082 -0.0990  0.4208
 4268TIP3    H134295   4.464   5.020  16.390 -3.4729  1.4951 -1.1036
 4268TIP3    H234296   4.449   5.171  16.394  2.1934  2.2465  0.6381
 4269TIP3   OH234297   3.216   1.945  14.182 -0.0741 -0.5300 -0.2650
 4269TIP3    H134298   3.243   1.863  14.140 -0.4563 -2.4870  2.9849
 4269TIP3    H234299   3.122   1.935  14.197 -0.4281  1.1770 -1.0645
 4270TIP3   OH234300   3.292   0.521  12.345 -0.1263  0.0947  0.1453
 4270TIP3    H134301   3.201   0.548  12.331 -0.3099 -0.6190 -0.0621
 4270TIP3    H234302   3.341   0.603  12.341 -0.9326  0.7067  1.8376
 4271TIP3   OH234303   0.609   3.728   2.937 -0.4955  0.3701 -0.2483
 4271TIP3    H134304   0.557   3.771   3.005 -0.2251 -0.1087  0.2604
 4271TIP3    H234305   0.631   3.643   2.973  0.0003  0.2706 -0.7735
 4272TIP3   OH234306   0.821   4.203  11.191  0.6517  0.5252 -0.3291
 4272TIP3    H134307   0.737   4.210  11.146  0.9406  1.1735 -0.7864
 4272TIP3    H234308   0.871   4.279  11.161  1.3309  0.2556  0.0858
 4273TIP3   OH234309   4.838   1.503  12.245 -0.0971  0.0168  0.2496
 4273TIP3    H134310   4.926   1.477  12.218 -0.0263 -0.2263  0.7065
 4273TIP3    H234311   4.811   1.436  12.309  0.4262  1.4777  2.1051
 4274TIP3   OH234312   2.302   1.290   2.789  0.1934 -0.2439 -0.4826
 4274TIP3    H134313   2.336   1.226   2.727  1.1240 -1.9208  1.6278
 4274TIP3    H234314   2.376   1.347   2.809  0.0596 -0.0850 -0.4313
 4275TIP3   OH234315   5.686   3.176  14.739  0.0463  0.2518  0.6859
 4275TIP3    H134316   5.765   3.213  14.779  1.5780 -1.6732 -0.3445
 4275TIP3    H234317   5.717   3.141  14.656 -1.3047 -2.8981  1.3931
 4276TIP3   OH234318   3.635   1.207   3.578 -0.2933  0.4004 -0.0135
 4276TIP3    H134319   3.692   1.140   3.540 -1.0678 -0.1098 -0.2896
 4276TIP3    H234320   3.680   1.234   3.658 -0.9703 -2.0075  1.2835
 4277TIP3   OH234321   3.810   5.251  12.139 -0.2849 -0.1652 -0.4990
 4277TIP3    H134322   3.851   5.166  12.120 -1.6571 -0.5345 -2.0333
 4277TIP3    H234323   3.731   5.229  12.188  0.0063  0.3359  0.1999
 4278TIP3   OH234324   2.940   3.418   5.382  0.9059 -0.5802  0.2302
 4278TIP3    H134325   2.954   3.429   5.476  0.0794 -1.2789  0.4522
 4278TIP3    H234326   2.917   3.325   5.372  2.4347 -0.8853 -0.8502
 4279TIP3   OH234327   6.123   2.210   4.682 -0.0105 -0.0161 -0.3354
 4279TIP3    H134328   6.058   2.149   4.716  0.2021 -0.2338 -0.3177
 4279TIP3    H234329   6.175   2.234   4.759  0.9893 -1.1404 -0.6312
 4280TIP3   OH234330   3.631   4.392  10.924  0.1374 -0.5679  0.4155
 4280TIP3    H134331   3.678   4.452  10.983  0.2034 -0.8547  0.6582
 4280TIP3    H234332   3.689   4.382  10.849  0.6030 -1.1523  0.8461
 4281TIP3   OH234333   4.086   1.363  11.843  0.1475  0.4367  0.2605
 4281TIP3    H134334   4.076   1.389  11.751 -1.0551 -0.1487  0.1989
 4281TIP3    H234335   4.010   1.401  11.886  0.8755  0.9806  1.1020
 4282TIP3   OH234336   3.527   6.114   3.016 -1.2302 -0.2829  0.2680
 4282TIP3    H134337   3.513   6.036   2.962  1.0533 -0.4506 -0.1725
 4282TIP3    H234338   3.513   6.187   2.956 -1.2262 -0.4093  0.1132
 4283TIP3   OH234339   5.473   3.007   1.090  0.0201  0.1700 -0.4104
 4283TIP3    H134340   5.500   3.094   1.058 -0.5876  0.6862  0.4412
 4283TIP3    H234341   5.377   3.011   1.091  0.0188 -0.0704  0.8275
 4284TIP3   OH234342   3.578   6.411   5.889 -0.3272  0.3664 -0.4684
 4284TIP3    H134343   3.574   6.415   5.984  2.0526 -0.8586 -0.2109
 4284TIP3    H234344   3.653   6.466   5.866 -0.3197 -0.0650 -1.5424
 4285TIP3   OH234345   4.923   2.403   5.385  0.1148  0.0619  0.3850
 4285TIP3    H134346   4.862   2.365   5.448 -0.3537  0.4389  0.1592
 4285TIP3    H234347   4.929   2.338   5.315 -0.0311  0.0282  0.4034
 4286TIP3   OH234348   1.418   1.399   0.603 -0.4299  0.0013  0.5090
 4286TIP3    H134349   1.510   1.374   0.611 -0.6054 -1.4800 -1.3053
 4286TIP3    H234350   1.413   1.486   0.642  1.3851 -0.5616  2.1241
 4287TIP3   OH234351   4.010   1.955   3.582  0.1482 -0.7534  0.2081
 4287TIP3    H134352   3.966   1.928   3.662 -0.2243 -0.7516  0.0061
 4287TIP3    H234353   4.093   1.907   3.583 -1.2238 -3.3370 -0.9999
 4288TIP3   OH234354   0.795   3.347   6.793 -0.1116  0.5697 -0.7051
 4288TIP3    H134355   0.722   3.286   6.804  0.3732 -0.0201 -0.7094
 4288TIP3    H234356   0.766   3.428   6.836 -0.0102 -0.2791  1.0278
 4289TIP3   OH234357   4.225   3.423   6.357  0.2898 -0.3934 -0.0011
 4289TIP3    H134358   4.185   3.462   6.435  0.5242  1.9329 -0.9651
 4289TIP3    H234359   4.152   3.407   6.298  0.4879  2.9604 -1.3787
 4290TIP3   OH234360   2.806   4.458   3.004  0.0646 -0.5869 -0.1772
 4290TIP3    H134361   2.817   4.414   3.088 -0.6660 -0.7010 -0.1388
 4290TIP3    H234362   2.787   4.388   2.942  2.9108 -0.8269 -0.9520
 4291TIP3   OH234363   2.462   3.526  11.910 -0.8563 -0.1312  0.2246
 4291TIP3    H134364   2.457   3.568  11.824  0.3137  2.6920  1.3989
 4291TIP3    H234365   2.371   3.513  11.937 -1.2277 -0.5955 -1.1940
 4292TIP3   OH234366   4.882   1.314   5.151  0.1364  0.0177  0.6314
 4292TIP3    H134367   4.843   1.359   5.076  0.0205 -0.1962  0.5621
 4292TIP3    H234368   4.910   1.229   5.116 -1.9324 -1.0055  1.3042
 4293TIP3   OH234369   3.007   4.358  13.358  0.6443 -0.6811  0.3027
 4293TIP3    H134370   3.048   4.275  13.383  0.4376 -1.0782 -0.6399
 4293TIP3    H234371   2.919   4.353  13.394  0.8556 -0.5601  0.8505
 4294TIP3   OH234372   0.680   5.758   2.313  0.0955  0.0616 -0.1657
 4294TIP3    H134373   0.593   5.719   2.322  0.6744 -1.1854  0.2973
 4294TIP3    H234374   0.674   5.811   2.233 -1.4429  1.0513  0.5510
 4295TIP3   OH234375   4.279   0.996   3.692 -0.7321 -0.2893  0.0830
 4295TIP3    H134376   4.326   1.070   3.730 -0.4808 -0.9656  1.1185
 4295TIP3    H234377   4.288   0.926   3.756  0.8775 -1.9169 -1.7859
 4296TIP3   OH234378   5.041   4.682   6.696 -0.5992 -0.2639 -0.0500
 4296TIP3    H134379   5.101   4.731   6.752 -1.7642  1.8447 -0.5265
 4296TIP3    H234380   4.973   4.651   6.756 -0.6655  0.0410  0.0345
 4297TIP3   OH234381   4.379   6.745   5.021  0.2298 -0.3572  0.5402
 4297TIP3    H134382   4.321   6.821   5.018  1.4221  0.5553 -1.3680
 4297TIP3    H234383   4.458   6.777   5.065  0.7201 -0.4755 -0.2305
 4298TIP3   OH234384   3.156   6.085   5.091 -0.1339 -0.3318  0.0256
 4298TIP3    H134385   3.123   6.068   5.179 -0.7415 -0.6930 -0.2748
 4298TIP3    H234386   3.171   6.180   5.090 -3.1476  0.2427 -0.4918
 4299TIP3   OH234387   2.696   3.016  15.627  0.1261  0.2198  0.5585
 4299TIP3    H134388   2.756   3.002  15.699 -1.2883  1.0826  1.9641
 4299TIP3    H234389   2.687   3.111  15.620 -0.7994  0.1218  0.1573
 4300TIP3   OH234390   1.255   5.466   1.141  0.0079  0.5937 -0.2462
 4300TIP3    H134391   1.275   5.382   1.184 -2.8802 -0.6552 -1.1093
 4300TIP3    H234392   1.282   5.532   1.204 -1.4004 -1.0884  2.3226
 4301TIP3   OH234393   2.179   2.365   1.396  0.4261  0.0128 -0.3362
 4301TIP3    H134394   2.138   2.446   1.367  0.2689 -0.1594 -0.5979
 4301TIP3    H234395   2.215   2.326   1.316  0.1227 -0.3894 -0.2785
 4302TIP3   OH234396   5.418   1.575   3.853  0.0805  0.2620 -0.8615
 4302TIP3    H134397   5.443   1.579   3.946  2.1950 -0.2459 -1.3566
 4302TIP3    H234398   5.358   1.649   3.842 -0.3147  0.2671  0.9178
 4303TIP3   OH234399   3.576   2.957  11.101 -0.3611  0.0249 -0.0571
 4303TIP3    H134400   3.580   3.053  11.092 -0.1842 -0.1077 -1.8003
 4303TIP3    H234401   3.626   2.939  11.181  0.0555  1.3535  0.0201
 4304TIP3   OH234402   2.702   2.359  15.126  0.6733 -0.2155 -0.2258
 4304TIP3    H134403   2.731   2.270  15.146  0.1092  0.0867  2.2709
 4304TIP3    H234404   2.780   2.412  15.138  0.6365 -0.1840 -0.1277
 4305TIP3   OH234405   5.425   3.016  16.363 -0.3473  0.7043 -0.1794
 4305TIP3    H134406   5.473   2.935  16.346 -2.0464 -0.5855  0.8101
 4305TIP3    H234407   5.469   3.054  16.438  0.6247  0.8532 -0.8090
 4306TIP3   OH234408   3.694   3.276   2.467  0.0939  0.5572 -0.6412
 4306TIP3    H134409   3.724   3.202   2.521 -0.7701  0.2497 -0.5619
 4306TIP3    H234410   3.681   3.238   2.380  0.0507  0.7130 -0.7031
 4307TIP3   OH234411   6.186   1.128   1.616  0.2471 -0.6328 -0.5210
 4307TIP3    H134412   6.213   1.213   1.653  1.0148 -0.9133 -0.4277
 4307TIP3    H234413   6.131   1.089   1.684 -1.0439  0.2599 -1.0110
 4308TIP3   OH234414   3.729   5.074   3.918  0.1202 -0.1260  0.0705
 4308TIP3    H134415   3.759   5.038   4.001 -0.3708  0.4011  0.4866
 4308TIP3    H234416   3.657   5.132   3.942 -1.3744 -1.5025 -0.9134
 4309TIP3   OH234417   6.744   2.580  15.824  0.0338  0.5796  0.3878
 4309TIP3    H134418   6.681   2.653  15.831 -0.2984  0.2669  0.6904
 4309TIP3    H234419   6.711   2.528  15.751  0.1912  0.6516  0.2643
 4310TIP3   OH234420   5.130   4.688   1.087 -0.1423 -0.4372 -0.5228
 4310TIP3    H134421   5.048   4.676   1.136 -0.9301  1.0414 -1.4169
 4310TIP3    H234422   5.169   4.600   1.085 -0.3850 -0.7083  2.1388
 4311TIP3   OH234423   0.467   2.649  14.753  0.5280 -0.1038  0.1527
 4311TIP3    H134424   0.543   2.707  14.748  0.4510  0.1465  1.5296
 4311TIP3    H234425   0.453   2.620  14.663  2.2345 -0.1365 -0.1309
 4312TIP3   OH234426   2.306   6.296   3.193  0.2981  0.1108 -0.2793
 4312TIP3    H134427   2.361   6.266   3.265  0.4859  0.7426 -0.1488
 4312TIP3    H234428   2.222   6.318   3.235 -0.5200 -2.0338 -0.6563
 4313TIP3   OH234429   2.258   2.028  13.607  0.1773 -0.6606 -0.6358
 4313TIP3    H134430   2.226   2.104  13.558  2.0381 -0.7540 -2.1163
 4313TIP3    H234431   2.334   2.060  13.655 -0.5109 -1.0323  0.7708
 4314TIP3   OH234432   1.987   3.961   2.402  0.0978  0.3044  0.2484
 4314TIP3    H134433   1.911   3.911   2.430 -0.6215  0.2658 -1.6053
 4314TIP3    H234434   2.058   3.897   2.397  0.0857  0.2004  1.3209
 4315TIP3   OH234435   6.428   1.262  16.051 -0.3971  0.1769 -0.5247
 4315TIP3    H134436   6.476   1.236  16.130 -0.4676  0.0667 -0.5175
 4315TIP3    H234437   6.451   1.354  16.037  0.0064  0.0568 -0.6580
 4316TIP3   OH234438   4.787   0.372   5.557 -0.5921  0.6030 -0.0483
 4316TIP3    H134439   4.785   0.332   5.644 -0.0089  1.2779  0.2854
 4316TIP3    H234440   4.718   0.326   5.508  1.4593 -2.3397 -0.4091
 4317TIP3   OH234441   4.965   1.757  13.854  0.0847  0.6441  0.5041
 4317TIP3    H134442   5.026   1.814  13.900  0.7806 -0.1013  0.5168
 4317TIP3    H234443   4.907   1.817  13.807  1.4189  1.3524 -0.2800
 4318TIP3   OH234444   6.647   5.416   3.830  0.2719  0.4926 -0.4069
 4318TIP3    H134445   6.672   5.497   3.786 -0.5339 -0.1751 -2.1806
 4318TIP3    H234446   6.551   5.413   3.823  0.1834 -0.0174  0.7480
 4319TIP3   OH234447   5.848   0.885  15.950  0.1875 -0.2115  0.1089
 4319TIP3    H134448   5.844   0.790  15.947  2.4166 -0.3755  0.1019
 4319TIP3    H234449   5.761   0.913  15.977 -0.3498 -2.2828  0.6716
 4320TIP3   OH234450   1.417   5.181  12.204  0.1788 -0.6666  0.0721
 4320TIP3    H134451   1.387   5.242  12.137  3.0096  0.3242 -0.4593
 4320TIP3    H234452   1.443   5.103  12.155  1.8193 -0.1148  0.0104
 4321TIP3   OH234453   2.688   4.471  13.623  0.2698  0.4579 -0.9829
 4321TIP3    H134454   2.716   4.408  13.556  2.0650  0.4581 -0.2745
 4321TIP3    H234455   2.761   4.475  13.685 -1.3560  0.3789  1.0601
 4322TIP3   OH234456   0.546   3.672   4.744 -0.0431 -0.2882  1.3707
 4322TIP3    H134457   0.616   3.625   4.698 -1.7648 -0.2704 -1.5891
 4322TIP3    H234458   0.590   3.720   4.813  2.5616 -1.8478  0.9241
 4323TIP3   OH234459   3.061   4.893   1.035 -0.3632 -0.2559  0.1202
 4323TIP3    H134460   3.078   4.963   0.972  0.5649  0.0981  0.7492
 4323TIP3    H234461   3.021   4.937   1.110  0.6007 -0.3160  0.6869
 4324TIP3   OH234462   4.645   2.255  11.747  0.1336 -0.5874  0.0625
 4324TIP3    H134463   4.591   2.221  11.817 -0.5491 -1.3540 -0.8178
 4324TIP3    H234464   4.655   2.348  11.768 -1.5416 -0.4211  0.2409
 4325TIP3   OH234465   1.631   2.159   1.766 -0.0813 -0.3696  0.3553
 4325TIP3    H134466   1.559   2.220   1.781  0.9855  1.0789 -0.1891
 4325TIP3    H234467   1.611   2.119   1.681  0.0146  0.4399 -0.0642
 4326TIP3   OH234468   2.434   5.750  16.256 -0.1584  0.0110  0.7770
 4326TIP3    H134469   2.462   5.676  16.311  2.0020  0.9995  1.1262
 4326TIP3    H234470   2.372   5.798  16.311 -1.0688 -1.1671  0.8014
 4327TIP3   OH234471   0.245   5.849  14.085 -0.2527  0.3222 -0.3772
 4327TIP3    H134472   0.271   5.768  14.041 -0.3056  0.6001 -0.9195
 4327TIP3    H234473   0.327   5.885  14.120 -0.0912  0.5336 -0.9739
 4328TIP3   OH234474   3.662   1.549   1.611  0.1517  0.2256  0.4086
 4328TIP3    H134475   3.642   1.609   1.539  1.9316  0.7173  0.2609
 4328TIP3    H234476   3.609   1.581   1.684 -1.9735 -0.5099 -0.7338
 4329TIP3   OH234477   2.443   0.377  12.011 -0.0111  0.0101 -0.1801
 4329TIP3    H134478   2.365   0.354  11.962 -0.2820  1.3229 -0.3964
 4329TIP3    H234479   2.481   0.292  12.037 -1.6769 -0.6406  0.2468
 4330TIP3   OH234480   2.323   0.390  15.232 -0.0938  0.1124  0.5428
 4330TIP3    H134481   2.378   0.339  15.292 -1.3736  0.2707  1.9359
 4330TIP3    H234482   2.289   0.326  15.170  1.1931 -0.0778  0.0152
 4331TIP3   OH234483   2.023   5.038  16.391 -0.6551 -0.6455 -0.4877
 4331TIP3    H134484   1.985   4.965  16.440 -0.2406 -0.3501  0.2919
 4331TIP3    H234485   2.010   5.014  16.299 -1.0049 -1.4434 -0.2441
 4332TIP3   OH234486   4.150   4.513  12.117 -0.5252  0.1838  0.5062
 4332TIP3    H134487   4.122   4.554  12.036 -1.0272 -1.1030  0.0050
 4332TIP3    H234488   4.087   4.542  12.183 -1.1799 -0.2095  0.0518
 4333TIP3   OH234489   4.217   6.506  11.154  0.1655 -0.5843  0.2218
 4333TIP3    H134490   4.211   6.461  11.069 -0.3308 -1.2591  0.6056
 4333TIP3    H234491   4.162   6.454  11.213  0.9194 -0.4254  1.0894
 4334TIP3   OH234492   3.313   5.398   1.519 -0.3101  0.0880  0.4765
 4334TIP3    H134493   3.286   5.344   1.593 -1.4347 -0.8266 -0.5416
 4334TIP3    H234494   3.234   5.447   1.495 -0.2176 -0.2619 -0.6167
 4335TIP3   OH234495   4.030   1.192   5.872 -0.0605  0.4164  0.1625
 4335TIP3    H134496   4.081   1.249   5.929 -0.6167  1.5230 -0.4049
 4335TIP3    H234497   4.094   1.131   5.834  0.7054  1.2704  0.0562
 4336TIP3   OH234498   2.192   4.880  11.031  0.2624 -0.2042 -0.1997
 4336TIP3    H134499   2.238   4.887  10.948 -0.7788 -1.1770 -0.8986
 4336TIP3    H234500   2.232   4.946  11.087  2.5469 -1.0783 -0.7124
 4337TIP3   OH234501   5.254   4.270   3.839  0.2008  0.0687 -0.1650
 4337TIP3    H134502   5.233   4.248   3.748  2.1997  0.6732 -0.8284
 4337TIP3    H234503   5.246   4.187   3.886 -1.0107 -0.2240 -0.8339
 4338TIP3   OH234504   5.785   6.618  16.331 -0.1463  0.0248  0.0543
 4338TIP3    H134505   5.857   6.587  16.276 -1.0977 -2.3369 -0.0086
 4338TIP3    H234506   5.739   6.682  16.278  1.1657  0.6415 -0.3795
 4339TIP3   OH234507   1.144   6.742  14.285  0.1727 -0.0599  0.0091
 4339TIP3    H134508   1.224   6.720  14.332 -0.1758 -0.4689  0.4154
 4339TIP3    H234509   1.151   6.836  14.268  0.1060  0.1940  1.2658
 4340TIP3   OH234510   5.752   5.170   1.446  0.1813 -0.0405 -0.5739
 4340TIP3    H134511   5.830   5.173   1.391  0.5508 -0.4731 -0.0814
 4340TIP3    H234512   5.692   5.234   1.406  0.7502  0.2355 -1.0013
 4341TIP3   OH234513   5.458   3.092   3.272 -0.1386  0.2847  0.2071
 4341TIP3    H134514   5.531   3.110   3.331  1.2140  2.0747 -1.8526
 4341TIP3    H234515   5.384   3.140   3.309  0.4841  0.7709  0.8404
 4342TIP3   OH234516   4.431   5.463   4.571 -0.2489 -0.5637 -0.5525
 4342TIP3    H134517   4.459   5.391   4.515  0.4900 -1.7945  1.3048
 4342TIP3    H234518   4.409   5.421   4.654  3.1035  1.6160  1.6297
 4343TIP3   OH234519   5.054   0.497   4.746  0.4035 -0.4951  0.3856
 4343TIP3    H134520   5.119   0.489   4.816 -0.4381 -2.2165  1.0162
 4343TIP3    H234521   4.970   0.506   4.791  0.1522  1.9009 -0.4225
 4344TIP3   OH234522   0.125   4.046  16.904  0.7183  0.0161  0.2129
 4344TIP3    H134523   0.120   4.097  16.823 -1.4239 -0.1427  0.1823
 4344TIP3    H234524   0.205   3.993  16.894  0.7712  0.3706 -1.5703
 4345TIP3   OH234525   2.425   1.077  12.054 -0.4868 -0.0232 -0.1204
 4345TIP3    H134526   2.507   1.126  12.061 -1.1291  1.1106 -0.2752
 4345TIP3    H234527   2.452   0.985  12.058  0.6252  0.3285  1.6052
 4346TIP3   OH234528   0.749   5.493   5.509  0.5489  0.5569  0.6296
 4346TIP3    H134529   0.778   5.479   5.419  1.1937 -1.3779  1.0866
 4346TIP3    H234530   0.822   5.537   5.551  0.6154  0.6376  0.4295
 4347TIP3   OH234531   4.340   2.623   2.677  0.3142 -0.3636  0.5228
 4347TIP3    H134532   4.263   2.567   2.672  0.2743 -0.4338  1.6507
 4347TIP3    H234533   4.326   2.690   2.610 -0.9023 -0.1632  0.9591
 4348TIP3   OH234534   2.164   2.861  16.572  0.1866 -0.6498 -0.5365
 4348TIP3    H134535   2.207   2.863  16.487 -1.5405 -1.8021 -1.5098
 4348TIP3    H234536   2.124   2.948  16.580 -0.3344 -0.7945 -1.3292
 4349TIP3   OH234537   6.556   0.355   5.982  0.0843 -0.2225  0.9041
 4349TIP3    H134538   6.487   0.418   6.001  2.4536  2.1474  2.3696
 4349TIP3    H234539   6.593   0.385   5.899 -0.8235 -1.7275 -0.0919
 4350TIP3   OH234540   0.708   2.081   3.759 -0.0416 -0.1903 -0.1867
 4350TIP3    H134541   0.686   2.013   3.696 -0.6399 -0.2938  0.1195
 4350TIP3    H234542   0.636   2.078   3.823  0.6014 -0.1546  0.5533
 4351TIP3   OH234543   1.724   0.258   5.250  0.2140  0.4404  0.4793
 4351TIP3    H134544   1.666   0.230   5.179 -1.1247  1.7418  1.0053
 4351TIP3    H234545   1.802   0.289   5.205 -0.8485  1.8298 -0.5270
 4352TIP3   OH234546   4.060   3.112  11.554 -0.3882  0.2424 -0.1352
 4352TIP3    H134547   4.085   3.189  11.605 -1.2954 -0.8187  2.0244
 4352TIP3    H234548   4.077   3.038  11.613 -3.5319 -0.9083 -0.4837
 4353TIP3   OH234549   0.761   1.619   1.368 -0.2613  0.0110 -0.3642
 4353TIP3    H134550   0.719   1.625   1.283 -1.7120 -1.5033  0.2045
 4353TIP3    H234551   0.849   1.585   1.350  0.5575  2.4505 -1.4840
 4354TIP3   OH234552   1.663   4.762   2.324 -0.1613  0.0757 -0.2150
 4354TIP3    H134553   1.678   4.756   2.418  2.0791  0.9786 -0.4473
 4354TIP3    H234554   1.650   4.671   2.296 -0.2906 -0.2510  0.8830
 4355TIP3   OH234555   4.432   1.169   3.012  0.2894 -0.2177 -0.0439
 4355TIP3    H134556   4.478   1.127   3.085  0.0225 -0.6425 -0.1236
 4355TIP3    H234557   4.358   1.112   2.993 -0.1933  0.3862 -0.0181
 4356TIP3   OH234558   4.093   2.435   3.825 -0.2467 -0.0414  0.0650
 4356TIP3    H134559   4.136   2.455   3.908 -2.1565 -0.0580  1.1075
 4356TIP3    H234560   4.116   2.509   3.768 -0.5255  0.9948  1.2461
 4357TIP3   OH234561   1.037   2.485  14.393  0.3074  0.5198 -0.6557
 4357TIP3    H134562   1.100   2.460  14.461  1.5636 -0.2053 -2.0232
 4357TIP3    H234563   1.000   2.568  14.424 -0.7249 -0.7867  1.8945
 4358TIP3   OH234564   5.675   1.836  13.244  0.4330 -0.0853 -0.6101
 4358TIP3    H134565   5.728   1.792  13.177 -1.4512 -0.9615 -1.5840
 4358TIP3    H234566   5.692   1.785  13.323 -0.7325 -1.8852 -1.4402
 4359TIP3   OH234567   2.630   3.905   5.779  0.4110 -0.1191  0.4156
 4359TIP3    H134568   2.646   3.855   5.699 -1.8123 -0.4670  0.1356
 4359TIP3    H234569   2.653   3.846   5.850 -1.2793 -1.2594  0.0675
 4360TIP3   OH234570   5.490   2.857   3.973 -0.5931  0.0267 -0.0123
 4360TIP3    H134571   5.489   2.852   3.878  0.3937 -0.5551 -0.0087
 4360TIP3    H234572   5.573   2.900   3.994 -0.7885  0.1237  0.5893
 4361TIP3   OH234573   3.510   3.593   3.013  0.1890 -0.2462 -0.5523
 4361TIP3    H134574   3.442   3.528   3.030 -0.5631  0.6880  0.1177
 4361TIP3    H234575   3.581   3.544   2.972 -0.2000 -1.5536  0.3020
 4362TIP3   OH234576   5.724   4.418   0.990 -0.0288  0.5974 -0.2497
 4362TIP3    H134577   5.698   4.360   0.919  1.4673 -0.4432  0.0025
 4362TIP3    H234578   5.689   4.376   1.069  0.5305  0.3610 -0.1263
 4363TIP3   OH234579   4.849   2.051   5.999 -0.3364  0.3317  0.5769
 4363TIP3    H134580   4.920   2.113   5.983  0.5658 -0.9719 -0.6906
 4363TIP3    H234581   4.838   2.051   6.094  1.9078 -0.0169  0.8883
 4364TIP3   OH234582   6.127   2.581  12.882  0.4241 -0.0812 -0.4119
 4364TIP3    H134583   6.086   2.505  12.924 -0.2275  1.1202  1.2430
 4364TIP3    H234584   6.221   2.568  12.897  0.2338  0.0904  1.0909
 4365TIP3   OH234585   3.767   2.195  14.558  0.6523  0.3560 -0.0591
 4365TIP3    H134586   3.782   2.255  14.631  0.5323 -0.8055  0.9784
 4365TIP3    H234587   3.686   2.226  14.518  0.3207  0.6053  0.7707
 4366TIP3   OH234588   2.996   6.677  11.549 -0.0002 -0.3075  0.8542
 4366TIP3    H134589   2.976   6.765  11.520  0.3217  0.0885  1.7939
 4366TIP3    H234590   3.091   6.672  11.551  0.0742 -1.5073 -1.5703
 4367TIP3   OH234591   0.794   2.448  15.482 -0.4997  0.6692  0.6341
 4367TIP3    H134592   0.880   2.468  15.446  0.1596 -1.0216  1.1845
 4367TIP3    H234593   0.795   2.487  15.570 -0.5507  1.1891  0.4101
 4368TIP3   OH234594   1.612   0.963  15.098  0.6093  0.5177 -0.0560
 4368TIP3    H134595   1.694   0.975  15.145 -0.0305 -0.8720  1.5246
 4368TIP3    H234596   1.559   1.039  15.122  1.1698  1.0430 -0.4866
 4369TIP3   OH234597   6.105   5.417   3.784  0.1753  0.0895 -0.1376
 4369TIP3    H134598   6.092   5.505   3.749  0.0220  0.1680  0.1115
 4369TIP3    H234599   6.049   5.361   3.731 -0.4708  0.2867  0.3166
 4370TIP3   OH234600   6.147   2.672  16.784  0.1584 -0.5010 -0.3064
 4370TIP3    H134601   6.194   2.750  16.755 -2.0208  0.2814 -1.9913
 4370TIP3    H234602   6.167   2.605  16.719 -0.6097 -0.3076 -0.7585
 4371TIP3   OH234603   1.757   1.002   0.142  0.3247 -0.1542 -0.2663
 4371TIP3    H134604   1.667   0.999   0.176  0.5209  0.6949  0.3541
 4371TIP3    H234605   1.779   0.911   0.125 -1.0416 -0.3120 -1.4797
 4372TIP3   OH234606   2.809   2.375  10.861  0.7043 -0.6105  0.5642
 4372TIP3    H134607   2.841   2.452  10.909  0.9397 -0.6591  0.4857
 4372TIP3    H234608   2.870   2.365  10.788 -1.7053  1.7352 -2.0182
 4373TIP3   OH234609   1.332   2.972  11.084 -0.2574  0.3101  0.1461
 4373TIP3    H134610   1.426   2.959  11.082 -0.2244  0.6335 -0.5118
 4373TIP3    H234611   1.320   3.067  11.084 -0.5630  0.3147  1.8542
 4374TIP3   OH234612   1.275   3.434   0.641  0.1639 -0.5076 -0.2582
 4374TIP3    H134613   1.313   3.384   0.569 -0.4350 -2.2127  0.5445
 4374TIP3    H234614   1.349   3.453   0.699  0.2963 -1.0285 -0.2539
 4375TIP3   OH234615   5.746   2.370   1.174  0.0925 -0.0418 -0.3052
 4375TIP3    H134616   5.807   2.347   1.103  1.0366 -1.0386  0.7887
 4375TIP3    H234617   5.753   2.466   1.180  0.7553 -0.0407 -0.8987
 4376TIP3   OH234618   3.723   1.359  16.926 -0.4463 -0.7440  0.4323
 4376TIP3    H134619   3.707   1.445  16.887 -2.2488 -1.2850 -0.1371
 4376TIP3    H234620   3.802   1.370  16.978 -0.4340  1.1521  0.0753
 4377TIP3   OH234621   4.508   5.787   1.201  0.1538 -0.2374 -0.0035
 4377TIP3    H134622   4.431   5.753   1.156 -0.0925  0.9257 -0.4854
 4377TIP3    H234623   4.538   5.859   1.146  1.1621 -0.2110  0.5586
 4378TIP3   OH234624   6.575   3.080  17.103  0.5581 -0.0390  0.5137
 4378TIP3    H134625   6.563   2.985  17.094 -0.0576  0.1019 -0.2378
 4378TIP3    H234626   6.635   3.103  17.031  0.8714  0.1147  0.8207
 4379TIP3   OH234627   4.121   6.392  12.290 -0.4105 -0.0227 -0.0518
 4379TIP3    H134628   4.090   6.342  12.366  3.5056  0.3368  2.0741
 4379TIP3    H234629   4.122   6.483  12.320  1.1852  0.1227 -0.4398
 4380TIP3   OH234630   1.853   2.090   0.600  0.1811 -0.3538  0.1151
 4380TIP3    H134631   1.819   2.061   0.515  0.9544 -0.7377 -0.0815
 4380TIP3    H234632   1.776   2.100   0.655 -0.2139 -1.9638 -0.0779
 4381TIP3   OH234633   6.715   2.072  11.806 -0.4095 -0.3835 -0.2394
 4381TIP3    H134634   6.658   2.033  11.872 -0.8850 -0.8970 -0.9377
 4381TIP3    H234635   6.800   2.030  11.819 -0.7790 -1.2792 -0.6379
 4382TIP3   OH234636   5.345   1.826   1.999  0.4871 -0.6889 -0.0676
 4382TIP3    H134637   5.257   1.789   1.993  0.8264 -1.4700 -0.3236
 4382TIP3    H234638   5.332   1.911   2.041 -0.6256  0.0300 -1.7335
 4383TIP3   OH234639   0.971   6.287   4.060 -0.5453 -0.2771 -0.0039
 4383TIP3    H134640   1.047   6.340   4.086 -1.0767  0.2770  0.4579
 4383TIP3    H234641   0.996   6.248   3.976  0.2484 -0.1046  0.1443
 4384TIP3   OH234642   5.217   4.444   5.238  0.4329  0.3742 -0.1874
 4384TIP3    H134643   5.269   4.365   5.247  0.3784  0.3455 -0.1193
 4384TIP3    H234644   5.152   4.437   5.308 -1.5800 -1.0480 -2.0531
 4385TIP3   OH234645   3.051   1.658   0.727 -0.1034  0.2844  0.3723
 4385TIP3    H134646   2.985   1.718   0.760 -0.3448 -0.2682  0.9324
 4385TIP3    H234647   3.094   1.624   0.806  0.6545  0.4158  0.0294
 4386TIP3   OH234648   5.792   2.423   1.740  0.3174 -0.0970 -0.3977
 4386TIP3    H134649   5.816   2.472   1.661  0.0643 -0.0142 -0.4265
 4386TIP3    H234650   5.828   2.474   1.812  0.3067 -0.0235 -0.4441
 4387TIP3   OH234651   4.170   2.115  10.521  0.4473 -0.1806  0.0892
 4387TIP3    H134652   4.132   2.191  10.478 -0.7734 -1.0261 -0.3852
 4387TIP3    H234653   4.206   2.062  10.450 -0.5935 -1.0513  0.1936
 4388TIP3   OH234654   1.407   2.482  11.604 -0.2289 -0.0121 -0.0825
 4388TIP3    H134655   1.478   2.455  11.662 -2.7038 -1.6110  2.5080
 4388TIP3    H234656   1.372   2.562  11.645 -0.6394  0.0822 -0.6059
 4389TIP3   OH234657   1.969   6.594   2.504  0.2001 -0.0558 -0.1068
 4389TIP3    H134658   2.025   6.658   2.549 -0.3151  0.9605 -0.8788
 4389TIP3    H234659   1.925   6.547   2.575  0.3170  0.6931  0.4752
 4390TIP3   OH234660   1.391   6.210  14.766  0.5978 -0.2472 -0.1714
 4390TIP3    H134661   1.353   6.135  14.811 -0.5066 -0.2627 -1.0951
 4390TIP3    H234662   1.452   6.248  14.830 -1.4794  0.1965  1.6593
 4391TIP3   OH234663   1.547   4.536   1.474  0.5868 -0.1719  0.2267
 4391TIP3    H134664   1.503   4.619   1.454 -0.4015 -0.7703 -0.1760
 4391TIP3    H234665   1.515   4.476   1.406  2.3161 -0.5540 -0.3010
 4392TIP3   OH234666   4.044   4.666   4.567 -0.1024 -0.3269  0.5836
 4392TIP3    H134667   4.025   4.642   4.658  0.7657  0.0585  0.8809
 4392TIP3    H234668   4.106   4.738   4.575 -0.8291  0.4181 -0.3127
 4393TIP3   OH234669   4.421   2.578  15.218 -0.2556 -0.3685  0.4259
 4393TIP3    H134670   4.461   2.586  15.304  1.1640  0.0755 -0.2517
 4393TIP3    H234671   4.425   2.484  15.199 -1.2028 -0.5606  1.1159
 4394TIP3   OH234672   3.220   0.904  14.985  0.1794 -0.2805 -0.3660
 4394TIP3    H134673   3.218   0.899  14.889  0.8989 -1.2135 -0.3406
 4394TIP3    H234674   3.245   0.995  15.004  1.6972 -0.5201 -1.0860
 4395TIP3   OH234675   3.882   6.684  10.438  0.3702  0.1954  0.7503
 4395TIP3    H134676   3.933   6.759  10.408  0.5770 -0.1423  0.2613
 4395TIP3    H234677   3.812   6.674  10.373 -0.2799  0.5974  1.3624
 4396TIP3   OH234678   2.072   1.403  16.966 -0.1464 -0.0564  0.9879
 4396TIP3    H134679   2.038   1.450  17.042  1.1115  0.9401  0.9772
 4396TIP3    H234680   2.035   1.448  16.890 -2.6066 -1.9682  0.9401
 4397TIP3   OH234681   5.020   5.747   3.570 -0.3325 -0.0434 -0.1076
 4397TIP3    H134682   5.012   5.655   3.594  2.4841 -0.2407  0.5112
 4397TIP3    H234683   4.995   5.795   3.649 -3.0571 -0.1529 -0.8282
 4398TIP3   OH234684   3.488   3.617   1.458 -0.0873 -0.0458  0.0951
 4398TIP3    H134685   3.563   3.637   1.514 -1.5810  2.6280  1.3302
 4398TIP3    H234686   3.507   3.662   1.375 -0.3616  0.7713  0.4654
 4399TIP3   OH234687   3.663   1.040   1.493 -0.0058 -0.5556  0.1371
 4399TIP3    H134688   3.595   1.028   1.427 -1.6785 -1.0556  1.8636
 4399TIP3    H234689   3.663   1.134   1.511  0.7946 -0.3493 -0.8936
 4400TIP3   OH234690   4.617   6.645  15.491 -0.6313 -0.1370  0.7784
 4400TIP3    H134691   4.712   6.650  15.505 -0.4955  0.7259 -0.3058
 4400TIP3    H234692   4.603   6.559  15.453  0.0788  0.6180 -1.3491
 4401TIP3   OH234693   4.565   5.567  10.754  0.3449 -0.3371  0.0595
 4401TIP3    H134694   4.532   5.623  10.823  1.9329 -0.6845  1.1597
 4401TIP3    H234695   4.627   5.622  10.706 -0.4735 -0.2080 -0.8858
 4402TIP3   OH234696   0.606   0.150   4.751 -0.1407  0.2702  0.0437
 4402TIP3    H134697   0.688   0.179   4.711 -0.2265  0.1813 -0.1984
 4402TIP3    H234698   0.547   0.224   4.742  0.3099  0.8144  1.3950
 4403TIP3   OH234699   1.797   5.557  11.669 -0.3673  0.9253  0.0586
 4403TIP3    H134700   1.861   5.572  11.599 -1.0159  0.7765 -0.5758
 4403TIP3    H234701   1.844   5.503  11.733  0.0313  0.5001 -0.5758
 4404TIP3   OH234702   5.509   1.054  14.589  0.1169 -0.3152 -0.0453
 4404TIP3    H134703   5.468   1.125  14.539  1.9222  0.0330 -1.1436
 4404TIP3    H234704   5.526   1.093  14.675 -1.0584 -0.2050  0.1473
 4405TIP3   OH234705   5.038   2.372  13.749  0.3729 -0.3497 -0.1180
 4405TIP3    H134706   5.023   2.465  13.768  1.5043  0.1570 -1.4935
 4405TIP3    H234707   5.075   2.337  13.830  1.7094  0.8662 -0.1534
 4406TIP3   OH234708   0.320   1.253  16.468  0.2440  0.3999 -0.2027
 4406TIP3    H134709   0.414   1.263  16.452  0.6345 -0.8140  1.1238
 4406TIP3    H234710   0.278   1.309  16.402  1.8413 -0.3882 -1.9771
 4407TIP3   OH234711   3.503   6.026   5.057  0.5902 -1.0411 -0.2106
 4407TIP3    H134712   3.517   6.107   5.107 -2.3876 -0.4423 -0.1743
 4407TIP3    H234713   3.476   5.962   5.123 -0.7363 -0.9928 -0.6885
 4408TIP3   OH234714   2.838   3.047   4.039  0.5904 -0.1800 -0.2537
 4408TIP3    H134715   2.800   3.135   4.040 -0.1974 -0.5143  0.4511
 4408TIP3    H234716   2.862   3.032   3.947  2.5497  1.5120 -0.0788
 4409TIP3   OH234717   2.799   1.449  11.648  0.1799 -0.5040 -0.0323
 4409TIP3    H134718   2.747   1.369  11.660 -2.2841  1.0438  0.3516
 4409TIP3    H234719   2.742   1.506  11.597  1.8210  1.0784 -0.1500
 4410TIP3   OH234720   0.178   5.349  12.194 -0.5985 -0.7733 -0.7454
 4410TIP3    H134721   0.241   5.320  12.261 -0.8444 -0.8355 -0.5398
 4410TIP3    H234722   0.192   5.443  12.187 -1.1141 -0.6433 -0.0409
 4411TIP3   OH234723   0.322   0.126  13.433 -0.2947  0.1950  0.3066
 4411TIP3    H134724   0.319   0.122  13.337 -2.4533  1.4202  0.2554
 4411TIP3    H234725   0.413   0.108  13.455  0.2114 -0.3645 -1.9502
 4412TIP3   OH234726   0.446   2.794  15.004 -0.0218  0.0311  0.0609
 4412TIP3    H134727   0.429   2.729  14.936 -1.4047 -0.9812  1.3214
 4412TIP3    H234728   0.362   2.839  15.016  0.0516 -0.1665  1.4611
 4413TIP3   OH234729   3.095   4.149   2.423 -0.2299 -0.5414 -0.0010
 4413TIP3    H134730   3.007   4.146   2.384 -0.6365  0.4161  0.7926
 4413TIP3    H234731   3.152   4.110   2.358 -1.3967 -2.1456 -0.1289
 4414TIP3   OH234732   0.946   1.758   5.802  1.0663  0.3850 -0.2209
 4414TIP3    H134733   0.976   1.846   5.822 -0.9677  0.7476  1.6422
 4414TIP3    H234734   1.017   1.719   5.751  2.4457  2.7358 -0.2235
 4415TIP3   OH234735   4.049   5.986   5.460 -0.2679  0.2566  0.0973
 4415TIP3    H134736   3.968   5.938   5.443  0.4467 -1.2166  0.6810
 4415TIP3    H234737   4.098   5.983   5.378  1.7232 -3.9800  1.1833
 4416TIP3   OH234738   6.092   3.033   5.920  0.0035 -0.5066  0.2690
 4416TIP3    H134739   6.081   3.103   5.984  0.9468  0.3228 -0.4414
 4416TIP3    H234740   6.157   3.067   5.859  1.0587 -2.2939  0.3210
 4417TIP3   OH234741   2.278   1.391   5.780 -0.3462 -0.0569  0.4352
 4417TIP3    H134742   2.220   1.433   5.844  1.0943 -0.0992  1.8187
 4417TIP3    H234743   2.333   1.333   5.832  0.3645 -0.6771 -0.9645
 4418TIP3   OH234744   4.866   3.063  12.123 -0.6461 -0.4618 -0.6291
 4418TIP3    H134745   4.829   3.104  12.045 -1.1050 -0.2300 -0.2961
 4418TIP3    H234746   4.884   3.137  12.182 -5.2283 -0.8016  1.6609
 4419TIP3   OH234747   4.417   1.130   4.348 -0.3808 -0.0144  0.4958
 4419TIP3    H134748   4.338   1.184   4.349  0.1288  0.7595 -0.0307
 4419TIP3    H234749   4.391   1.051   4.301 -0.9784  0.0155  0.7591
 4420TIP3   OH234750   6.411   1.876   4.998  0.1780  0.1678  0.3045
 4420TIP3    H134751   6.348   1.947   5.006  0.9750  0.9764 -0.3593
 4420TIP3    H234752   6.496   1.917   5.017  0.4794 -0.9944  1.6565
 4421TIP3   OH234753   1.962   4.158   1.984  0.0684  0.1089  0.4272
 4421TIP3    H134754   2.033   4.203   2.030 -0.8309  1.3882  0.6467
 4421TIP3    H234755   1.995   4.144   1.896  0.4433  1.1384  0.3838
 4422TIP3   OH234756   1.470   4.555  15.006 -0.3053  0.0828  0.1151
 4422TIP3    H134757   1.487   4.616  15.077 -0.5501  0.1681  0.1044
 4422TIP3    H234758   1.391   4.589  14.963  0.7794  0.9585 -1.2427
 4423TIP3   OH234759   5.819   0.365  12.668 -0.0776 -0.2762 -0.4547
 4423TIP3    H134760   5.808   0.272  12.687  0.5571 -0.1060  0.8302
 4423TIP3    H234761   5.807   0.372  12.573 -1.1405 -1.5042 -0.4228
 4424TIP3   OH234762   2.557   6.119  14.677 -0.0361  0.1218 -0.2027
 4424TIP3    H134763   2.536   6.181  14.607 -1.4377  0.7828  0.7683
 4424TIP3    H234764   2.561   6.172  14.756 -0.5862 -0.9100  0.5467
 4425TIP3   OH234765   1.744   4.217  14.399  0.2582  0.5503 -0.3707
 4425TIP3    H134766   1.801   4.183  14.469  0.2303  2.2852  0.5583
 4425TIP3    H234767   1.780   4.180  14.319  0.9707 -0.6258  0.4655
 4426TIP3   OH234768   2.208   3.773  12.626 -0.0236  0.6636  0.9426
 4426TIP3    H134769   2.259   3.777  12.545  0.7303  1.8029  1.4492
 4426TIP3    H234770   2.247   3.841  12.682 -1.2663  0.6718  1.8291
 4427TIP3   OH234771   0.027   6.152  15.261 -0.2389  0.3481  0.2015
 4427TIP3    H134772   0.040   6.106  15.178  0.5762  0.8974  0.0135
 4427TIP3    H234773   0.086   6.107  15.322 -0.6263  0.1280  0.4184
 4428TIP3   OH234774   6.604   0.606  12.446  0.5124  0.0166  0.3137
 4428TIP3    H134775   6.649   0.578  12.525 -0.4349 -0.9609  0.5379
 4428TIP3    H234776   6.579   0.525  12.402  1.6583  0.5326 -1.3836
 4429TIP3   OH234777   5.856   6.543   0.966 -0.1952 -0.4058  0.4882
 4429TIP3    H134778   5.937   6.593   0.965 -0.6011  0.2739 -0.3176
 4429TIP3    H234779   5.787   6.609   0.955 -0.7718 -1.0983 -0.1780
 4430TIP3   OH234780   5.717   4.578  16.798 -0.1379  0.5904  0.1653
 4430TIP3    H134781   5.624   4.568  16.818 -0.3558  1.2333 -0.4774
 4430TIP3    H234782   5.727   4.670  16.775  1.0128  0.9715  1.9698
 4431TIP3   OH234783   1.367   1.695   5.762 -0.0807  0.0577  0.2260
 4431TIP3    H134784   1.345   1.781   5.725  1.7418  0.8367  0.8474
 4431TIP3    H234785   1.373   1.710   5.856 -0.7549 -1.0077  0.4544
 4432TIP3   OH234786   1.644   4.388  16.292 -0.6220  0.2533 -0.2962
 4432TIP3    H134787   1.620   4.386  16.199 -1.4136  0.2788 -0.0987
 4432TIP3    H234788   1.730   4.429  16.293 -0.1043 -0.7501 -1.1242
 4433TIP3   OH234789   3.904   1.358   4.732  0.7227  0.1058 -0.3560
 4433TIP3    H134790   3.969   1.300   4.772 -0.5681  0.4036  2.4188
 4433TIP3    H234791   3.823   1.307   4.731  0.1704  0.9553 -0.3630
 4434TIP3   OH234792   2.042   2.387   3.977 -0.2046  0.0625 -0.2830
 4434TIP3    H134793   2.040   2.318   3.910 -0.5286 -0.1456 -0.0670
 4434TIP3    H234794   1.996   2.460   3.937  0.8019  0.4281 -0.7976
 4435TIP3   OH234795   0.994   1.159   2.473 -0.0773  0.1008  0.4686
 4435TIP3    H134796   0.924   1.099   2.498 -0.6906  1.1087  1.2754
 4435TIP3    H234797   1.062   1.103   2.435 -1.2097 -0.9232 -0.0952
 4436TIP3   OH234798   6.170   2.170   3.442  0.3954  0.0779  0.1142
 4436TIP3    H134799   6.261   2.143   3.436  0.5478  0.6889 -0.4410
 4436TIP3    H234800   6.173   2.257   3.482  0.0794  0.2281 -0.1791
 4437TIP3   OH234801   5.874   3.909   2.312  0.7290 -0.8932 -0.3785
 4437TIP3    H134802   5.833   3.954   2.385  2.0701 -0.4640  0.1260
 4437TIP3    H234803   5.823   3.828   2.302 -1.2438  0.3406 -0.8274
 4438TIP3   OH234804   4.858   2.688  12.072  0.4100  0.5270 -0.3361
 4438TIP3    H134805   4.903   2.675  12.155  3.3915  0.6836 -1.7860
 4438TIP3    H234806   4.811   2.606  12.057  1.5445 -0.3138  0.5479
 4439TIP3   OH234807   5.944   4.286  15.469  0.4215 -0.0874  0.2639
 4439TIP3    H134808   5.970   4.245  15.387  1.2430  0.7651  0.0814
 4439TIP3    H234809   6.027   4.305  15.513  0.1346  2.2560 -0.1043
 4440TIP3   OH234810   6.030   3.073   5.051  0.0611  0.1908  0.2080
 4440TIP3    H134811   6.066   3.154   5.089 -1.0883  0.5162  0.6382
 4440TIP3    H234812   6.087   3.055   4.976  1.0478  0.7454  0.8046
 4441TIP3   OH234813   0.591   3.561  14.494  0.6855 -0.0469  0.0799
 4441TIP3    H134814   0.662   3.585  14.434  1.1138 -1.5706 -0.0522
 4441TIP3    H234815   0.629   3.495  14.552 -1.0122 -2.0130 -0.9434
 4442TIP3   OH234816   2.294   2.461   5.574 -0.5966  0.1886 -0.2571
 4442TIP3    H134817   2.329   2.503   5.652 -2.6395 -1.1762  1.4830
 4442TIP3    H234818   2.320   2.370   5.582 -0.5610  0.0823 -1.3750
 4443TIP3   OH234819   1.273   5.235  11.943  0.4199 -0.4857  0.7406
 4443TIP3    H134820   1.273   5.143  11.917  0.2808 -0.4802  0.7198
 4443TIP3    H234821   1.357   5.269  11.910 -0.3796 -0.1192 -1.0286
 4444TIP3   OH234822   2.194   5.635  15.246  0.1047  0.2155 -0.5162
 4444TIP3    H134823   2.164   5.614  15.157  0.2698 -0.3629 -0.4389
 4444TIP3    H234824   2.146   5.575  15.303 -0.4671  1.0136 -0.1482
 4445TIP3   OH234825   3.489   3.562   4.726  0.1127  0.1612  0.2844
 4445TIP3    H134826   3.574   3.573   4.768 -0.1739 -0.7825  1.1563
 4445TIP3    H234827   3.502   3.595   4.637  1.9953 -1.9024 -0.2918
 4446TIP3   OH234828   3.221   2.677   5.014 -0.3281  0.1274 -0.0566
 4446TIP3    H134829   3.197   2.691   4.922 -0.5954  2.1362  0.2758
 4446TIP3    H234830   3.297   2.733   5.028  1.1840 -1.9154  0.3932
 4447TIP3   OH234831   0.716   4.445  11.383 -0.9917 -0.2918 -0.0863
 4447TIP3    H134832   0.717   4.534  11.346  0.2199 -0.1783  0.1695
 4447TIP3    H234833   0.749   4.390  11.313  0.3841 -0.2108  0.4637
 4448TIP3   OH234834   2.262   2.653  12.863 -0.5781 -0.1047 -0.1903
 4448TIP3    H134835   2.196   2.607  12.916 -1.2437  0.3990 -0.5620
 4448TIP3    H234836   2.309   2.583  12.818 -0.9236 -0.4687  0.0071
 4449TIP3   OH234837   5.293   5.009  14.627  0.2855 -0.0814 -0.1048
 4449TIP3    H134838   5.352   4.942  14.592  1.2074  0.8510 -0.3694
 4449TIP3    H234839   5.224   4.959  14.670  0.9677 -1.2092 -0.2751
 4450TIP3   OH234840   6.057   6.747  16.820  0.2407 -0.2488  0.2171
 4450TIP3    H134841   6.039   6.694  16.898  2.7696 -1.0515  0.3704
 4450TIP3    H234842   5.971   6.775  16.789 -0.9078 -0.7140  2.7263
 4451TIP3   OH234843   1.602   3.209  13.000  0.5951  0.4002 -0.0113
 4451TIP3    H134844   1.613   3.303  13.012  0.1280  0.4867 -0.2436
 4451TIP3    H234845   1.621   3.171  13.086 -0.0936  0.7820  0.3142
 4452TIP3   OH234846   4.481   0.077   6.005 -0.3694 -0.0318 -0.1852
 4452TIP3    H134847   4.549   0.059   5.940  0.2420  0.6251  0.2471
 4452TIP3    H234848   4.483   0.173   6.015 -0.9355 -0.0635  0.2803
 4453TIP3   OH234849   1.969   3.040  14.437 -1.0002 -0.2450 -0.5529
 4453TIP3    H134850   1.930   2.970  14.489 -1.1467  0.4135  0.2570
 4453TIP3    H234851   1.950   3.120  14.487 -2.1269  0.5576 -2.1689
 4454TIP3   OH234852   0.942   4.978   4.248 -0.2297 -0.2757 -0.3748
 4454TIP3    H134853   0.880   4.916   4.209 -1.4730  0.4694  0.3564
 4454TIP3    H234854   0.928   4.970   4.343 -1.2139  1.8540 -0.2739
 4455TIP3   OH234855   3.711   3.457   4.138 -0.2317 -0.0204 -0.2740
 4455TIP3    H134856   3.767   3.380   4.137  0.1522  0.1870  1.5857
 4455TIP3    H234857   3.622   3.422   4.146 -0.0939 -0.2764  0.1219
 4456TIP3   OH234858   3.979   2.917  11.013  0.2926 -0.2819  0.1453
 4456TIP3    H134859   4.010   2.856  10.946  0.5209  1.0428 -1.0022
 4456TIP3    H234860   3.940   2.989  10.964 -2.3148 -0.6645  1.4975
 4457TIP3   OH234861   0.675   3.712   2.078 -0.2027  0.2169 -0.6954
 4457TIP3    H134862   0.618   3.694   2.153  1.3445 -0.4404  0.3833
 4457TIP3    H234863   0.657   3.641   2.017 -0.5456  0.0110 -0.3616
 4458TIP3   OH234864   6.415   6.290  11.858  0.7157  0.4235  0.8574
 4458TIP3    H134865   6.326   6.268  11.883 -0.7203  3.5136 -1.0004
 4458TIP3    H234866   6.452   6.208  11.825 -1.1652 -1.0772  2.2541
 4459TIP3   OH234867   5.933   4.734   2.919 -0.2672 -0.1130  0.3608
 4459TIP3    H134868   6.013   4.783   2.937  0.1146 -1.0360  1.2802
 4459TIP3    H234869   5.900   4.708   3.005 -1.7090  0.4470  0.0186
 4460TIP3   OH234870   0.881   2.876  16.215 -0.2612 -0.7370  0.2186
 4460TIP3    H134871   0.844   2.901  16.300 -0.0661 -0.3073  0.1759
 4460TIP3    H234872   0.863   2.782  16.208  0.5195 -0.9701  1.1461
 4461TIP3   OH234873   4.112   1.523   4.950 -0.7217 -0.3639 -0.4880
 4461TIP3    H134874   4.070   1.441   4.976  2.9683 -2.1675  0.4630
 4461TIP3    H234875   4.157   1.553   5.028  0.7286  0.7413 -1.6787
 4462TIP3   OH234876   2.429   6.379   4.631  0.6246 -0.4356 -0.1594
 4462TIP3    H134877   2.441   6.326   4.553 -0.0328 -1.2588  0.2741
 4462TIP3    H234878   2.471   6.463   4.611  0.7286 -0.7424 -1.2655
 4463TIP3   OH234879   1.164   2.621  11.458 -0.1538  0.0777  0.4434
 4463TIP3    H134880   1.213   2.638  11.538  0.3696  0.0143  0.1368
 4463TIP3    H234881   1.215   2.663  11.388 -1.7657  2.1597  0.4067
 4464TIP3   OH234882   0.807   3.035  14.823  0.0991  0.1482  0.6437
 4464TIP3    H134883   0.805   3.129  14.843 -2.2586  0.0421  1.2227
 4464TIP3    H234884   0.765   2.994  14.899  1.8121 -1.4868  0.7762
 4465TIP3   OH234885   4.304   2.088   3.828 -0.2895  0.6909  0.0736
 4465TIP3    H134886   4.353   2.163   3.861  0.9802  0.0170 -0.2266
 4465TIP3    H234887   4.255   2.122   3.753  2.2419  0.7196 -1.6791
 4466TIP3   OH234888   0.845   4.919  12.817  0.3325  0.7429  0.4304
 4466TIP3    H134889   0.897   4.848  12.854  0.1498  0.7758  0.7538
 4466TIP3    H234890   0.866   4.917  12.723 -0.7185 -0.6601  0.1804
 4467TIP3   OH234891   0.505   4.175  11.669  0.1679 -0.0422  0.3041
 4467TIP3    H134892   0.436   4.109  11.663 -0.2561  0.4781 -0.5915
 4467TIP3    H234893   0.498   4.225  11.588  0.6870  0.9119  0.8358
 4468TIP3   OH234894   6.442   3.872  12.677 -0.2651 -0.1455  0.6996
 4468TIP3    H134895   6.446   3.813  12.602 -2.6028  0.0078  0.3720
 4468TIP3    H234896   6.444   3.960  12.639  0.6277 -0.0276  0.9962
 4469TIP3   OH234897   0.717   2.019   1.931  0.4431  0.2256  0.1085
 4469TIP3    H134898   0.717   2.049   1.840 -0.3306  0.7316  0.2674
 4469TIP3    H234899   0.810   2.013   1.955  0.7044 -0.9582 -1.0457
 4470TIP3   OH234900   5.669   2.106   3.875 -0.4163  0.5679 -0.3076
 4470TIP3    H134901   5.651   2.073   3.963  0.2439  0.5501 -0.1720
 4470TIP3    H234902   5.606   2.061   3.819 -1.0123  0.7780  0.1899
 4471TIP3   OH234903   5.206   4.070  13.271  1.0053 -0.0832  0.0525
 4471TIP3    H134904   5.277   4.014  13.239 -0.0050 -1.0475 -0.5543
 4471TIP3    H234905   5.133   4.011  13.285  0.0215  1.0257 -0.2106
 4472TIP3   OH234906   6.316   0.619   2.615  0.1567  0.3512 -0.2258
 4472TIP3    H134907   6.234   0.571   2.610  0.4697 -0.2859  0.4555
 4472TIP3    H234908   6.292   0.704   2.652  0.0074 -0.4524  1.6553
 4473TIP3   OH234909   4.649   6.546  15.770 -0.0174 -0.5390 -0.3955
 4473TIP3    H134910   4.705   6.571  15.697 -0.8769 -1.4062 -1.3800
 4473TIP3    H234911   4.668   6.611  15.838  0.5898  0.4538 -1.4769
 4474TIP3   OH234912   2.938   4.549  15.469  0.5994  0.2070 -0.1091
 4474TIP3    H134913   2.937   4.628  15.415 -0.1994  0.1431 -0.2108
 4474TIP3    H234914   2.911   4.479  15.409  1.1410 -0.1139  0.0173
 4475TIP3   OH234915   5.975   2.874  14.229  0.2008  0.6846  0.4338
 4475TIP3    H134916   5.886   2.888  14.196  0.2017 -0.2980 -0.0050
 4475TIP3    H234917   6.031   2.924  14.169  0.1014 -0.1868 -0.4056
 4476TIP3   OH234918   4.689   3.892  15.214  0.2861 -0.1884 -0.3470
 4476TIP3    H134919   4.652   3.954  15.151  1.6870  0.1498 -0.8710
 4476TIP3    H234920   4.748   3.946  15.268 -2.6067  0.0884  2.9305
 4477TIP3   OH234921   4.598   6.546   2.690 -0.1013  0.2905 -0.2432
 4477TIP3    H134922   4.512   6.572   2.723 -0.2664 -1.5005  0.8770
 4477TIP3    H234923   4.647   6.520   2.769  0.7669 -0.5968 -1.0437
 4478TIP3   OH234924   5.029   5.472   3.707 -0.1332  0.7850 -0.3968
 4478TIP3    H134925   5.076   5.396   3.673 -0.5759 -0.3987  1.4612
 4478TIP3    H234926   4.937   5.445   3.706 -0.0633 -0.2243  3.5147
 4479TIP3   OH234927   1.056   4.194   5.430  0.2200 -0.2547 -0.2245
 4479TIP3    H134928   1.029   4.280   5.397 -0.8727 -0.8730 -1.0310
 4479TIP3    H234929   1.111   4.157   5.360  1.4991  0.1673  0.5379
 4480TIP3   OH234930   5.028   2.066  14.793  0.0904 -1.1114  0.8007
 4480TIP3    H134931   5.104   2.079  14.849  0.6271 -2.9721  0.5710
 4480TIP3    H234932   5.039   2.129  14.722  0.4473 -0.1102  1.7179
 4481TIP3   OH234933   2.946   2.517  14.263  0.1988 -0.0544 -0.5066
 4481TIP3    H134934   2.990   2.489  14.343 -0.1431  0.9403  0.0461
 4481TIP3    H234935   2.976   2.607  14.249 -1.3383  0.5144 -0.3282
 4482TIP3   OH234936   2.052   3.129  13.599  0.3288  0.3193 -0.2987
 4482TIP3    H134937   2.121   3.133  13.532 -1.5265 -1.4969 -2.4711
 4482TIP3    H234938   2.074   3.051  13.651  0.4907  0.3586 -0.3070
 4483TIP3   OH234939   1.651   4.992   1.347 -0.1643 -0.1860  0.1587
 4483TIP3    H134940   1.721   4.962   1.405 -0.9934 -2.1345  0.2192
 4483TIP3    H234941   1.694   5.056   1.289  2.1402 -2.4776 -0.8963
 4484TIP3   OH234942   2.645   3.149  11.635  0.3934  0.3609 -0.2907
 4484TIP3    H134943   2.717   3.127  11.694 -1.3675  0.4992  2.0776
 4484TIP3    H234944   2.658   3.241  11.613  1.3665  0.1600 -0.5754
 4485TIP3   OH234945   4.054   4.469  15.229 -0.2935  0.2303  0.6744
 4485TIP3    H134946   4.119   4.469  15.159  0.1806  0.0432  1.1113
 4485TIP3    H234947   4.060   4.557  15.266 -0.9617  0.5281  0.1090
 4486TIP3   OH234948   1.989   1.865  11.101  0.5736  0.2618 -0.3161
 4486TIP3    H134949   1.954   1.888  11.015 -2.4855  1.7478  1.1893
 4486TIP3    H234950   1.924   1.807  11.140  1.9043 -0.4255  1.0304
 4487TIP3   OH234951   3.820   4.140  16.386 -0.5804  0.0468 -0.4421
 4487TIP3    H134952   3.868   4.190  16.320  0.7793  1.1364  1.2795
 4487TIP3    H234953   3.735   4.184  16.393 -0.2786  0.6745 -0.6226
 4488TIP3   OH234954   1.194   2.687  14.751  0.3809  0.0343 -0.1198
 4488TIP3    H134955   1.117   2.707  14.804 -1.6938  0.7131 -3.1129
 4488TIP3    H234956   1.236   2.772  14.737  0.0500  0.0990 -0.7551
 4489TIP3   OH234957   1.428   1.635  13.803 -0.0862  0.6179 -0.2627
 4489TIP3    H134958   1.403   1.567  13.865  0.3576  0.4909 -0.2212
 4489TIP3    H234959   1.502   1.679  13.843  1.3650 -0.6118 -1.4687
 4490TIP3   OH234960   0.695   2.077   5.569  0.8517 -0.2101 -0.1842
 4490TIP3    H134961   0.610   2.055   5.608  0.6183 -0.2351 -0.7071
 4490TIP3    H234962   0.718   2.161   5.608 -0.7501  1.2249 -2.1392
 4491TIP3   OH234963   0.159   3.460   4.002  0.7559 -0.0925  0.3746
 4491TIP3    H134964   0.192   3.402   4.070  1.5223 -0.6102 -0.4231
 4491TIP3    H234965   0.169   3.411   3.921 -0.8186  0.2335 -0.0508
 4492TIP3   OH234966   0.813   5.743   1.385  0.7498 -0.9245 -0.0973
 4492TIP3    H134967   0.794   5.653   1.360 -1.8637 -1.0167  1.8508
 4492TIP3    H234968   0.757   5.796   1.328  0.3380 -0.6983  0.5110
 4493TIP3   OH234969   1.927   2.058   2.752  0.1508 -0.3315 -0.0001
 4493TIP3    H134970   1.903   1.969   2.725  0.9896 -0.3312 -0.8053
 4493TIP3    H234971   1.877   2.115   2.693 -0.9473 -0.2323  0.9920
 4494TIP3   OH234972   0.949   5.767   0.149  0.5680  0.5490  0.5575
 4494TIP3    H134973   1.001   5.692   0.120 -0.1135 -0.3542  1.6020
 4494TIP3    H234974   0.899   5.734   0.224 -2.5317  0.9756 -1.1505
 4495TIP3   OH234975   1.004   2.376  10.731  0.3809 -0.4955 -0.3625
 4495TIP3    H134976   0.963   2.308  10.678  0.3396  0.5516 -1.7408
 4495TIP3    H234977   1.089   2.392  10.688  0.9751 -0.5981  0.7252
 4496TIP3   OH234978   4.145   4.547  12.629 -0.3560  0.3172 -0.1899
 4496TIP3    H134979   4.227   4.498  12.639  0.2855  1.2373 -0.8073
 4496TIP3    H234980   4.084   4.483  12.593 -0.4963 -0.9115  2.0263
 4497TIP3   OH234981   1.384   4.783   4.928  0.0259 -0.2898  0.0221
 4497TIP3    H134982   1.296   4.774   4.966  0.0147 -1.9764 -0.3231
 4497TIP3    H234983   1.441   4.735   4.988  1.1963  2.6786  1.5374
 4498TIP3   OH234984   0.460   3.186  12.605 -0.4748 -1.0262  0.5135
 4498TIP3    H134985   0.517   3.151  12.536 -0.3777  1.1314 -0.5898
 4498TIP3    H234986   0.373   3.154  12.582 -0.6408  0.5027 -1.3491
 4499TIP3   OH234987   1.403   5.362   6.056 -0.0949 -0.6801  0.3043
 4499TIP3    H134988   1.433   5.448   6.085  1.2777 -0.9848 -0.1143
 4499TIP3    H234989   1.315   5.353   6.092  0.2563  0.3421  1.4729
 4500TIP3   OH234990   4.465   2.299  15.223  0.0284  0.0181  0.6100
 4500TIP3    H134991   4.540   2.287  15.164 -1.7209  0.1671 -1.8256
 4500TIP3    H234992   4.444   2.210  15.253  0.5079 -0.1623  0.4254
 4501TIP3   OH234993   1.881   0.086   4.998  0.4425 -0.0750 -0.1828
 4501TIP3    H134994   1.935   0.165   5.002 -0.1066  0.3899 -1.4392
 4501TIP3    H234995   1.793   0.118   4.977  0.0722 -0.9761 -0.0390
 4502TIP3   OH234996   2.328   6.620  12.862  0.2089 -0.1050 -0.5959
 4502TIP3    H134997   2.387   6.566  12.810 -0.7168 -1.2170 -0.5174
 4502TIP3    H234998   2.337   6.587  12.952  0.3137  0.4763 -0.3889
 4503TIP3   OH234999   2.532   5.311   1.318  0.0932  0.1030 -0.6104
 4503TIP3    H135000   2.455   5.363   1.296 -0.8691 -1.2900 -0.7284
 4503TIP3    H235001   2.594   5.328   1.247 -1.0279 -0.5142 -1.7838
 4504TIP3   OH235002   6.593   2.753  14.462 -0.5316  0.0390 -0.2371
 4504TIP3    H135003   6.671   2.809  14.456 -0.7950  0.2696 -1.6786
 4504TIP3    H235004   6.607   2.703  14.543  0.6967  0.6833 -0.0125
 4505TIP3   OH235005   1.342   5.331  17.131 -0.0308 -0.0028  0.1070
 4505TIP3    H135006   1.398   5.273  17.079  0.3076 -1.9462  2.4566
 4505TIP3    H235007   1.259   5.282  17.139 -0.2724  0.5254  0.8745
 4506TIP3   OH235008   2.729   3.414  14.047  0.2481  0.4410 -0.3206
 4506TIP3    H135009   2.747   3.502  14.080 -0.1098  0.3386  0.1624
 4506TIP3    H235010   2.770   3.356  14.110  0.2604  0.2581 -0.4979
 4507TIP3   OH235011   1.393   2.246  14.277  0.0862  0.0717  0.2472
 4507TIP3    H135012   1.427   2.290  14.355 -1.3836  1.2160  0.2827
 4507TIP3    H235013   1.336   2.177  14.312  1.9034 -1.5344  0.1821
 4508TIP3   OH235014   0.583   5.749  10.356 -0.0505  0.3488 -0.7278
 4508TIP3    H135015   0.674   5.745  10.326  0.9694  1.3993  1.8818
 4508TIP3    H235016   0.581   5.825  10.415 -1.8438 -1.3590  1.6149
 4509TIP3   OH235017   0.342   5.363  12.407  0.7711  0.9445 -0.0087
 4509TIP3    H135018   0.332   5.336  12.498  1.4477  1.4480  0.2305
 4509TIP3    H235019   0.425   5.412  12.406  1.7342 -0.6372 -1.2705
 4510TIP3   OH235020   0.724   5.501  10.449  0.5082  0.1579  0.2290
 4510TIP3    H135021   0.693   5.415  10.422  2.1627  0.2531 -2.3228
 4510TIP3    H235022   0.663   5.563  10.408  0.0536  0.2400  1.0153
 4511TIP3   OH235023   4.032   5.493  12.739  0.2873 -0.5149 -0.4156
 4511TIP3    H135024   3.941   5.484  12.714  0.7357 -2.1880 -1.6475
 4511TIP3    H235025   4.041   5.584  12.768 -2.2656 -0.8896  1.9762
 4512TIP3   OH235026   1.176   3.640  12.106  0.3219 -0.3482  0.0598
 4512TIP3    H135027   1.220   3.566  12.064 -1.3013 -1.0315 -0.5264
 4512TIP3    H235028   1.090   3.644  12.064 -0.5414  0.3389  1.7761
 4513TIP3   OH235029   5.631   2.773  15.470 -0.4476  0.0878 -0.1866
 4513TIP3    H135030   5.724   2.754  15.483 -0.5580  0.5023  1.3924
 4513TIP3    H235031   5.594   2.692  15.435  0.7618  0.3885 -2.3484
 4514TIP3   OH235032   4.989   0.341  16.487  0.6678 -0.3326  0.4487
 4514TIP3    H135033   5.028   0.253  16.484  1.2372 -0.0754 -1.7339
 4514TIP3    H235034   4.895   0.325  16.483  0.7395 -0.9559 -3.8029
 4515TIP3   OH235035   0.784   2.143   0.136 -0.5283 -0.3021 -0.0636
 4515TIP3    H135036   0.689   2.129   0.134 -0.3423 -1.8298  0.3369
 4515TIP3    H235037   0.820   2.064   0.097  0.5837  0.4653 -0.6375
 4516TIP3   OH235038   3.471   6.475  10.751  0.1045  0.1531  0.8562
 4516TIP3    H135039   3.527   6.488  10.675 -0.8063  1.0587  0.3101
 4516TIP3    H235040   3.499   6.541  10.814 -2.3682  2.9107 -0.6602
 4517TIP3   OH235041   3.453   4.342   4.441 -0.5458 -0.2598 -0.7924
 4517TIP3    H135042   3.482   4.366   4.353 -1.1111  3.0292 -0.1892
 4517TIP3    H235043   3.520   4.378   4.499 -0.4852 -1.8742  0.2144
 4518TIP3   OH235044   0.295   0.762   2.195 -0.0811  0.5644  0.6872
 4518TIP3    H135045   0.289   0.731   2.285 -0.8530 -2.1231 -0.2088
 4518TIP3    H235046   0.212   0.807   2.179 -0.1004  0.7087  1.1803
 4519TIP3   OH235047   1.508   5.989  15.318  0.3643 -0.2425  0.1025
 4519TIP3    H135048   1.588   5.983  15.370  0.1914 -2.7415  0.2100
 4519TIP3    H235049   1.532   5.954  15.232 -0.1916  0.6319 -0.4207
 4520TIP3   OH235050   1.499   1.650  11.052  0.4128 -0.6177 -0.2297
 4520TIP3    H135051   1.516   1.701  10.973  1.1907  0.9464  0.8968
 4520TIP3    H235052   1.582   1.651  11.100 -0.4480 -0.1411  1.3527
 4521TIP3   OH235053   3.359   5.580  13.035 -0.2601  0.2024  0.1508
 4521TIP3    H135054   3.354   5.553  12.943 -0.4070  2.5320 -0.6011
 4521TIP3    H235055   3.272   5.565  13.069  0.1144 -1.8668  0.3279
 4522TIP3   OH235056   0.566   2.348   4.378 -0.2544  0.0527 -0.3088
 4522TIP3    H135057   0.596   2.435   4.352  1.1831 -0.5802 -0.8796
 4522TIP3    H235058   0.646   2.301   4.401 -1.1964 -0.3609  2.4602
 4523TIP3   OH235059   4.453   3.487   0.473 -0.4345 -0.6229  0.4138
 4523TIP3    H135060   4.392   3.557   0.495 -0.3787 -0.6764  0.7551
 4523TIP3    H235061   4.458   3.487   0.378  0.1425  0.3235  0.4392
 4524TIP3   OH235062   0.892   1.320  14.019 -0.4506 -0.2085  0.0521
 4524TIP3    H135063   0.822   1.350  14.076 -1.4446  0.0933 -1.2904
 4524TIP3    H235064   0.848   1.282  13.943  0.8207 -0.0461 -0.8164
 4525TIP3   OH235065   5.268   4.007  16.468 -0.4201  0.5048 -0.3157
 4525TIP3    H135066   5.267   4.037  16.377 -1.1508  0.7019 -0.2439
 4525TIP3    H235067   5.190   3.952  16.478  0.2984 -0.5109 -0.1287
 4526TIP3   OH235068   4.286   2.853  16.442 -0.3692 -0.2993  0.2254
 4526TIP3    H135069   4.352   2.853  16.373  0.0420 -0.5168  0.6084
 4526TIP3    H235070   4.321   2.911  16.510 -1.4755  1.1278 -0.3822
 4527TIP3   OH235071   4.678   6.550   5.933 -0.3444 -0.6485 -0.3274
 4527TIP3    H135072   4.745   6.562   6.000 -0.2551 -0.7921 -0.3895
 4527TIP3    H235073   4.665   6.455   5.929  2.2536 -1.0239 -3.0597
 4528TIP3   OH235074   2.872   2.395   4.519  0.1560  0.2324  0.2008
 4528TIP3    H135075   2.937   2.341   4.563  0.9132  0.1202 -0.9996
 4528TIP3    H235076   2.916   2.479   4.506 -0.6222  0.7897  1.0625
 4529TIP3   OH235077   1.433   3.739  15.758 -0.2537 -0.5003  0.1555
 4529TIP3    H135078   1.392   3.818  15.722  0.7456 -0.9054 -2.0922
 4529TIP3    H235079   1.359   3.685  15.787 -1.0112  0.7841  0.7007
 4530TIP3   OH235080   1.951   3.130   0.957  0.3516 -0.1006  0.5442
 4530TIP3    H135081   1.855   3.124   0.964  0.1535  1.1586 -0.6354
 4530TIP3    H235082   1.971   3.083   0.876  1.0313 -2.3940  1.9573
 4531TIP3   OH235083   3.333   1.214  11.967  0.0673  0.1994 -0.5705
 4531TIP3    H135084   3.258   1.193  11.911  1.4089 -0.9873 -1.9930
 4531TIP3    H235085   3.407   1.169  11.927  1.8884  2.5855 -0.1128
 4532TIP3   OH235086   6.732   6.727  16.485 -1.1280 -0.4972  0.1969
 4532TIP3    H135087   6.756   6.770  16.404 -2.1015 -0.9163 -0.3324
 4532TIP3    H235088   6.721   6.798  16.548 -1.9215 -0.0290 -0.4536
 4533TIP3   OH235089   0.920   3.203   6.604  0.1627 -0.1654 -0.0110
 4533TIP3    H135090   0.843   3.174   6.554 -0.8430 -1.6103  2.2070
 4533TIP3    H235091   0.884   3.249   6.680  1.2615 -2.8555  2.3126
 4534TIP3   OH235092   1.572   0.998   2.420 -0.4370  0.4046 -0.3191
 4534TIP3    H135093   1.647   0.963   2.468 -0.6574 -0.9729 -0.9243
 4534TIP3    H235094   1.507   1.019   2.488 -0.0075  0.3425  0.1133
 4535TIP3   OH235095   4.633   5.678   2.638 -0.3243 -0.5274 -0.0547
 4535TIP3    H135096   4.542   5.704   2.650 -0.8384 -1.0421 -2.3316
 4535TIP3    H235097   4.628   5.593   2.593  1.1473  1.0783 -3.6497
 4536TIP3   OH235098   6.274   3.301  11.744  0.0693  0.1389 -0.5543
 4536TIP3    H135099   6.314   3.235  11.689 -0.5660 -0.8389  0.1135
 4536TIP3    H235100   6.343   3.365  11.760  1.9094 -2.2271  1.7867
 4537TIP3   OH235101   5.378   5.064   2.017  0.2336  0.3689  0.0164
 4537TIP3    H135102   5.343   4.983   1.981  0.0113  0.2785  0.4239
 4537TIP3    H235103   5.392   5.120   1.941  0.8921 -0.2342 -0.3219
 4538TIP3   OH235104   4.576   5.169   0.998 -0.3188 -0.8442  0.1677
 4538TIP3    H135105   4.494   5.199   0.958  1.1747 -0.2257 -2.7113
 4538TIP3    H235106   4.633   5.245   0.997  0.1704 -1.0787  2.7793
 4539TIP3   OH235107   1.152   0.048  13.552 -0.2290  0.3151  0.3104
 4539TIP3    H135108   1.151   0.032  13.646  2.0346  0.8551  0.4931
 4539TIP3    H235109   1.201   0.130  13.542 -0.6363  0.4013 -1.3296
 4540TIP3   OH235110   4.222   2.939   0.714 -0.1674  0.1958 -0.2048
 4540TIP3    H135111   4.162   2.996   0.666 -1.1399  1.4545  2.3573
 4540TIP3    H235112   4.275   2.899   0.645 -1.1272  2.2329 -2.3035
 4541TIP3   OH235113   4.709   2.086   1.373  0.1439 -0.6843  0.0283
 4541TIP3    H135114   4.718   2.097   1.468  0.7546  0.4552 -0.1386
 4541TIP3    H235115   4.691   2.174   1.340 -0.3786 -1.1192 -0.8898
 4542TIP3   OH235116   4.052   0.130  11.680 -0.0007  0.4233 -0.3503
 4542TIP3    H135117   4.085   0.040  11.688  2.0139  1.1152 -0.1716
 4542TIP3    H235118   3.973   0.122  11.627  1.3649 -1.2375 -2.3275
 4543TIP3   OH235119   5.608   3.572  13.121  0.3232  0.2580  0.1928
 4543TIP3    H135120   5.541   3.595  13.186  1.9784  1.5964  1.5131
 4543TIP3    H235121   5.628   3.654  13.077  1.0444 -0.1374 -0.2344
 4544TIP3   OH235122   4.557   4.399   6.122  0.2032 -1.1612  0.1145
 4544TIP3    H135123   4.533   4.405   6.029  0.6587  0.4230  0.0680
 4544TIP3    H235124   4.610   4.478   6.138 -0.8384 -0.7912  2.0145
 4545TIP3   OH235125   4.106   5.559   3.086 -0.1902  0.1598  0.0545
 4545TIP3    H135126   4.139   5.597   3.005  2.3816 -2.1217 -0.1156
 4545TIP3    H235127   4.034   5.502   3.058  1.4250 -1.5237 -0.9037
 4546TIP3   OH235128   0.564   5.240  17.005 -0.2314 -0.0328  0.7184
 4546TIP3    H135129   0.488   5.271  16.958 -0.0372  0.4888  0.7447
 4546TIP3    H235130   0.529   5.185  17.076 -0.4750 -2.7643 -1.3465
 4547TIP3   OH235131   3.767   2.970  13.164  0.1356  0.0507 -0.0317
 4547TIP3    H135132   3.841   2.974  13.224 -1.0276  2.6678  1.4361
 4547TIP3    H235133   3.801   3.006  13.082  0.6319  0.7010  0.4495
 4548TIP3   OH235134   4.733   5.246  15.683  0.7052 -0.0835  0.2478
 4548TIP3    H135135   4.637   5.253  15.684  0.6468  0.1793 -2.1993
 4548TIP3    H235136   4.764   5.336  15.694  0.6067  0.1064 -0.9356
 4549TIP3   OH235137   2.620   0.479   1.465 -0.6289  0.5446 -0.2233
 4549TIP3    H135138   2.588   0.498   1.554 -1.3425  1.1088 -0.5882
 4549TIP3    H235139   2.613   0.562   1.419 -1.9397 -0.1150 -1.2995
 4550TIP3   OH235140   2.512   5.811  15.253  0.2948  0.2240  0.8158
 4550TIP3    H135141   2.569   5.881  15.286 -0.0498  1.4324 -0.9974
 4550TIP3    H235142   2.537   5.734  15.304  1.5261  1.3869  2.0646
 4551TIP3   OH235143   4.098   5.261  14.893 -0.0816 -0.5330 -0.6431
 4551TIP3    H135144   4.067   5.213  14.817 -1.2597 -2.3261  0.8933
 4551TIP3    H235145   4.050   5.224  14.967  1.4449  0.7125  1.0784
 4552TIP3   OH235146   3.811   1.854   0.618  0.3543 -0.0184 -0.2231
 4552TIP3    H135147   3.824   1.831   0.710 -0.5723  0.5121  0.0589
 4552TIP3    H235148   3.753   1.786   0.584 -0.4813  0.5811 -0.0180
 4553TIP3   OH235149   2.980   5.231  10.699 -0.1887  0.4030 -0.0084
 4553TIP3    H135150   2.980   5.139  10.673 -0.9972  0.1939  0.6725
 4553TIP3    H235151   2.937   5.276  10.626  2.5861  0.6778 -1.6111
 4554TIP3   OH235152   5.816   0.301  13.685 -0.3910  0.5622 -0.3297
 4554TIP3    H135153   5.777   0.250  13.755  0.4440 -1.5957 -1.3450
 4554TIP3    H235154   5.756   0.291  13.611  0.7363 -0.6525 -1.1260
 4555TIP3   OH235155   1.461   6.414   3.181 -0.0715  0.0691 -0.1686
 4555TIP3    H135156   1.368   6.399   3.199  0.2326 -1.3865  0.3358
 4555TIP3    H235157   1.505   6.341   3.224  1.2352  0.2290 -1.1982
 4556TIP3   OH235158   2.621   6.728   0.549 -0.6943  0.2643  0.2068
 4556TIP3    H135159   2.686   6.728   0.619  0.6049 -2.7129 -0.8170
 4556TIP3    H235160   2.538   6.716   0.594 -0.1014  0.2484  1.3412
 4557TIP3   OH235161   4.577   6.709   5.513  0.0417 -0.3506 -0.5145
 4557TIP3    H135162   4.526   6.661   5.447 -0.4371  2.1588 -2.1191
 4557TIP3    H235163   4.668   6.693   5.489 -0.0367 -1.8504  0.0875
 4558TIP3   OH235164   1.574   6.653  14.098 -0.5805 -0.4846  0.1564
 4558TIP3    H135165   1.547   6.610  14.017 -0.2993  0.2171 -0.3235
 4558TIP3    H235166   1.574   6.584  14.164 -3.8518 -0.4895  0.2810
 4559TIP3   OH235167   5.066   3.759   3.950 -0.2281 -0.4638  0.1073
 4559TIP3    H135168   5.124   3.706   4.005  1.8010  1.7645  0.2686
 4559TIP3    H235169   4.995   3.785   4.008  0.5499 -0.2426  0.9891
 4560TIP3   OH235170   0.132   2.419  14.663  0.0295 -0.2291  0.2693
 4560TIP3    H135171   0.151   2.459  14.578  0.7862 -1.4033 -0.1371
 4560TIP3    H235172   0.084   2.339  14.642 -0.6171 -0.0473  1.0084
 4561TIP3   OH235173   2.365   2.396  11.634  0.2287  0.1007 -0.2479
 4561TIP3    H135174   2.441   2.435  11.591  0.5381  0.5424  0.6729
 4561TIP3    H235175   2.383   2.404  11.728 -0.0784 -1.5409 -0.0190
 4562TIP3   OH235176   1.191   2.571  16.222  0.1332  0.0852 -0.4926
 4562TIP3    H135177   1.098   2.566  16.202  0.1327 -0.2616 -0.4160
 4562TIP3    H235178   1.198   2.638  16.290  0.0734  0.8908 -1.2572
 4563TIP3   OH235179   1.676   3.707   6.003 -0.2708 -0.0529  0.1205
 4563TIP3    H135180   1.605   3.654   6.038 -0.8196  1.0558  0.7554
 4563TIP3    H235181   1.649   3.798   6.021 -0.3109  0.5604 -2.6875
 4564TIP3   OH235182   6.483   3.202   2.096 -0.3295  0.5307 -0.3847
 4564TIP3    H135183   6.576   3.189   2.111 -0.2965  0.5545 -0.5664
 4564TIP3    H235184   6.464   3.289   2.132 -0.0138  1.0821 -1.5010
 4565TIP3   OH235185   1.674   0.812  14.192 -0.2024  0.3293 -0.5171
 4565TIP3    H135186   1.690   0.901  14.225 -0.8431  0.3177 -0.1619
 4565TIP3    H235187   1.589   0.787  14.229  0.4558 -0.8461  0.2837
 4566TIP3   OH235188   2.994   5.154   2.530 -0.5902  1.0226  0.1423
 4566TIP3    H135189   2.955   5.162   2.442 -0.2680  0.2342 -0.0776
 4566TIP3    H235190   2.940   5.090   2.575 -0.7373  1.4058  0.5170
 4567TIP3   OH235191   0.939   3.533  16.359 -0.0271 -0.5070  0.3306
 4567TIP3    H135192   0.999   3.461  16.336 -0.1871  0.0810 -2.1544
 4567TIP3    H235193   0.973   3.566  16.443  2.6453 -0.7355 -0.5588
 4568TIP3   OH235194   4.985   1.977   5.046 -0.2023 -0.6560  0.0888
 4568TIP3    H135195   5.004   1.931   4.964  0.0613  0.2425 -0.3754
 4568TIP3    H235196   5.057   1.952   5.104  1.4745  1.2093 -1.0336
 4569TIP3   OH235197   3.658   6.529  16.592  0.4656 -0.3788  0.3950
 4569TIP3    H135198   3.624   6.562  16.675 -0.3451  0.8346 -0.3744
 4569TIP3    H235199   3.751   6.553  16.592 -0.3889  3.7106 -0.8389
 4570TIP3   OH235200   5.269   0.155   0.348 -0.2952  0.3984 -0.3346
 4570TIP3    H135201   5.200   0.172   0.412  0.8412  0.4412  0.9282
 4570TIP3    H235202   5.335   0.223   0.364 -0.2371  0.7640 -1.9563
 4571TIP3   OH235203   0.182   2.131  17.070  0.3631  0.1512 -0.0231
 4571TIP3    H135204   0.168   2.225  17.073 -2.0710 -0.1294 -0.1414
 4571TIP3    H235205   0.136   2.103  16.991  0.1555 -1.2403  0.5612
 4572TIP3   OH235206   4.707   0.628   2.191 -0.2059  0.7299 -0.3832
 4572TIP3    H135207   4.664   0.704   2.152  0.4702  2.1484  1.5110
 4572TIP3    H235208   4.675   0.554   2.139 -0.1600  2.3469 -2.9299
 4573TIP3   OH235209   2.842   2.533   1.226 -0.0218  0.5204 -0.0948
 4573TIP3    H135210   2.800   2.590   1.161  1.3789  0.2640 -1.2931
 4573TIP3    H235211   2.833   2.445   1.190  1.5044  0.4632 -0.4195
 4574TIP3   OH235212   1.144   5.143  12.288 -0.2487 -0.5271 -0.1030
 4574TIP3    H135213   1.148   5.049  12.274  1.7611 -1.2205  3.7650
 4574TIP3    H235214   1.226   5.176  12.252 -0.2371 -0.4790 -0.0306
 4575TIP3   OH235215   3.524   6.301  12.511  0.2303  0.1142  0.3228
 4575TIP3    H135216   3.433   6.283  12.485  0.6736 -1.5997 -0.1357
 4575TIP3    H235217   3.525   6.288  12.605  0.1922 -0.8196  0.2046
 4576TIP3   OH235218   5.530   2.273   2.076  0.1868  0.5006 -0.7123
 4576TIP3    H135219   5.557   2.349   2.023 -2.5365  1.8718 -0.3259
 4576TIP3    H235220   5.584   2.279   2.155  2.3829 -0.0048 -2.0787
 4577TIP3   OH235221   2.815   3.761   4.674  0.1881  0.5868  0.6473
 4577TIP3    H135222   2.757   3.715   4.735 -0.4221  0.6678  0.1433
 4577TIP3    H235223   2.828   3.847   4.714 -0.7750  0.8903  0.3469
 4578TIP3   OH235224   0.186   4.357   0.045 -0.0804  0.1415  0.6846
 4578TIP3    H135225   0.140   4.423  -0.007 -0.1071  0.4960  1.1498
 4578TIP3    H235226   0.149   4.274   0.017  0.6804  0.2287 -0.6627
 4579TIP3   OH235227   2.680   1.923   0.327  0.7516 -0.2625 -0.3325
 4579TIP3    H135228   2.619   1.885   0.263  0.8270 -1.3421  0.2064
 4579TIP3    H235229   2.624   1.970   0.388  0.3516 -1.7080  0.4753
 4580TIP3   OH235230   1.888   2.166   1.078  0.6591 -1.2488  0.0758
 4580TIP3    H135231   1.926   2.083   1.050  0.3423 -1.6930  0.9652
 4580TIP3    H235232   1.875   2.157   1.172  1.5430  0.1718  0.3620
 4581TIP3   OH235233   4.483   1.516   4.244  0.3711 -0.5525  0.8074
 4581TIP3    H135234   4.492   1.512   4.339  1.2230  0.6624  0.7996
 4581TIP3    H235235   4.413   1.580   4.229  0.8360 -0.0869  0.6055
 4582TIP3   OH235236   4.587   0.426   0.038 -0.5639 -0.5970 -0.0900
 4582TIP3    H135237   4.612   0.390  -0.047 -1.0537 -0.3943 -0.3256
 4582TIP3    H235238   4.670   0.440   0.084 -0.1899  0.6470 -1.0772
 4583TIP3   OH235239   0.093   0.945   4.653  0.4532 -0.3972 -0.0503
 4583TIP3    H135240   0.168   0.965   4.709 -0.9529  0.1245  1.7221
 4583TIP3    H235241   0.030   1.015   4.672 -0.9202 -1.4251 -0.6725
 4584TIP3   OH235242   5.823   1.942  14.159 -0.0598 -0.4193  0.4524
 4584TIP3    H135243   5.775   2.024  14.164  1.2338  0.4179 -0.3671
 4584TIP3    H235244   5.755   1.874  14.161 -1.1478  0.6452  1.1669
 4585TIP3   OH235245   6.344   4.047  15.870  0.9622  0.2038  0.2070
 4585TIP3    H135246   6.322   4.133  15.904 -1.4478 -1.1208  2.3736
 4585TIP3    H235247   6.435   4.034  15.897  0.5718  1.1085  2.1329
 4586TIP3   OH235248   1.519   0.047  11.770  0.5416  0.1102 -0.4624
 4586TIP3    H135249   1.460   0.032  11.696 -0.3968 -0.5399  0.3849
 4586TIP3    H235250   1.463   0.039  11.847  1.3488  1.4952  0.3102
 4587TIP3   OH235251   0.151   5.594  11.401 -0.4067 -0.5095  0.2238
 4587TIP3    H135252   0.105   5.536  11.340  2.1082 -1.9548 -0.4535
 4587TIP3    H235253   0.095   5.598  11.478 -2.0081 -1.5044 -0.8449
 4588TIP3   OH235254   4.837   0.514  17.069  0.5945  0.1671  0.2958
 4588TIP3    H135255   4.788   0.447  17.021  1.2094 -0.4522  0.5254
 4588TIP3    H235256   4.805   0.507  17.159 -0.0857  0.8919  0.1335
 4589TIP3   OH235257   2.113   2.282  14.389  0.3057  0.2526 -0.5641
 4589TIP3    H135258   2.098   2.204  14.336 -0.2097 -1.0253  1.3588
 4589TIP3    H235259   2.208   2.287  14.398  0.3036 -1.7717  1.4560
 4590TIP3   OH235260   1.242   3.522  14.295  0.9680 -0.0817 -0.2280
 4590TIP3    H135261   1.259   3.428  14.285  1.9970  0.0334  0.2525
 4590TIP3    H235262   1.322   3.564  14.264  0.9037  0.5932  0.4688
 4591TIP3   OH235263   5.507   1.668  15.579 -0.3196 -0.0177  0.4860
 4591TIP3    H135264   5.426   1.701  15.540 -0.7466 -0.5919  0.8773
 4591TIP3    H235265   5.561   1.642  15.504 -0.4039  0.5598  0.2162
 4592TIP3   OH235266   2.432   0.334  17.177  0.2493  0.2059 -0.4080
 4592TIP3    H135267   2.390   0.415  17.148 -1.7954 -0.6902 -0.1194
 4592TIP3    H235268   2.360   0.275  17.195  1.5627 -0.8077  2.0470
 4593TIP3   OH235269   1.206   0.926   5.733  0.0653 -0.2909  0.2363
 4593TIP3    H135270   1.114   0.906   5.719 -0.4518  0.8472  1.7211
 4593TIP3    H235271   1.216   1.015   5.700  0.5084 -0.2078  0.5934
 4594TIP3   OH235272   0.987   0.997   5.391  0.3862 -0.4443 -0.1954
 4594TIP3    H135273   1.065   0.970   5.343  0.2137 -0.0244 -0.7204
 4594TIP3    H235274   0.981   1.091   5.376 -0.8325 -0.6326 -1.0904
 4595TIP3   OH235275   1.380   1.838   3.076  0.3153  0.2613 -0.3131
 4595TIP3    H135276   1.352   1.926   3.100 -1.2636 -0.6295  1.3707
 4595TIP3    H235277   1.411   1.800   3.158  0.2890 -0.9905 -0.8611
 4596TIP3   OH235278   2.840   0.798   2.551  0.6648  0.1738 -0.1224
 4596TIP3    H135279   2.781   0.771   2.621 -1.0904 -1.2337 -2.0298
 4596TIP3    H235280   2.923   0.754   2.571  0.0266 -0.6683  0.7714
 4597TIP3   OH235281   1.654   0.929   6.039  0.1695  0.4887  0.0869
 4597TIP3    H135282   1.562   0.946   6.018  0.4881  2.0185 -0.1113
 4597TIP3    H235283   1.681   1.002   6.093  1.6358  0.7303 -0.9140
 4598TIP3   OH235284   4.731   6.106   0.201  0.0656  0.0068 -0.6069
 4598TIP3    H135285   4.700   6.025   0.242 -1.1357  0.5872 -0.3320
 4598TIP3    H235286   4.653   6.143   0.160  0.0925  2.1290  1.0962
 4599TIP3   OH235287   5.848   6.116  13.876 -0.0616  0.3349  0.5540
 4599TIP3    H135288   5.759   6.144  13.895 -0.9250 -1.6725 -0.2420
 4599TIP3    H235289   5.846   6.094  13.783  1.6639  1.5141  0.1868
 4600TIP3   OH235290   3.980   5.947  15.322  0.3294 -0.6655  0.2694
 4600TIP3    H135291   3.940   5.959  15.236 -1.0553  1.2221  1.1099
 4600TIP3    H235292   3.909   5.917  15.378  0.9433 -0.7205  1.0400
 4601TIP3   OH235293   4.329   3.532  11.510 -0.2864  0.5552  0.0254
 4601TIP3    H135294   4.270   3.474  11.461 -1.0660  2.0493 -0.8678
 4601TIP3    H235295   4.415   3.517  11.470  0.0655 -1.7144  1.4043
 4602TIP3   OH235296   2.203   0.567  12.609 -0.4732  0.0060 -0.1967
 4602TIP3    H135297   2.127   0.582  12.666 -1.4186 -3.4232 -0.3031
 4602TIP3    H235298   2.272   0.621  12.646 -1.9419  0.3328  2.2859
 4603TIP3   OH235299   6.656   2.316   3.187 -1.0421  1.0820  0.0508
 4603TIP3    H135300   6.692   2.399   3.154  0.4257  0.9716  1.2475
 4603TIP3    H235301   6.581   2.342   3.240 -0.1030  1.7485  1.0934
 4604TIP3   OH235302   5.778   5.659   4.269 -0.5890 -0.1610  0.2102
 4604TIP3    H135303   5.735   5.583   4.231  0.2498  0.7989 -2.9553
 4604TIP3    H235304   5.731   5.734   4.232  1.7472  0.8686 -0.8823
 4605TIP3   OH235305   3.891   3.988   2.411 -0.3929  0.4895  0.0084
 4605TIP3    H135306   3.880   4.042   2.333 -0.1949  1.4319  0.6116
 4605TIP3    H235307   3.841   4.034   2.479 -0.0882 -0.0082  0.5784
 4606TIP3   OH235308   1.722   3.296   4.139 -0.0866  0.1974 -0.9164
 4606TIP3    H135309   1.696   3.387   4.123 -0.1470  0.0995 -1.3873
 4606TIP3    H235310   1.639   3.249   4.150 -0.0642  0.1500 -0.9501
 4607TIP3   OH235311   5.048   6.790  15.102 -0.1187  0.8333 -0.3871
 4607TIP3    H135312   5.134   6.762  15.134  0.5929  2.1433 -1.0730
 4607TIP3    H235313   5.066   6.869  15.051 -1.6766  0.8507 -0.9600
 4608TIP3   OH235314   4.739   3.300  14.000 -0.1545 -0.1133  0.4999
 4608TIP3    H135315   4.686   3.225  14.028  0.1840 -0.7929 -0.6244
 4608TIP3    H235316   4.675   3.370  13.985 -0.7635 -0.9366 -0.8713
 4609TIP3   OH235317   5.432   1.770   2.520  0.0586  0.4508  0.6031
 4609TIP3    H135318   5.347   1.740   2.488  0.3109  1.7538 -1.4401
 4609TIP3    H235319   5.493   1.702   2.493 -0.1411  0.1232  0.9635
 4610TIP3   OH235320   4.852   2.198  14.369 -0.1078 -0.1070 -0.2239
 4610TIP3    H135321   4.846   2.256  14.293 -0.6518 -0.9735 -0.8686
 4610TIP3    H235322   4.761   2.179  14.392  0.0477  0.4838  0.9244
 4611TIP3   OH235323   1.021   2.938  11.194  0.2533 -0.0995  0.1216
 4611TIP3    H135324   0.935   2.957  11.157 -0.6114 -0.7225  1.6835
 4611TIP3    H235325   1.007   2.857  11.244  2.1661 -1.1455 -0.9211
 4612TIP3   OH235326   2.187   2.697  11.641  0.0164 -0.0623 -0.2820
 4612TIP3    H135327   2.113   2.638  11.658  1.4333 -1.2026  2.6018
 4612TIP3    H235328   2.152   2.785  11.657 -0.9793 -0.5004  0.0151
 4613TIP3   OH235329   6.043   6.596  12.052  0.0588  0.1816 -0.3085
 4613TIP3    H135330   6.133   6.600  12.082  0.2957  0.5211 -1.0326
 4613TIP3    H235331   6.044   6.640  11.966 -0.9858  1.1384  0.1421
 4614TIP3   OH235332   6.664   2.035  15.017  0.6961 -0.5179  0.1767
 4614TIP3    H135333   6.629   2.000  14.935  1.3185 -0.1807 -0.2416
 4614TIP3    H235334   6.708   2.116  14.992  1.2433 -0.6188  0.7722
 4615TIP3   OH235335   2.640   3.425  15.882 -0.5926 -0.3327 -0.2221
 4615TIP3    H135336   2.680   3.345  15.848  0.6319 -0.7570  2.0472
 4615TIP3    H235337   2.650   3.419  15.977 -1.6511  1.9136  0.0977
 4616TIP3   OH235338   2.597   3.114  16.081  0.2692 -0.2932 -0.2125
 4616TIP3    H135339   2.566   3.054  16.013 -3.5034  1.3512 -0.1938
 4616TIP3    H235340   2.591   3.063  16.162 -0.3695 -0.6913 -0.4988
 4617TIP3   OH235341   0.595   1.092   0.449  0.1161 -0.3617 -0.3084
 4617TIP3    H135342   0.514   1.107   0.497  1.2049  1.3998  1.1234
 4617TIP3    H235343   0.625   1.180   0.423 -0.5363 -1.1893 -4.6193
 4618TIP3   OH235344   3.835   0.911   3.703 -0.1133  0.0477 -0.5893
 4618TIP3    H135345   3.818   0.949   3.617  0.9192  2.5549  0.2174
 4618TIP3    H235346   3.901   0.968   3.742  1.4974 -2.5841  0.8562
 4619TIP3   OH235347   1.092   6.533  12.114  0.2919  0.6152  1.0705
 4619TIP3    H135348   1.079   6.589  12.191  0.8146  2.5968 -0.1937
 4619TIP3    H235349   1.026   6.563  12.052 -0.4615 -1.3058  0.8794
 4620TIP3   OH235350   0.680   2.810   6.508  0.6250  0.4758 -0.2647
 4620TIP3    H135351   0.606   2.869   6.494  0.8935  0.8111 -0.2777
 4620TIP3    H235352   0.656   2.761   6.587 -0.7440 -1.1999 -1.6502
 4621TIP3   OH235353   5.000   2.352   6.258  0.2983  0.2699  0.3573
 4621TIP3    H135354   4.911   2.355   6.222  0.5784  0.3624 -0.3467
 4621TIP3    H235355   5.000   2.417   6.328 -0.2331  0.1481  0.4775
 4622TIP3   OH235356   2.130   5.589   3.715  0.3401  0.0536 -0.0203
 4622TIP3    H135357   2.211   5.559   3.755  0.3863 -0.7343 -0.6643
 4622TIP3    H235358   2.115   5.676   3.751 -1.4887 -1.8307  4.4264
 4623TIP3   OH235359   0.702   5.915  10.540  0.5350 -0.1110  0.1341
 4623TIP3    H135360   0.692   5.927  10.635 -1.7046  0.7616 -0.1388
 4623TIP3    H235361   0.761   5.984  10.513 -1.3911  1.7929  0.5097
 4624TIP3   OH235362   5.317   5.239   3.959 -0.1383 -0.3474 -0.0983
 4624TIP3    H135363   5.353   5.193   3.884 -1.0987  0.9403 -1.3915
 4624TIP3    H235364   5.344   5.330   3.947  0.3682 -0.2494  1.5571
 4625TIP3   OH235365   1.517   2.500   0.012 -0.2736  0.7357  0.2697
 4625TIP3    H135366   1.548   2.415   0.044  0.2886  0.2326 -1.4865
 4625TIP3    H235367   1.426   2.504   0.041 -1.1788 -1.7272 -1.8524
 4626TIP3   OH235368   3.478   1.958  15.567 -0.4351 -0.1765  0.2679
 4626TIP3    H135369   3.565   1.919  15.568 -0.6863 -0.7469  0.0168
 4626TIP3    H235370   3.468   1.997  15.654 -0.4555 -1.2599  0.7556
 4627TIP3   OH235371   6.606   4.014  15.980  0.5253 -0.0519 -0.0346
 4627TIP3    H135372   6.663   3.979  16.048 -0.0492 -1.0090 -0.0329
 4627TIP3    H235373   6.606   3.948  15.911 -1.5020 -0.6573  0.4760
 4628TIP3   OH235374   1.877   4.661   3.670 -0.0898 -0.2238 -0.1309
 4628TIP3    H135375   1.891   4.733   3.732 -0.1485  0.4217 -0.8600
 4628TIP3    H235376   1.847   4.704   3.590 -0.9785 -1.1401 -0.2975
 4629TIP3   OH235377   3.260   5.150   6.049  0.2397 -0.0852 -0.2218
 4629TIP3    H135378   3.209   5.224   6.015 -0.4113  0.0796  1.0688
 4629TIP3    H235379   3.324   5.132   5.980 -0.9793  0.2830 -1.5115
 4630TIP3   OH235380   3.845   0.095  11.945  0.3772 -0.1814  0.2347
 4630TIP3    H135381   3.772   0.123  12.000  0.1331  0.1331 -0.2376
 4630TIP3    H235382   3.804   0.063  11.865  0.8104  1.8836 -0.8744
 4631TIP3   OH235383   2.711   1.682  15.726 -0.4639 -0.1559  0.2935
 4631TIP3    H135384   2.783   1.674  15.663 -0.3988  1.7255  0.0494
 4631TIP3    H235385   2.665   1.599  15.720  0.3930 -0.5724 -1.1949
 4632TIP3   OH235386   2.892   5.125  11.826 -0.5212 -0.6280  0.1774
 4632TIP3    H135387   2.818   5.065  11.839 -0.0538 -1.4869 -0.9409
 4632TIP3    H235388   2.887   5.150  11.734  1.4301 -1.9118 -0.3350
 4633TIP3   OH235389   1.062   3.679  14.136 -0.3265  0.4463 -0.5313
 4633TIP3    H135390   1.102   3.722  14.061 -0.8599  2.5515  0.3236
 4633TIP3    H235391   1.132   3.624  14.172 -0.3476 -1.4658 -3.0870
 4634TIP3   OH235392   6.245   6.165  14.250  0.2616 -0.3629 -0.0939
 4634TIP3    H135393   6.265   6.142  14.340  0.9005  0.1800 -0.0902
 4634TIP3    H235394   6.153   6.190  14.251 -0.4128 -2.5791 -0.0452
 4635TIP3   OH235395   3.003   3.736   0.525  0.3831  0.3429 -0.5098
 4635TIP3    H135396   2.984   3.646   0.501  2.3047 -0.2866  0.2012
 4635TIP3    H235397   3.066   3.766   0.460  0.0409  1.0561 -0.5230
 4636TIP3   OH235398   6.382   2.587  11.726  0.5604 -0.2493 -0.6509
 4636TIP3    H135399   6.409   2.498  11.749 -0.7901 -1.5714 -3.6134
 4636TIP3    H235400   6.305   2.604  11.781  0.7195 -0.9854 -0.1844
 4637TIP3   OH235401   4.943   0.453   5.188  0.7079  0.4230 -0.0138
 4637TIP3    H135402   4.969   0.367   5.157  1.9713 -0.2841  2.6577
 4637TIP3    H235403   4.847   0.451   5.186  0.7358 -0.3507 -1.6491
 4638TIP3   OH235404   0.440   6.781   3.896  0.2815 -0.3614  0.0828
 4638TIP3    H135405   0.382   6.800   3.822 -1.6425  1.8845  2.0206
 4638TIP3    H235406   0.502   6.854   3.897  0.2340 -0.3250  0.7279
 4639TIP3   OH235407   2.278   0.007   3.530 -0.2899  0.0200 -0.3761
 4639TIP3    H135408   2.345   0.004   3.599 -1.6297 -1.3116  0.9510
 4639TIP3    H235409   2.311  -0.051   3.462  0.6085  0.5896 -0.4374
 4640TIP3   OH235410   2.298   3.401   5.584  0.3392  0.6874  0.2664
 4640TIP3    H135411   2.378   3.441   5.620  1.9917 -0.6352 -1.6911
 4640TIP3    H235412   2.294   3.434   5.494  1.3533 -2.7786 -1.1908
 4641TIP3   OH235413   4.167   2.260  10.970 -0.3750 -0.4266  0.6318
 4641TIP3    H135414   4.131   2.342  11.003  0.1494 -0.4483  1.2771
 4641TIP3    H235415   4.103   2.230  10.905 -0.3125  0.7590 -0.0090
 4642TIP3   OH235416   3.865   6.595  11.832  0.0080 -0.2689  0.0228
 4642TIP3    H135417   3.870   6.563  11.742  2.0255  0.6101 -0.2415
 4642TIP3    H235418   3.820   6.679  11.825  1.4747  0.5124 -0.4296
 4643TIP3   OH235419   2.853   5.881   6.071 -0.2119 -0.1490 -0.0812
 4643TIP3    H135420   2.916   5.853   6.137  0.2340 -0.8453 -0.7913
 4643TIP3    H235421   2.800   5.948   6.116  1.1000  0.5559  0.4946
 4644TIP3   OH235422   5.762   2.668   2.958  0.4266 -0.0577 -0.2523
 4644TIP3    H135423   5.683   2.716   2.982  0.8058 -0.3956  1.8906
 4644TIP3    H235424   5.826   2.692   3.025  1.2898 -1.8799 -0.3635
 4645TIP3   OH235425   1.736   1.555  12.370  0.0255 -0.3009 -0.2869
 4645TIP3    H135426   1.785   1.505  12.305 -0.1869 -0.4598 -0.3243
 4645TIP3    H235427   1.721   1.493  12.442  0.6908  0.0102  0.1352
 4646TIP3   OH235428   4.274   0.609  13.602 -0.1084  0.0850 -0.2340
 4646TIP3    H135429   4.364   0.580  13.587 -0.4098 -0.0938 -1.9378
 4646TIP3    H235430   4.282   0.702  13.623  0.5386 -0.1823  0.7780
 4647TIP3   OH235431   3.526   5.112  13.059 -0.3638  0.0635 -0.0086
 4647TIP3    H135432   3.609   5.111  13.011 -1.1927  0.6642 -1.5210
 4647TIP3    H235433   3.462   5.078  12.997 -1.2121 -0.6732  1.2415
 4648TIP3   OH235434   1.356   1.946   2.708 -0.3154  0.2010  0.3371
 4648TIP3    H135435   1.428   1.886   2.727 -1.1820 -1.5292 -1.3719
 4648TIP3    H235436   1.398   2.031   2.696  1.3437 -0.5825  0.2492
 4649TIP3   OH235437   2.222   1.763  12.735  0.4048  0.4509 -0.1610
 4649TIP3    H135438   2.258   1.678  12.710 -1.9134 -0.5983 -0.1606
 4649TIP3    H235439   2.271   1.788  12.813 -0.1526 -1.8618  1.0225
 4650TIP3   OH235440   2.862   6.359  11.489  0.5818 -0.1444 -0.0820
 4650TIP3    H135441   2.792   6.383  11.429  1.5176  0.0778 -1.1226
 4650TIP3    H235442   2.890   6.443  11.528  0.2446 -0.2384  0.3700
 4651TIP3   OH235443   1.446   3.266   4.159  0.0928  0.0434  0.3781
 4651TIP3    H135444   1.452   3.186   4.212 -2.2082 -0.6763 -0.2909
 4651TIP3    H235445   1.352   3.279   4.147  0.4718  1.7506 -1.2010
 4652TIP3   OH235446   2.055   2.379   4.944  0.0506  0.2420  0.2442
 4652TIP3    H135447   2.140   2.345   4.972  0.8828  2.0582  0.0905
 4652TIP3    H235448   1.999   2.370   5.021  0.1109 -1.7551  0.0845
 4653TIP3   OH235449   0.207   2.473   4.420 -0.7732 -0.2101  0.0521
 4653TIP3    H135450   0.190   2.470   4.326  1.0392 -0.4992 -0.2932
 4653TIP3    H235451   0.239   2.385   4.442 -1.2401 -0.1684  0.9671
 4654TIP3   OH235452   3.213   5.794  15.911  0.0766 -0.1093 -0.4778
 4654TIP3    H135453   3.267   5.867  15.941  1.2142 -1.3245  0.5702
 4654TIP3    H235454   3.137   5.795  15.970 -0.3891  0.7544 -1.0616
 4655TIP3   OH235455   3.444   0.977  15.478 -0.4552 -0.2671  0.4652
 4655TIP3    H135456   3.349   0.980  15.468 -0.3154 -0.7452 -1.5442
 4655TIP3    H235457   3.473   1.062  15.445 -0.2071  0.2273  1.8929
 4656TIP3   OH235458   3.358   5.078   0.265  0.2140 -0.4140  0.6504
 4656TIP3    H135459   3.265   5.058   0.252  1.0878 -2.9367 -3.3687
 4656TIP3    H235460   3.385   5.123   0.185  2.1589  2.2936  2.6050
 4657TIP3   OH235461   4.146   6.459   3.733 -0.5338 -0.3594 -0.2198
 4657TIP3    H135462   4.213   6.409   3.686  1.6671  2.3715 -0.2407
 4657TIP3    H235463   4.112   6.520   3.667 -0.0556  1.0180  0.7605
 4658TIP3   OH235464   5.913   3.674  15.778 -0.2698 -0.1691 -0.2110
 4658TIP3    H135465   5.894   3.726  15.856 -1.2633  0.0202 -0.5647
 4658TIP3    H235466   5.980   3.612  15.806  0.7403  1.1032  0.2971
 4659TIP3   OH235467   1.714   6.190  13.207 -0.1352 -0.1811  0.3939
 4659TIP3    H135468   1.793   6.138  13.222  0.4680  0.7887  0.6417
 4659TIP3    H235469   1.647   6.125  13.182  1.3848 -0.8066 -2.5335
 4660TIP3   OH235470   5.417   3.248  16.188  0.6756 -0.0041 -0.3066
 4660TIP3    H135471   5.508   3.229  16.211  0.4915 -0.9325 -0.3193
 4660TIP3    H235472   5.366   3.177  16.228  0.0744 -0.1295 -1.2448
 4661TIP3   OH235473   3.552   2.224   0.746  0.5331 -0.4438 -0.2997
 4661TIP3    H135474   3.605   2.296   0.782 -0.3904  1.3051 -2.2345
 4661TIP3    H235475   3.616   2.164   0.708  1.2493  0.4332 -0.5178
 4662TIP3   OH235476   5.974   6.762   2.197 -0.1656 -0.1278  0.0531
 4662TIP3    H135477   5.932   6.697   2.140  1.0488 -2.7340  1.9064
 4662TIP3    H235478   6.065   6.763   2.168 -0.2078  0.9696 -0.0865
 4663TIP3   OH235479   5.223   2.022  14.541 -0.3713  0.2308 -0.2407
 4663TIP3    H135480   5.228   1.956  14.611  0.4799 -0.4089 -0.8908
 4663TIP3    H235481   5.241   2.105  14.586  0.8993 -0.2569  0.2035
 4664TIP3   OH235482   3.695   1.679  12.737 -0.7121  0.5055 -0.1734
 4664TIP3    H135483   3.617   1.712  12.692 -0.1561  0.7824 -0.9726
 4664TIP3    H235484   3.685   1.707  12.828 -1.5802  0.4542 -0.2459
 4665TIP3   OH235485   3.070   3.426   5.136 -0.1989 -0.6756 -0.0196
 4665TIP3    H135486   2.999   3.447   5.076  0.1963  1.1766  0.0840
 4665TIP3    H235487   3.031   3.435   5.223 -0.2927 -1.4998  0.0310
 4666TIP3   OH235488   1.525   5.576  16.531  0.3190  0.2743 -0.1882
 4666TIP3    H135489   1.471   5.503  16.561  2.6789 -1.1082  1.0143
 4666TIP3    H235490   1.547   5.555  16.441  0.3766 -0.1345 -0.0802
 4667TIP3   OH235491   4.432   4.310   4.222  0.0533 -0.3658  0.9427
 4667TIP3    H135492   4.350   4.342   4.259 -0.4311 -0.8776  0.3330
 4667TIP3    H235493   4.441   4.359   4.140 -0.3580 -1.2889  0.3288
 4668TIP3   OH235494   3.389   5.152  17.166 -0.2905  0.1426 -0.7801
 4668TIP3    H135495   3.455   5.211  17.129  0.2666 -0.4939 -0.8177
 4668TIP3    H235496   3.422   5.065  17.147 -1.2254 -0.1859 -0.9273
 4669TIP3   OH235497   3.226   1.827  15.478  0.4459 -0.1776  0.5508
 4669TIP3    H135498   3.318   1.806  15.495  0.3401 -1.8822 -0.7421
 4669TIP3    H235499   3.209   1.792  15.390 -0.8903  1.9708 -0.1361
 4670TIP3   OH235500   2.706   4.132   1.421 -0.0880 -0.0087  0.0530
 4670TIP3    H135501   2.697   4.058   1.361  1.0483 -0.0971 -0.0356
 4670TIP3    H235502   2.758   4.099   1.494  0.4762  0.6967 -0.0093
 4671TIP3   OH235503   4.265   6.237   1.483 -0.0659 -0.5200  0.0279
 4671TIP3    H135504   4.281   6.199   1.397  1.0901 -1.3053  0.5507
 4671TIP3    H235505   4.346   6.284   1.503 -0.3048 -0.3831  0.6934
 4672TIP3   OH235506   1.699   5.828  12.879 -0.2512 -0.2691 -0.0082
 4672TIP3    H135507   1.677   5.741  12.911 -2.8930 -0.1845 -1.3555
 4672TIP3    H235508   1.733   5.812  12.790 -0.9110  0.0588 -0.3264
 4673TIP3   OH235509   5.305   2.019   4.748  0.0470 -0.3606 -0.6657
 4673TIP3    H135510   5.228   1.988   4.700 -1.8397  2.5695  0.1856
 4673TIP3    H235511   5.332   2.098   4.701  2.4643 -1.2113 -0.8074
 4674TIP3   OH235512   3.769   2.131  16.921 -0.1222 -0.8094 -0.6158
 4674TIP3    H135513   3.677   2.157  16.924 -0.4295 -1.9814  1.0995
 4674TIP3    H235514   3.815   2.202  16.964 -0.3712 -0.7975 -0.3652
 4675TIP3   OH235515   2.410   4.103   0.953  0.1409 -0.0263 -0.3645
 4675TIP3    H135516   2.353   4.125   0.879  0.4315  0.3422 -0.4823
 4675TIP3    H235517   2.353   4.056   1.014 -0.1550 -0.1408 -0.7256
 4676TIP3   OH235518   0.449   4.456  17.183  0.8599 -0.0709  0.4012
 4676TIP3    H135519   0.449   4.510  17.104  3.7485 -0.8181 -0.2282
 4676TIP3    H235520   0.357   4.436  17.199 -0.0378  2.3197 -1.1893
 4677TIP3   OH235521   0.068   4.719   1.648 -0.1079 -0.0375 -0.0532
 4677TIP3    H135522   0.098   4.810   1.649 -1.7277  0.5420 -0.6758
 4677TIP3    H235523   0.033   4.706   1.560 -0.0911 -1.2075  0.0908
 4678TIP3   OH235524   2.353   5.963   1.392  0.2504 -0.1704  0.0259
 4678TIP3    H135525   2.440   5.924   1.400 -0.0477 -0.4648  2.4605
 4678TIP3    H235526   2.295   5.900   1.436 -1.0509  0.4851 -0.7160
 4679TIP3   OH235527   3.405   5.741   4.953  0.7872  0.2204  0.5206
 4679TIP3    H135528   3.378   5.774   5.039  1.5714  0.4268  0.6967
 4679TIP3    H235529   3.446   5.816   4.910  0.9482 -0.0437  0.2089
 4680TIP3   OH235530   4.896   2.857  15.250 -0.3409  0.6076  0.9264
 4680TIP3    H135531   4.865   2.849  15.340 -0.5697 -0.0639  0.7956
 4680TIP3    H235532   4.834   2.805  15.198 -0.3474  1.1810  0.3487
 4681TIP3   OH235533   0.986   0.196  12.506 -0.0231 -0.3611 -0.3564
 4681TIP3    H135534   0.940   0.231  12.583  1.0075 -0.9977  0.5759
 4681TIP3    H235535   0.939   0.233  12.431 -0.2809  1.3128  0.5757
 4682TIP3   OH235536   0.615   6.332  10.551  0.1430  0.5037  0.4435
 4682TIP3    H135537   0.537   6.361  10.597 -0.6650  2.1312 -1.7661
 4682TIP3    H235538   0.644   6.409  10.502  0.6629 -1.1512 -2.0622
 4683TIP3   OH235539   0.683   4.408  16.040 -0.0657 -0.0733  0.1895
 4683TIP3    H135540   0.707   4.347  15.970 -1.0470 -2.9939  2.2056
 4683TIP3    H235541   0.590   4.391  16.056 -0.2342  1.5770  1.2413
 4684TIP3   OH235542   1.614   6.723   0.011 -0.0693 -0.5009  0.3835
 4684TIP3    H135543   1.553   6.692   0.078 -0.1821  0.3809  0.7032
 4684TIP3    H235544   1.652   6.802   0.048  0.0196 -0.1112 -0.5074
 4685TIP3   OH235545   0.892   0.831  12.188  0.3935 -0.4231 -0.3877
 4685TIP3    H135546   0.862   0.920  12.168 -0.4746 -0.5979  0.0813
 4685TIP3    H235547   0.820   0.792  12.238  0.1111 -1.9222 -1.9049
 4686TIP3   OH235548   6.275   1.010   5.244 -0.1174 -0.0076 -0.0062
 4686TIP3    H135549   6.272   0.943   5.176  0.4771  0.4522 -0.5042
 4686TIP3    H235550   6.185   1.039   5.253 -0.4815 -1.2577  0.6261
 4687TIP3   OH235551   6.067   1.230   2.021 -0.0916 -0.0023 -0.4050
 4687TIP3    H135552   6.077   1.135   2.013 -1.4565 -0.2257  0.2726
 4687TIP3    H235553   6.135   1.256   2.083 -0.4553 -0.7076  0.2955
 4688TIP3   OH235554   4.932   0.725  14.694 -0.2306  0.1626 -0.2812
 4688TIP3    H135555   4.842   0.743  14.719 -0.3510 -1.7018  0.8897
 4688TIP3    H235556   4.963   0.662  14.760  1.7496  0.3480 -0.9546
 4689TIP3   OH235557   3.835   5.071  12.464 -0.0901 -0.3586  0.3267
 4689TIP3    H135558   3.929   5.082  12.481  0.1644 -0.7301 -0.7716
 4689TIP3    H235559   3.803   5.023  12.540  0.1332  1.7018  1.8287
 4690TIP3   OH235560   3.783   5.747  16.044 -0.3559 -0.3443  0.0060
 4690TIP3    H135561   3.864   5.795  16.066  0.3946 -1.3898 -0.4027
 4690TIP3    H235562   3.737   5.740  16.128  1.0871 -1.7194  0.7471
 4691TIP3   OH235563   2.099   5.905  16.904 -0.1407 -0.3128  1.2368
 4691TIP3    H135564   2.086   5.911  16.999  0.1814  0.3617  1.2409
 4691TIP3    H235565   2.013   5.881  16.870 -0.2699 -0.5192  1.6903
 4692TIP3   OH235566   0.057   3.257   5.983  0.4765 -0.2391 -0.1803
 4692TIP3    H135567   0.128   3.321   5.973 -0.0179  0.2772 -0.4042
 4692TIP3    H235568   0.101   3.172   5.976  0.8213  0.0495 -2.3471
 4693TIP3   OH235569   4.100   2.294  15.715 -0.3428  0.0407 -0.0156
 4693TIP3    H135570   4.170   2.231  15.700 -0.1286  0.3527 -0.3600
 4693TIP3    H235571   4.046   2.288  15.636 -1.0282 -0.6005  0.4884
 4694TIP3   OH235572   0.404   1.744  12.283  0.2202  0.0810 -0.2650
 4694TIP3    H135573   0.419   1.757  12.190 -1.5641 -0.4312 -0.6569
 4694TIP3    H235574   0.354   1.822  12.310 -0.6164 -0.5026 -0.0988
 4695TIP3   OH235575   3.759   5.371   4.860  0.4461 -0.5488 -0.4219
 4695TIP3    H135576   3.742   5.277   4.869 -0.9158 -0.4146 -1.2549
 4695TIP3    H235577   3.727   5.410   4.941  1.0907 -0.8031 -0.0398
 4696TIP3   OH235578   3.448   4.075   3.174 -0.2496  0.0868 -0.1994
 4696TIP3    H135579   3.521   4.137   3.176 -1.3297  1.5468 -2.4706
 4696TIP3    H235580   3.482   4.000   3.126  0.1300  0.1970 -0.1116
 4697TIP3   OH235581   2.229   1.961  14.395 -0.6493 -0.1078 -0.6019
 4697TIP3    H135582   2.151   2.010  14.368  0.1284  3.0794  2.1581
 4697TIP3    H235583   2.229   1.969  14.491  1.4226 -2.7915 -0.2696
 4698TIP3   OH235584   6.611   6.560   2.872 -0.1533  0.2644  0.2452
 4698TIP3    H135585   6.671   6.623   2.911 -0.1587 -0.1706  0.9571
 4698TIP3    H235586   6.666   6.506   2.815  0.5542 -1.4632  2.4419
 4699TIP3   OH235587   3.760   5.654   2.047 -0.2525 -0.0183 -0.2749
 4699TIP3    H135588   3.791   5.592   1.981  2.1765  0.6928  0.0971
 4699TIP3    H235589   3.788   5.740   2.014 -1.1695  0.5923  0.5052
 4700TIP3   OH235590   6.640   1.018  13.663 -0.3089  0.4836 -0.0719
 4700TIP3    H135591   6.698   1.064  13.724 -0.6129  0.6998  0.0533
 4700TIP3    H235592   6.700   0.965  13.610 -0.0689  0.0896  0.5796
 4701TIP3   OH235593   0.789   6.810  12.278 -0.2744  0.2642 -0.3142
 4701TIP3    H135594   0.772   6.730  12.328  0.3479  0.8510  0.8691
 4701TIP3    H235595   0.702   6.851  12.269 -0.3968  0.1823  0.3772
 4702TIP3   OH235596   2.155   2.600   1.216 -0.0701 -0.7050 -0.7724
 4702TIP3    H135597   2.125   2.604   1.125  0.1762 -1.0936 -0.8740
 4702TIP3    H235598   2.250   2.609   1.210 -0.1762  0.8829 -0.4284
 4703TIP3   OH235599   4.841   6.341  14.542  0.1090 -0.4243  0.1442
 4703TIP3    H135600   4.922   6.320  14.496  0.5069  0.8889  0.1986
 4703TIP3    H235601   4.771   6.315  14.482  0.5715 -1.1820 -0.0733
 4704TIP3   OH235602   1.025   4.283   3.453  0.0841  0.0415  0.5854
 4704TIP3    H135603   0.932   4.285   3.475 -0.0128 -0.6055  0.2561
 4704TIP3    H235604   1.057   4.201   3.492 -0.4941 -2.1782 -3.1611
 4705TIP3   OH235605   5.432   2.495  15.813  0.3290  0.1988 -0.1434
 4705TIP3    H135606   5.389   2.575  15.842  0.0640 -0.2419  0.7079
 4705TIP3    H235607   5.385   2.469  15.734 -0.0596  0.4832 -0.0037
 4706TIP3   OH235608   2.057   1.736   0.543  0.1546  0.3387  0.2461
 4706TIP3    H135609   2.004   1.705   0.470  1.7106  0.5478 -1.0162
 4706TIP3    H235610   2.143   1.696   0.530 -0.2769 -2.1907  3.7154
 4707TIP3   OH235611   2.565   2.562   1.368  0.0598  0.1953 -0.0354
 4707TIP3    H135612   2.523   2.558   1.453  0.0619  0.8543  0.0058
 4707TIP3    H235613   2.657   2.539   1.385  0.2107  0.9719  0.2630
 4708TIP3   OH235614   0.358   1.399   3.274 -0.1738  0.2211 -0.0551
 4708TIP3    H135615   0.333   1.491   3.283 -1.1698 -0.1524  1.3913
 4708TIP3    H235616   0.279   1.355   3.242  0.3033 -0.1331 -0.7677
 4709TIP3   OH235617   1.118   4.721  12.797  0.0826  0.8738  0.3670
 4709TIP3    H135618   1.182   4.652  12.817 -1.9567 -0.7795  1.7176
 4709TIP3    H235619   1.113   4.722  12.702  0.7343 -0.3297  0.2922
 4710TIP3   OH235620   6.250   2.358  11.580 -0.2837 -0.1020  0.2039
 4710TIP3    H135621   6.262   2.453  11.587  0.4645 -0.2286  0.7221
 4710TIP3    H235622   6.331   2.326  11.540 -0.2880 -0.5855  0.5731
 4711TIP3   OH235623   5.955   1.153   1.459 -0.3445  0.5823  1.6043
 4711TIP3    H135624   6.045   1.145   1.492 -0.0817  0.4537  0.8667
 4711TIP3    H235625   5.938   1.248   1.461  0.3013  0.7368  0.4746
 4712TIP3   OH235626   2.402   5.294   0.937 -0.3060 -0.1315 -0.2420
 4712TIP3    H135627   2.396   5.241   1.016 -0.3004  1.2951  0.7377
 4712TIP3    H235628   2.476   5.352   0.952 -0.0691 -0.0875 -1.4614
 4713TIP3   OH235629   5.868   2.358   5.210  0.4358  0.1558  0.2771
 4713TIP3    H135630   5.851   2.376   5.118 -0.3937 -1.7113  0.0115
 4713TIP3    H235631   5.910   2.437   5.243  0.3677  1.0207 -1.5922
 4714TIP3   OH235632   4.009   4.627  16.232  0.3493  0.0973 -0.4050
 4714TIP3    H135633   3.997   4.721  16.222  2.7726  0.6160  0.9652
 4714TIP3    H235634   4.104   4.614  16.238  0.0852 -2.3936 -0.1852
 4715TIP3   OH235635   0.603   3.624   1.512 -0.1869 -0.4144 -0.4242
 4715TIP3    H135636   0.626   3.589   1.425 -0.5666 -1.6412 -0.0540
 4715TIP3    H235637   0.579   3.715   1.495  1.5088 -0.0880 -1.3317
 4716TIP3   OH235638   2.530   4.196   1.985 -0.9946 -0.4725  0.3123
 4716TIP3    H135639   2.511   4.159   2.071 -1.8718  1.5275  1.0464
 4716TIP3    H235640   2.493   4.134   1.923 -3.0976 -0.4989  1.4976
 4717TIP3   OH235641   3.757   0.583   5.966 -0.2884 -0.5061  0.1642
 4717TIP3    H135642   3.746   0.673   5.936 -1.5799 -0.9639 -0.8212
 4717TIP3    H235643   3.725   0.584   6.056  2.3517  0.5912  1.1813
 4718TIP3   OH235644   4.732   5.256   2.328 -0.1814 -0.2376  0.4669
 4718TIP3    H135645   4.724   5.163   2.305 -1.5257  0.0606 -0.4219
 4718TIP3    H235646   4.683   5.301   2.259  1.8355  1.2772 -0.0749
 4719TIP3   OH235647   5.828   1.233  16.450 -0.8788 -0.0652  0.0163
 4719TIP3    H135648   5.741   1.265  16.426 -0.1308  1.1527 -1.2378
 4719TIP3    H235649   5.864   1.198  16.368 -0.0968 -0.3412  0.4651
 4720TIP3   OH235650   3.397   1.548  11.829 -0.3348  0.2555  0.3740
 4720TIP3    H135651   3.387   1.508  11.743  1.3949  0.2376  0.1612
 4720TIP3    H235652   3.373   1.640  11.817  0.9015  0.4965 -0.3867
 4721TIP3   OH235653   1.670   1.798  12.875 -0.4981 -0.3418 -0.0487
 4721TIP3    H135654   1.706   1.847  12.950 -2.2573  0.1997  0.5135
 4721TIP3    H235655   1.589   1.760  12.909  0.7579 -3.7516 -0.4689
 4722TIP3   OH235656   5.706   2.680  15.927 -0.2150 -0.1235 -0.1883
 4722TIP3    H135657   5.706   2.640  15.840 -0.6148 -0.2818 -0.1159
 4722TIP3    H235658   5.617   2.714  15.938  0.2426  1.2600 -0.4596
 4723TIP3   OH235659   5.287   3.389  13.153  0.1579 -0.9762 -0.8418
 4723TIP3    H135660   5.210   3.437  13.121 -0.0231 -1.4154 -1.0792
 4723TIP3    H235661   5.350   3.457  13.175  0.3711 -0.6471 -2.3586
 4724TIP3   OH235662   0.443   4.530   2.611  0.4248 -0.3456 -0.2451
 4724TIP3    H135663   0.432   4.526   2.706 -0.9742  1.0446 -0.3152
 4724TIP3    H235664   0.530   4.570   2.599 -0.3426  1.6834  0.5099
 4725TIP3   OH235665   2.704   3.117   5.701 -0.2683 -0.1662 -0.1684
 4725TIP3    H135666   2.797   3.101   5.684 -0.3510 -0.7172 -0.1278
 4725TIP3    H235667   2.704   3.175   5.777  0.0532  0.4708 -0.6371
 4726TIP3   OH235668   2.960   4.136  11.322 -0.0076 -0.1071  0.2109
 4726TIP3    H135669   2.973   4.108  11.232 -0.7498  0.2482 -0.0217
 4726TIP3    H235670   2.944   4.231  11.316 -3.0706 -0.4909  0.3281
 4727TIP3   OH235671   0.178   4.426   1.610  0.4782  0.5154 -0.1191
 4727TIP3    H135672   0.122   4.490   1.566 -0.2547  0.5249  0.7821
 4727TIP3    H235673   0.116   4.366   1.652  1.1461 -1.1395 -1.4259
 4728TIP3   OH235674   5.860   0.691  10.928 -0.2723 -1.0632  0.0200
 4728TIP3    H135675   5.913   0.685  10.848 -0.7184 -3.2111 -0.1805
 4728TIP3    H235676   5.901   0.630  10.989 -1.1790 -1.0350  0.6782
 4729TIP3   OH235677   1.231   4.015   4.365 -0.0093 -0.4309 -0.2092
 4729TIP3    H135678   1.226   4.045   4.275 -1.9657 -2.2086 -0.7464
 4729TIP3    H235679   1.259   3.924   4.359  2.9738  0.2540  1.2208
 4730TIP3   OH235680   2.518   6.086  11.485  0.0936 -0.1835  0.6522
 4730TIP3    H135681   2.473   6.054  11.564  0.2193 -0.3045  0.6739
 4730TIP3    H235682   2.582   6.018  11.464 -1.8725 -1.5996 -1.2360
 4731TIP3   OH235683   0.489   2.174   5.080 -0.3081  0.1793 -0.0579
 4731TIP3    H135684   0.563   2.156   5.138 -0.1011  1.9423  0.2583
 4731TIP3    H235685   0.425   2.106   5.103  0.6495 -0.5158  0.6443
 4732TIP3   OH235686   2.467   6.307  14.276  0.4802 -0.8837 -0.1679
 4732TIP3    H135687   2.435   6.322  14.187  2.7494 -0.1221 -0.9355
 4732TIP3    H235688   2.462   6.212  14.288 -3.8240 -0.7681  0.6043
 4733TIP3   OH235689   1.643   2.081  13.756 -0.8612 -0.5558 -0.5343
 4733TIP3    H135690   1.551   2.060  13.741 -1.7753  0.1357  3.0196
 4733TIP3    H235691   1.660   2.156  13.699 -2.9306  0.1318 -0.3428
 4734TIP3   OH235692   1.882   6.298   5.947  0.1409  0.8063 -0.4605
 4734TIP3    H135693   1.952   6.352   5.983 -0.7406  1.1617  0.7883
 4734TIP3    H235694   1.915   6.269   5.862  2.6160 -0.6709  0.8940
 4735TIP3   OH235695   6.404   0.390  11.324  0.1173  0.0649 -0.1500
 4735TIP3    H135696   6.348   0.460  11.358  0.6789  0.0592  0.8209
 4735TIP3    H235697   6.447   0.354  11.401  1.5573  0.1497 -0.8830
 4736TIP3   OH235698   0.469   2.140   1.745 -0.2928 -0.2174  0.1379
 4736TIP3    H135699   0.448   2.224   1.705 -0.6161 -0.1683  0.3981
 4736TIP3    H235700   0.423   2.143   1.830 -2.3898 -1.6409 -0.8649
 4737TIP3   OH235701   4.661   5.977   3.636 -0.5567 -0.1868  0.0102
 4737TIP3    H135702   4.617   6.062   3.644 -0.2606  0.4548 -3.6407
 4737TIP3    H235703   4.740   5.996   3.585  1.0656 -2.2523  1.5839
 4738TIP3   OH235704   0.146   4.277   2.324  0.0595 -0.0866 -0.5420
 4738TIP3    H135705   0.127   4.356   2.274 -0.5561  1.0586  1.3995
 4738TIP3    H235706   0.229   4.296   2.368 -0.4419 -0.1781  0.4940
 4739TIP3   OH235707   3.861   6.407   0.389 -0.2640  0.5481  0.4124
 4739TIP3    H135708   3.831   6.354   0.463 -0.1051  2.0588  1.5987
 4739TIP3    H235709   3.947   6.440   0.416 -0.4865  1.6485 -0.1605
 4740TIP3   OH235710   1.519   0.495  11.299 -0.0265 -0.1041 -0.1871
 4740TIP3    H135711   1.439   0.463  11.258 -0.3222  3.0995 -2.5072
 4740TIP3    H235712   1.491   0.573  11.347  1.5351  0.5838 -0.3225
 4741TIP3   OH235713   2.396   3.812  11.386 -0.1105  0.3655  0.6468
 4741TIP3    H135714   2.480   3.818  11.341 -0.0892  2.7796  0.8958
 4741TIP3    H235715   2.401   3.876  11.457 -2.5275  1.3940 -0.0029
 4742TIP3   OH235716   0.689   6.821  12.681  0.0729  0.7903  0.0405
 4742TIP3    H135717   0.673   6.915  12.671 -2.1034  0.4214 -0.5174
 4742TIP3    H235718   0.604   6.781  12.662  0.8888 -1.2784  0.5642
 4743TIP3   OH235719   1.209   5.235   1.669  0.2633 -0.0016 -0.4086
 4743TIP3    H135720   1.301   5.210   1.682  0.2204 -0.3747 -0.7935
 4743TIP3    H235721   1.213   5.308   1.607  0.3165  0.1872 -0.1848
 4744TIP3   OH235722   3.992   5.959  17.075 -0.3632 -0.1261 -0.3749
 4744TIP3    H135723   3.900   5.986  17.063 -0.5157 -0.5718 -0.2169
 4744TIP3    H235724   4.029   6.027  17.131 -0.9705 -0.6712  0.7266
 4745TIP3   OH235725   6.712   0.099   0.938  0.1878  0.3015  0.5694
 4745TIP3    H135726   6.801   0.128   0.959  0.8349 -0.4909 -0.8701
 4745TIP3    H235727   6.655   0.163   0.979  1.4768  1.7558  0.1731
 4746TIP3   OH235728   3.073   0.796  16.029 -0.3326  0.0262 -0.0173
 4746TIP3    H135729   3.021   0.723  15.993  0.6949 -1.0635  0.6344
 4746TIP3    H235730   3.117   0.759  16.105  2.3877  0.4822 -1.2211
 4747TIP3   OH235731   3.419   5.088  16.430  0.3984  0.6347  0.5899
 4747TIP3    H135732   3.439   5.115  16.520 -1.2614  0.0565  1.1669
 4747TIP3    H235733   3.335   5.042  16.437  0.0150  0.9713 -1.3211
 4748TIP3   OH235734   3.514   0.360  15.479  0.6739  0.3458  0.1064
 4748TIP3    H135735   3.448   0.429  15.480  0.5177  0.2238  1.7639
 4748TIP3    H235736   3.597   0.407  15.492  0.8901  0.4512 -1.4798
 4749TIP3   OH235737   3.370   0.566  11.045  0.4891 -0.1306  0.6958
 4749TIP3    H135738   3.449   0.534  11.088 -0.2477 -2.1199  0.6704
 4749TIP3    H235739   3.313   0.595  11.116  0.6389 -0.1006  0.8033
 4750TIP3   OH235740   0.011   2.943   2.413 -1.0726  0.0338  0.1266
 4750TIP3    H135741  -0.021   2.875   2.354 -0.2065 -0.2821  0.0146
 4750TIP3    H235742   0.089   2.906   2.453  0.5813  1.6530 -1.4062
 4751TIP3   OH235743   1.484   5.744  14.021  0.6520 -0.5577  0.1462
 4751TIP3    H135744   1.427   5.669  14.006  1.0039 -0.2459 -3.8053
 4751TIP3    H235745   1.433   5.801  14.078 -3.3445 -0.2341 -3.2216
 4752TIP3   OH235746   0.970   5.930  10.852  0.0785  0.0622  0.2004
 4752TIP3    H135747   0.995   5.843  10.823 -0.7252 -0.5661  1.2846
 4752TIP3    H235748   0.874   5.931  10.847  0.0176  0.5071  1.1628
 4753TIP3   OH235749   1.756   4.261   6.370  0.0718  0.1911  0.1611
 4753TIP3    H135750   1.825   4.233   6.311 -0.6826 -0.9533 -0.2117
 4753TIP3    H235751   1.787   4.236   6.457 -0.2945 -1.2382 -0.1025
 4754TIP3   OH235752   0.541   2.666   2.667 -0.8795 -0.0532  0.0289
 4754TIP3    H135753   0.502   2.739   2.619  0.4229  0.3798 -0.3972
 4754TIP3    H235754   0.631   2.692   2.683 -0.7883 -0.9627  1.1569
 4755TIP3   OH235755   4.290   1.543   5.623 -0.4646 -0.7494  0.1548
 4755TIP3    H135756   4.204   1.551   5.583 -0.4864 -1.2986  0.0871
 4755TIP3    H235757   4.351   1.572   5.555 -0.4919 -1.7933 -0.3338
 4756TIP3   OH235758   3.196   5.179   5.561 -0.1243  0.1048  0.2497
 4756TIP3    H135759   3.138   5.133   5.621 -0.6753  0.9209  0.3575
 4756TIP3    H235760   3.276   5.195   5.613 -0.4339  0.4309  0.6316
 4757TIP3   OH235761   1.917   2.029  17.167 -0.1351 -0.1069 -0.2084
 4757TIP3    H135762   1.879   2.116  17.176 -0.2694 -0.3176  1.5916
 4757TIP3    H235763   2.008   2.039  17.195 -0.7200 -0.9260  2.2771
 4758TIP3   OH235764   0.364   3.294   5.338 -0.3720 -0.5588  0.0818
 4758TIP3    H135765   0.306   3.370   5.329 -0.2604 -0.5206 -0.3030
 4758TIP3    H235766   0.343   3.238   5.264  1.8112  0.6002 -1.5205
 4759TIP3   OH235767   0.341   2.717  15.887  0.2452  0.0501  0.6287
 4759TIP3    H135768   0.271   2.668  15.845 -0.5320 -0.1077  2.0445
 4759TIP3    H235769   0.415   2.710  15.826 -0.4341 -1.2518 -0.0958
 4760TIP3   OH235770   6.353   4.072  11.043 -0.3821 -0.2810  0.1002
 4760TIP3    H135771   6.445   4.047  11.028  0.2178  0.5052  2.1476
 4760TIP3    H235772   6.345   4.158  11.003  0.9361  1.3905  3.1130
 4761TIP3   OH235773   5.542   4.201  15.979  0.3633 -0.0883 -0.3588
 4761TIP3    H135774   5.490   4.190  15.899  0.4844  1.7481 -0.7254
 4761TIP3    H235775   5.630   4.174  15.953  0.5544  1.1406 -1.0849
 4762TIP3   OH235776   4.655   1.273  13.797 -0.1489  0.4369  0.2086
 4762TIP3    H135777   4.721   1.327  13.841  1.0981  1.5284 -2.7646
 4762TIP3    H235778   4.705   1.207  13.750 -1.2170  0.5221 -1.1222
 4763TIP3   OH235779   1.557   6.442  14.272  0.3487  0.4282 -0.0677
 4763TIP3    H135780   1.598   6.447  14.358  0.3140  2.4680 -0.1177
 4763TIP3    H235781   1.592   6.362  14.233 -0.5153 -1.1708  2.2330
 4764TIP3   OH235782   5.258   6.009   6.817  0.0410 -0.3209 -0.0605
 4764TIP3    H135783   5.330   5.979   6.873 -0.2779  0.1265  0.6023
 4764TIP3    H235784   5.277   6.102   6.802  0.5005 -0.5919 -1.2882
 4765TIP3   OH235785   1.592   1.845   4.262  0.3680 -0.1216  0.0247
 4765TIP3    H135786   1.537   1.790   4.207  0.3500 -0.8379  0.7520
 4765TIP3    H235787   1.641   1.784   4.318  0.1441  0.5930  1.0358
 4766TIP3   OH235788   0.031   2.932  15.294  0.3461 -0.6775 -0.4200
 4766TIP3    H135789   0.025   2.862  15.229  0.9425 -1.0487 -0.0867
 4766TIP3    H235790   0.094   2.899  15.359 -0.5101 -0.4699  0.5391
 4767TIP3   OH235791   5.069   0.375  10.851 -0.3528 -0.5150 -0.1495
 4767TIP3    H135792   5.121   0.315  10.798  2.9559  1.7050  0.3204
 4767TIP3    H235793   5.038   0.441  10.789 -0.7985 -0.6467 -0.0720
 4768TIP3   OH235794   0.755   2.730  14.316  0.0160 -0.3394  0.8787
 4768TIP3    H135795   0.756   2.709  14.223 -2.4144  0.1521  0.6959
 4768TIP3    H235796   0.800   2.814  14.322  0.1920 -0.3749  0.1760
 4769TIP3   OH235797   5.449   1.960  17.141 -0.5319  0.4887 -0.3301
 4769TIP3    H135798   5.489   2.047  17.140  0.8345 -0.0390  1.6542
 4769TIP3    H235799   5.500   1.909  17.078  1.4942  0.0803  1.5057
 4770TIP3   OH235800   3.956   3.213  12.206 -0.3212 -0.9053 -0.1191
 4770TIP3    H135801   3.887   3.199  12.142 -2.0994 -0.8499  1.6899
 4770TIP3    H235802   3.994   3.298  12.183 -1.9757 -0.1473 -0.2066
 4771TIP3   OH235803   5.230   6.116   0.326  0.0851 -0.0699 -0.6768
 4771TIP3    H135804   5.292   6.045   0.309 -1.0971 -1.3663  0.1781
 4771TIP3    H235805   5.172   6.081   0.394 -0.7621  1.5955 -0.4891
 4772TIP3   OH235806   0.335   3.731  16.270  0.4238 -0.2550  0.0277
 4772TIP3    H135807   0.304   3.784  16.197 -0.0607 -2.1630 -1.2157
 4772TIP3    H235808   0.393   3.666  16.229 -0.6749 -2.0193  1.1673
 4773TIP3   OH235809   1.983   0.713   1.019  0.1231 -0.0006 -0.2390
 4773TIP3    H135810   2.027   0.760   0.948  0.8933  0.9452  0.8231
 4773TIP3    H235811   1.892   0.744   1.015  0.1594  0.0375 -0.8121
 4774TIP3   OH235812   4.362   0.001   2.303 -0.6884  0.6194 -0.4971
 4774TIP3    H135813   4.384   0.066   2.236 -0.9144  3.2105  1.7783
 4774TIP3    H235814   4.368  -0.083   2.257  1.2346  2.0657 -3.1972
 4775TIP3   OH235815   0.984   2.222   6.661  0.4321  0.8204  0.2484
 4775TIP3    H135816   0.954   2.142   6.706  0.6240  0.4154 -0.3294
 4775TIP3    H235817   0.981   2.199   6.568  0.2274  1.5840  0.0622
 4776TIP3   OH235818   0.930   0.228   2.496 -0.0820 -0.6897  0.5810
 4776TIP3    H135819   0.855   0.288   2.492 -0.0472 -0.5881  1.2940
 4776TIP3    H235820   0.902   0.152   2.445  0.6062  0.6839 -2.0072
 4777TIP3   OH235821   2.797   6.348   1.743  0.1071 -0.0330 -0.2126
 4777TIP3    H135822   2.738   6.304   1.803 -1.3516  1.5378 -0.4343
 4777TIP3    H235823   2.846   6.277   1.701 -1.0978 -1.3268  0.4952
 4778TIP3   OH235824   6.080   2.257   5.672 -0.5110  0.3320 -0.8672
 4778TIP3    H135825   6.002   2.216   5.635 -0.1443 -1.1371 -0.0797
 4778TIP3    H235826   6.122   2.300   5.597 -1.3610 -0.0209 -1.5628
 4779TIP3   OH235827   2.439   0.964   3.008  0.3590 -0.4877 -0.1426
 4779TIP3    H135828   2.466   1.038   2.953  1.0983  1.1662  2.2639
 4779TIP3    H235829   2.452   0.995   3.098 -1.5972 -2.7166  1.0312
 4780TIP3   OH235830   4.545   2.649   4.176  0.1227 -0.0759 -0.1207
 4780TIP3    H135831   4.498   2.696   4.245  0.6783 -0.2421  0.3834
 4780TIP3    H235832   4.632   2.633   4.213 -0.0812 -1.5780 -0.2401
 4781TIP3   OH235833   2.639   5.354   1.068  0.2148  0.4191  0.1290
 4781TIP3    H135834   2.715   5.313   1.027 -1.9586 -0.9905 -2.7833
 4781TIP3    H235835   2.661   5.447   1.071  1.8670  0.1050 -1.0253
 4782TIP3   OH235836   1.837   2.635  13.336  0.3113 -0.1032 -0.7026
 4782TIP3    H135837   1.831   2.624  13.242  0.6337 -0.1667 -0.7168
 4782TIP3    H235838   1.748   2.653  13.364  0.5099  2.0517 -1.2980
 4783TIP3   OH235839   3.448   5.602  14.251  1.0299 -0.3440  0.0321
 4783TIP3    H135840   3.361   5.631  14.277  0.8758  1.7986 -2.5579
 4783TIP3    H235841   3.434   5.518  14.206  0.8921 -2.0793  3.0068
 4784TIP3   OH235842   6.345   6.532   2.869  0.0409 -0.2723  0.5434
 4784TIP3    H135843   6.326   6.626   2.869  1.1167  0.0037  2.4355
 4784TIP3    H235844   6.440   6.527   2.871  0.0456 -1.4697 -0.9918
 4785TIP3   OH235845   0.646   4.528   6.222 -0.2840 -0.6080 -0.8104
 4785TIP3    H135846   0.559   4.506   6.255 -0.2380  0.5233  0.0953
 4785TIP3    H235847   0.657   4.621   6.242  0.9769 -0.6443 -1.2657
 4786TIP3   OH235848   2.205   5.345   0.357 -0.1230 -0.1996  0.2513
 4786TIP3    H135849   2.127   5.337   0.301  0.1313 -0.8851 -0.0194
 4786TIP3    H235850   2.245   5.427   0.329 -1.5083  0.9220  1.3948
 4787TIP3   OH235851   2.026   2.647   4.878 -0.2951  0.0587 -0.3432
 4787TIP3    H135852   2.108   2.681   4.913 -0.4182 -0.7427  0.7772
 4787TIP3    H235853   2.028   2.553   4.898 -1.3731 -0.0158 -0.5061
 4788TIP3   OH235854   0.678   1.897  10.720  0.0167 -0.7429  0.0162
 4788TIP3    H135855   0.757   1.870  10.673  0.0671 -0.2962 -0.1570
 4788TIP3    H235856   0.668   1.990  10.699 -0.0871 -0.5969  0.7061
 4789TIP3   OH235857   4.508   4.913  13.723  0.2017 -0.0189  0.2798
 4789TIP3    H135858   4.438   4.978  13.723 -0.9242 -1.1286 -1.8786
 4789TIP3    H235859   4.515   4.887  13.815 -1.0918  1.2892  0.7986
 4790TIP3   OH235860   2.369   2.568   0.455  0.0122 -0.2942  0.4735
 4790TIP3    H135861   2.341   2.644   0.506 -0.2429 -0.3955  0.4876
 4790TIP3    H235862   2.464   2.562   0.469  0.0159 -0.0375  0.5507
 4791TIP3   OH235863   3.467   0.543   2.387  0.7502  0.6257  0.0312
 4791TIP3    H135864   3.547   0.490   2.379  1.7003  1.9973  0.1548
 4791TIP3    H235865   3.498   0.633   2.393 -0.7875  1.1444  0.7177
 4792TIP3   OH235866   1.207   3.934   2.100 -0.4598  0.4357  0.7349
 4792TIP3    H135867   1.133   3.994   2.100  0.9487  2.2985  1.3135
 4792TIP3    H235868   1.276   3.982   2.053  0.7121 -0.7813  1.1371
 4793TIP3   OH235869   5.349   4.646  13.585  0.1201 -0.0459 -0.4539
 4793TIP3    H135870   5.427   4.643  13.639  1.4361 -0.3478 -2.2714
 4793TIP3    H235871   5.327   4.739  13.580  1.1638  0.1869 -0.9864
 4794TIP3   OH235872   3.803   6.022  14.475 -0.2637  0.0004  0.5157
 4794TIP3    H135873   3.796   6.081  14.550 -1.2796  1.4601 -0.6655
 4794TIP3    H235874   3.727   5.964  14.483  1.2092 -1.8318  2.1620
 4795TIP3   OH235875   2.348   0.970  16.303 -0.3563  0.5271  0.2602
 4795TIP3    H135876   2.408   1.040  16.276 -1.5583  1.3450 -0.4047
 4795TIP3    H235877   2.281   0.969  16.235 -0.6886 -0.9086  0.5648
 4796TIP3   OH235878   5.874   5.652  15.974  0.2509 -0.5397  0.2279
 4796TIP3    H135879   5.960   5.612  15.982  1.3047  0.9539 -2.4395
 4796TIP3    H235880   5.824   5.592  15.919  0.1855 -0.5225  0.2675
 4797TIP3   OH235881   2.238   1.831   4.850  0.1805 -0.4229  0.3462
 4797TIP3    H135882   2.320   1.877   4.871  1.4141 -1.5936 -1.4942
 4797TIP3    H235883   2.251   1.801   4.759 -2.5778 -0.1075 -0.2296
 4798TIP3   OH235884   0.888   4.503   1.756  0.4234  0.4048  0.6050
 4798TIP3    H135885   0.969   4.546   1.786  0.3841  1.6916 -0.9679
 4798TIP3    H235886   0.854   4.459   1.833  0.9309  2.5450  2.1610
 4799TIP3   OH235887   0.388   1.125   3.725 -0.1819 -0.0427 -0.1289
 4799TIP3    H135888   0.483   1.116   3.730  0.0326  1.9257  0.4875
 4799TIP3    H235889   0.362   1.154   3.812 -1.1687  0.6224 -0.6175
 4800TIP3   OH235890   5.531   3.239  11.557  1.1431  0.5290 -0.2785
 4800TIP3    H135891   5.490   3.207  11.637  0.3476 -0.0212 -0.8917
 4800TIP3    H235892   5.494   3.326  11.544 -1.3569 -0.6332 -1.8074
 4801TIP3   OH235893   5.841   3.066   3.222 -0.1394 -0.2242  0.1770
 4801TIP3    H135894   5.933   3.042   3.206 -0.1180  1.0599 -2.1145
 4801TIP3    H235895   5.835   3.077   3.317  2.6539  1.6742  0.2537
 4802TIP3   OH235896   4.420   3.974  16.263  0.0888  0.4172 -0.2249
 4802TIP3    H135897   4.389   4.045  16.318 -0.6707  2.0200 -2.5701
 4802TIP3    H235898   4.486   4.014  16.206 -0.4449 -0.6769 -1.6843
 4803TIP3   OH235899   0.091   1.091  14.301  0.3728 -0.1665 -0.0395
 4803TIP3    H135900   0.060   1.145  14.228  2.1892 -0.5772 -1.1787
 4803TIP3    H235901   0.047   1.007  14.289 -0.1507  0.1062 -0.0325
 4804TIP3   OH235902   5.390   3.615  11.683  0.0134 -0.2697 -0.3506
 4804TIP3    H135903   5.395   3.535  11.736 -0.4733  0.9405  1.6499
 4804TIP3    H235904   5.310   3.658  11.712  0.6777  1.3294 -0.7817
 4805TIP3   OH235905   6.663   1.226  11.180  0.4904  0.4650 -0.2333
 4805TIP3    H135906   6.741   1.189  11.221  0.9622 -1.1250 -2.4192
 4805TIP3    H235907   6.661   1.317  11.211  2.8613  0.3927  0.3540
 4806TIP3   OH235908   4.831   2.022   5.540  0.2177 -0.0442  0.2349
 4806TIP3    H135909   4.788   2.043   5.457 -1.1767  0.5512  1.0706
 4806TIP3    H235910   4.877   1.940   5.523 -0.1931 -0.0308 -1.0660
 4807TIP3   OH235911   0.545   6.422  15.615 -0.6686 -1.0318 -0.4145
 4807TIP3    H135912   0.591   6.474  15.550 -1.4721 -2.4865 -2.2232
 4807TIP3    H235913   0.614   6.388  15.673 -0.0692  1.3294  0.3634
 4808TIP3   OH235914   0.257   1.805  13.637  0.3434  0.0957 -0.4425
 4808TIP3    H135915   0.260   1.715  13.669 -2.0202 -0.1822 -0.7942
 4808TIP3    H235916   0.218   1.855  13.709  0.3760  0.5791 -0.7520
 4809TIP3   OH235917   5.918   2.970   0.816  0.7495 -0.2127 -0.4570
 4809TIP3    H135918   5.937   3.051   0.864  1.8059  0.4285 -1.8842
 4809TIP3    H235919   5.868   3.000   0.740 -1.0030 -1.2277  0.2286
 4810TIP3   OH235920   4.191   1.039  13.443 -0.2196 -0.3101  0.0135
 4810TIP3    H135921   4.126   1.079  13.501  1.8343  0.4606  1.9577
 4810TIP3    H235922   4.174   1.078  13.358  0.2454  3.1507  1.3460
 4811TIP3   OH235923   5.654   2.128   1.315  0.1358  0.1015  0.1543
 4811TIP3    H135924   5.665   2.087   1.229 -4.3779 -1.2957 -0.0223
 4811TIP3    H235925   5.675   2.058   1.377 -2.6240 -1.0311 -0.0621
 4812TIP3   OH235926   2.581   0.972  15.645 -0.1367  0.4469  0.0304
 4812TIP3    H135927   2.674   0.951  15.635  0.2315  1.0573  1.7087
 4812TIP3    H235928   2.548   0.982  15.556  2.1963  3.5138 -0.6350
 4813TIP3   OH235929   1.681   2.360  12.601  0.3829 -0.2715 -0.4450
 4813TIP3    H135930   1.757   2.360  12.543 -0.3165 -1.9819 -1.4620
 4813TIP3    H235931   1.626   2.432  12.569 -0.0998 -1.3343 -2.1266
 4814TIP3   OH235932   5.229   4.098   5.939  0.2597 -0.1439 -0.5411
 4814TIP3    H135933   5.188   4.096   6.025  0.4720  1.2551 -0.3878
 4814TIP3    H235934   5.156   4.099   5.877 -0.0408  2.6466 -0.2624
 4815TIP3   OH235935   1.385   4.141  12.895 -0.3730  0.2278 -0.7073
 4815TIP3    H135936   1.303   4.099  12.873  0.1256 -1.4014  0.3860
 4815TIP3    H235937   1.362   4.206  12.962 -0.8279  0.1075 -0.7475
 4816TIP3   OH235938   0.405   5.314  15.662  0.7032 -0.4083  0.2898
 4816TIP3    H135939   0.357   5.336  15.582 -1.6173  0.3309  1.7943
 4816TIP3    H235940   0.443   5.228  15.644  1.5669  0.3639 -2.1092
 4817TIP3   OH235941   0.916   3.926   0.524  0.1570  0.0076 -0.6489
 4817TIP3    H135942   0.916   3.868   0.600 -0.9522 -0.1882 -0.7838
 4817TIP3    H235943   0.824   3.935   0.501  0.5235 -0.5099 -2.4111
 4818TIP3   OH235944   2.407   6.039  13.528  0.2011  0.2182 -0.2462
 4818TIP3    H135945   2.463   6.075  13.597  0.2753  2.8840 -1.5533
 4818TIP3    H235946   2.459   6.047  13.448 -1.6474  1.9794 -1.3593
 4819TIP3   OH235947   5.857   0.807  16.312 -0.1456  0.1346  0.3103
 4819TIP3    H135948   5.818   0.757  16.384  1.1991  1.3753  2.0137
 4819TIP3    H235949   5.938   0.761  16.291 -1.1048 -0.8993 -1.3107
 4820TIP3   OH235950   1.609   5.972   2.886  0.6110  0.8659  0.3884
 4820TIP3    H135951   1.575   5.888   2.855  0.7220  1.2067 -0.7061
 4820TIP3    H235952   1.636   5.955   2.976 -0.5874  0.0777  0.6157
 4821TIP3   OH235953   1.192   2.782  16.410 -0.4202  0.8905 -0.1083
 4821TIP3    H135954   1.223   2.872  16.421 -2.2419  1.6863 -1.0891
 4821TIP3    H235955   1.160   2.757  16.496  1.5142  0.5689  0.5638
 4822TIP3   OH235956   0.686   1.118  15.578 -0.4088  0.4718 -0.1148
 4822TIP3    H135957   0.734   1.039  15.554  1.6573  1.6089  0.0777
 4822TIP3    H235958   0.675   1.112  15.673 -0.2835  0.4133 -0.1052
 4823TIP3   OH235959   4.371   0.616   2.011 -0.0555  0.0591 -0.7927
 4823TIP3    H135960   4.427   0.689   1.987  1.4336 -1.0092 -0.7002
 4823TIP3    H235961   4.431   0.545   2.034 -1.4355 -0.8692  0.1902
 4824TIP3   OH235962   4.092   2.278  14.716 -0.0383 -0.1425  0.3319
 4824TIP3    H135963   4.026   2.210  14.727 -1.4396  0.9478 -0.9890
 4824TIP3    H235964   4.059   2.352  14.766 -0.0120  0.5306 -0.6207
 4825TIP3   OH235965   1.659   6.119  16.319 -0.7651  0.1597  0.0202
 4825TIP3    H135966   1.618   6.165  16.392 -0.6769  0.4007 -0.0818
 4825TIP3    H235967   1.591   6.059  16.287 -0.1037 -1.6009  1.7372
 4826TIP3   OH235968   6.624   5.488   5.002  0.3705 -0.3009  0.2030
 4826TIP3    H135969   6.618   5.582   5.019 -0.9050 -0.2021 -0.6826
 4826TIP3    H235970   6.696   5.479   4.940  2.0867 -0.1981  2.0743
 4827TIP3   OH235971   0.618   0.078   0.950 -0.3364 -0.6920 -0.0234
 4827TIP3    H135972   0.572   0.030   1.019  0.1299 -2.4259 -0.8606
 4827TIP3    H235973   0.550   0.129   0.907 -1.1985 -1.9292 -0.1889
 4828TIP3   OH235974   2.387   1.751  14.705 -0.3519 -0.4763 -0.0707
 4828TIP3    H135975   2.452   1.705  14.652 -0.2224 -0.1393 -0.2081
 4828TIP3    H235976   2.303   1.719  14.674 -0.2628 -0.5827 -0.2022
 4829TIP3   OH235977   2.947   5.580   1.371  0.1469 -0.1453  0.4042
 4829TIP3    H135978   2.857   5.561   1.397 -0.2629  1.5956  0.3454
 4829TIP3    H235979   2.996   5.584   1.453  0.3350 -1.7569  0.3971
 4830TIP3   OH235980   4.925   3.474  13.868 -0.0018  0.4731  0.5810
 4830TIP3    H135981   4.886   3.560  13.880 -0.7975  0.2253 -0.1410
 4830TIP3    H235982   4.889   3.421  13.938 -0.4159  0.4323  0.3399
 4831TIP3   OH235983   1.987   3.377   3.354 -0.6603 -0.7930 -0.6168
 4831TIP3    H135984   2.057   3.381   3.289 -0.2009  0.5733 -0.0813
 4831TIP3    H235985   2.031   3.351   3.435 -0.6561  0.5566 -0.1651
 4832TIP3   OH235986   3.324   1.121  10.964 -0.3821  0.0332  0.5429
 4832TIP3    H135987   3.284   1.072  10.892  0.0549 -0.9799  0.9700
 4832TIP3    H235988   3.250   1.151  11.017 -0.6280 -1.3980  1.0555
 4833TIP3   OH235989   3.858   1.895   3.826  0.1147 -0.3570 -0.2674
 4833TIP3    H135990   3.777   1.938   3.854  1.0101  2.1621 -1.3219
 4833TIP3    H235991   3.918   1.908   3.899  0.6079  0.8631 -0.8781
 4834TIP3   OH235992   0.104   2.923   5.677 -0.9300  0.0577  0.0784
 4834TIP3    H135993   0.143   2.987   5.617 -0.6115 -0.7183 -0.5645
 4834TIP3    H235994   0.030   2.887   5.629 -0.5530 -0.7175  0.0577
 4835TIP3   OH235995   5.167   6.056   1.378 -0.0638 -0.8294  0.4485
 4835TIP3    H135996   5.207   6.117   1.440  0.8916  0.4811 -1.3708
 4835TIP3    H235997   5.222   5.978   1.382  2.2061  0.5676 -1.2781
 4836TIP3   OH235998   6.754   5.332  12.077 -0.1195  0.7606 -0.1536
 4836TIP3    H135999   6.842   5.332  12.116  0.2205 -1.4125 -0.8116
 4836TIP3    H236000   6.695   5.333  12.152  0.5255 -2.1141  0.5056
 4837TIP3   OH236001   4.423   1.372  11.111  0.0534  0.6303  0.4104
 4837TIP3    H136002   4.427   1.464  11.137  1.1068  1.5019 -2.4664
 4837TIP3    H236003   4.334   1.345  11.131 -0.2434  2.2178  1.4087
 4838TIP3   OH236004   2.053   0.181  13.361  0.7265  0.4153  0.3986
 4838TIP3    H136005   1.962   0.211  13.372  0.5227 -0.6699  2.2236
 4838TIP3    H236006   2.069   0.186  13.267 -2.0168 -1.4304 -0.2985
 4839TIP3   OH236007   3.079   0.773  15.478 -0.4438  0.6985  0.0208
 4839TIP3    H136008   3.167   0.736  15.480 -1.1185 -1.0404 -0.3388
 4839TIP3    H236009   3.059   0.783  15.385 -1.5508 -1.3788 -0.0166
 4840TIP3   OH236010   6.029   1.571  12.928 -0.6079  0.1426  0.1933
 4840TIP3    H136011   6.118   1.584  12.960 -0.9510  0.9448  0.8708
 4840TIP3    H236012   5.981   1.536  13.003 -1.2590  1.3848  0.3934
 4841TIP3   OH236013   3.168   5.770   4.305 -0.3214 -0.6669  0.0235
 4841TIP3    H136014   3.256   5.779   4.342 -0.0542 -1.8847 -0.2861
 4841TIP3    H236015   3.119   5.843   4.343  0.6139 -0.4247  0.8110
 4842TIP3   OH236016   5.384   2.571  12.425 -0.1888  0.4894 -0.3082
 4842TIP3    H136017   5.312   2.522  12.466  0.6093 -0.8290 -0.4230
 4842TIP3    H236018   5.431   2.610  12.498  0.7470 -1.1721  0.0237
 4843TIP3   OH236019   1.506   1.594   3.607 -0.3607 -0.5603 -0.0833
 4843TIP3    H136020   1.441   1.612   3.675  0.1579 -0.1642  0.3223
 4843TIP3    H236021   1.586   1.636   3.640  0.1206 -1.1236 -0.5270
 4844TIP3   OH236022   2.833   6.526  15.715  0.2236 -0.2339  0.2090
 4844TIP3    H136023   2.782   6.558  15.641  0.9369  1.5140  0.4204
 4844TIP3    H236024   2.860   6.606  15.761  2.4264 -1.1333  0.5775
 4845TIP3   OH236025   1.069   6.770   0.432  0.5337  0.1742 -0.1899
 4845TIP3    H136026   1.062   6.759   0.527  0.2283 -1.1815 -0.3542
 4845TIP3    H236027   1.163   6.781   0.416  0.5612  0.7242  0.2845
 4846TIP3   OH236028   2.937   3.632   5.861 -0.4329  0.4839 -1.0955
 4846TIP3    H136029   2.994   3.674   5.926 -0.2956 -0.0641 -0.8582
 4846TIP3    H236030   2.852   3.627   5.903 -0.1205 -0.7589 -0.5596
 4847TIP3   OH236031   6.506   0.644   3.352 -0.3241 -0.0201 -0.1680
 4847TIP3    H136032   6.463   0.562   3.374  0.9354  0.2022  3.8591
 4847TIP3    H236033   6.434   0.707   3.341 -1.2081 -0.6433  1.6952
 4848TIP3   OH236034   1.713   3.389   1.171 -0.4278  0.2499  0.0284
 4848TIP3    H136035   1.631   3.396   1.122  0.5779  0.2521 -1.7083
 4848TIP3    H236036   1.714   3.299   1.203 -1.7156  0.6311  1.2187
 4849TIP3   OH236037   0.985   0.757  14.402  0.0818 -0.2316 -0.3961
 4849TIP3    H136038   0.920   0.713  14.457  0.1531  0.1150 -0.0299
 4849TIP3    H236039   0.967   0.850  14.413  1.0221 -0.0993  0.2042
 4850TIP3   OH236040   2.482   3.404   1.877 -0.8386 -0.6952 -0.3447
 4850TIP3    H136041   2.571   3.422   1.848 -1.1224  1.5546 -0.0779
 4850TIP3    H236042   2.492   3.345   1.951  0.6238  0.8589  0.7970
 4851TIP3   OH236043   6.311   6.801  14.856  0.0419  0.0055  0.4183
 4851TIP3    H136044   6.403   6.775  14.854  0.0914  0.1963 -0.9320
 4851TIP3    H236045   6.312   6.895  14.836 -0.5446 -0.4131 -1.8434
 4852TIP3   OH236046   2.887   0.088  13.686 -0.6573 -0.0910 -0.3006
 4852TIP3    H136047   2.939   0.069  13.764  0.5274  1.0820 -0.7536
 4852TIP3    H236048   2.808   0.130  13.718 -1.3033 -1.7609  0.3965
 4853TIP3   OH236049   3.527   5.951  11.713 -0.1517  0.2364  0.2007
 4853TIP3    H136050   3.478   6.004  11.776 -2.6412 -1.2641 -0.3286
 4853TIP3    H236051   3.606   5.926  11.760 -0.6714  1.3321  1.7737
 4854TIP3   OH236052   4.335   6.126   4.152 -0.4356 -0.1061  0.7333
 4854TIP3    H136053   4.271   6.101   4.085 -0.2393 -3.5834  1.6588
 4854TIP3    H236054   4.419   6.127   4.105 -0.4604 -1.2787  0.6375
 4855TIP3   OH236055   5.699   5.936  14.308 -0.8060  0.8773  0.0914
 4855TIP3    H136056   5.631   5.999  14.332 -2.2851 -0.3248 -0.7301
 4855TIP3    H236057   5.666   5.895  14.228  1.7906  1.5464 -1.4527
 4856TIP3   OH236058   4.844   5.276   3.028 -0.2987  0.2972 -0.2351
 4856TIP3    H136059   4.783   5.296   3.099 -1.0461  0.2795 -0.8666
 4856TIP3    H236060   4.903   5.210   3.066  0.1321  1.2329  0.7886
 4857TIP3   OH236061   2.648   6.744   3.035  0.0761 -0.0923 -0.1047
 4857TIP3    H136062   2.582   6.780   3.094  0.4438 -0.3892  0.5059
 4857TIP3    H236063   2.641   6.649   3.046 -0.5656 -0.2133 -1.3456
 4858TIP3   OH236064   0.230   5.302  14.814 -0.1153  0.0880 -0.0167
 4858TIP3    H136065   0.254   5.236  14.749 -0.5507 -0.1059  0.0112
 4858TIP3    H236066   0.147   5.270  14.850 -0.1120  0.4331  0.3021
 4859TIP3   OH236067   0.684   0.470   2.765  0.0089  0.8646 -0.0154
 4859TIP3    H136068   0.671   0.390   2.816  0.1290  1.9313  1.8184
 4859TIP3    H236069   0.780   0.477   2.757  0.0617  1.3596  0.8261
 4860TIP3   OH236070   5.259   2.254  14.674  0.2501 -0.0734 -0.0723
 4860TIP3    H136071   5.246   2.340  14.633 -0.5662 -0.4699 -0.6888
 4860TIP3    H236072   5.239   2.268  14.767 -0.4828  0.2806 -0.2746
 4861TIP3   OH236073   3.248   1.894   4.493 -0.4517  0.3455  0.6841
 4861TIP3    H136074   3.184   1.851   4.549  0.4158 -0.5393  1.0051
 4861TIP3    H236075   3.288   1.824   4.442 -1.1959  1.1134 -1.0545
 4862TIP3   OH236076   4.349   1.965   4.141  0.1112  0.0297  0.4715
 4862TIP3    H136077   4.256   1.969   4.119 -0.0210  2.7095  1.1899
 4862TIP3    H236078   4.394   1.970   4.056 -0.4088  0.9091  0.2417
 4863TIP3   OH236079   1.518   4.165   3.393  0.7656  0.0630  0.1651
 4863TIP3    H136080   1.590   4.201   3.444  1.0246  0.6839 -0.6071
 4863TIP3    H236081   1.553   4.084   3.355  1.5233  0.9997 -1.2376
 4864TIP3   OH236082   0.116   2.569   4.700 -0.1946 -0.1363 -0.2112
 4864TIP3    H136083   0.171   2.567   4.779  2.4226 -0.3515 -1.9232
 4864TIP3    H236084   0.131   2.485   4.658 -0.8649  0.3140 -1.4070
 4865TIP3   OH236085   6.423   0.550  17.066  0.2315 -0.1905  0.4041
 4865TIP3    H136086   6.472   0.529  17.146  1.3665 -0.7348 -0.4001
 4865TIP3    H236087   6.430   0.645  17.056  0.6853 -0.2062  0.5783
 4866TIP3   OH236088   6.790   3.373  14.750  0.0669  0.6268 -0.3879
 4866TIP3    H136089   6.808   3.433  14.822  1.1179  0.3701 -0.4207
 4866TIP3    H236090   6.825   3.289  14.780  4.8442  1.3953 -2.8872
 4867TIP3   OH236091   5.940   4.882  10.951  0.9105  0.3473 -0.3529
 4867TIP3    H136092   5.882   4.955  10.973  0.2583  0.4952 -2.2998
 4867TIP3    H236093   5.885   4.804  10.963  0.5816  0.4225 -1.2672
 4868TIP3   OH236094   0.016   6.005  14.579 -0.0753  0.1905  0.1777
 4868TIP3    H136095   0.103   6.007  14.539  0.4771 -1.0026  1.2738
 4868TIP3    H236096  -0.034   6.069  14.528  2.1301  2.9286  1.2020
 4869TIP3   OH236097   0.959   2.626  15.979  0.0406 -0.5611 -0.1998
 4869TIP3    H136098   0.942   2.717  15.953 -1.3555 -1.0120 -0.9407
 4869TIP3    H236099   0.958   2.628  16.074 -1.7359 -0.0729 -0.1938
 4870TIP3   OH236100   0.488   5.813   0.822 -0.4865 -0.0514  0.3568
 4870TIP3    H136101   0.534   5.752   0.879 -0.3250 -0.7996 -0.5417
 4870TIP3    H236102   0.423   5.759   0.776  2.1461 -0.4631 -3.2749
 4871TIP3   OH236103   1.836   1.796   2.744  0.3719 -0.5737  0.1023
 4871TIP3    H136104   1.828   1.717   2.691  2.3038 -0.2841 -0.6912
 4871TIP3    H236105   1.779   1.780   2.820 -2.7937 -0.8356 -2.1561
 4872TIP3   OH236106   1.435   1.561  11.358 -0.2266  0.0896 -0.0723
 4872TIP3    H136107   1.381   1.556  11.437 -1.7177 -1.1515 -1.1064
 4872TIP3    H236108   1.511   1.613  11.384 -1.6895  1.5233  1.5621
 4873TIP3   OH236109   2.073   0.480   5.522  0.1548 -0.7189  0.4959
 4873TIP3    H136110   2.108   0.399   5.485 -0.2017 -1.5825  1.9530
 4873TIP3    H236111   1.980   0.479   5.497  0.1923 -0.6651  0.3541
 4874TIP3   OH236112   0.705   5.130  12.304 -0.0465 -0.2385 -0.4660
 4874TIP3    H136113   0.743   5.051  12.266  0.9941 -0.9186  1.8242
 4874TIP3    H236114   0.779   5.176  12.343 -0.8784  1.0648 -0.3566
 4875TIP3   OH236115   4.386   3.857  15.398  0.0715  0.0369  0.6057
 4875TIP3    H136116   4.424   3.785  15.448  0.1637  0.1101  0.6395
 4875TIP3    H236117   4.338   3.909  15.462 -2.3535 -1.5286  0.1975
 4876TIP3   OH236118   0.986   4.066  17.191  0.0469 -0.0935 -0.1214
 4876TIP3    H136119   0.930   4.044  17.265 -1.1468  2.0584 -0.2920
 4876TIP3    H236120   0.948   4.147  17.156  1.2196 -0.4609 -2.4247
 4877TIP3   OH236121   6.102   4.768  14.238 -0.2879 -0.1201  0.4095
 4877TIP3    H136122   6.108   4.849  14.187 -0.7853  0.2836  0.9771
 4877TIP3    H236123   6.178   4.771  14.297  0.0795 -0.4063 -0.0460
 4878TIP3   OH236124   2.973   5.305  12.015  0.3255 -0.9851 -0.0441
 4878TIP3    H136125   2.973   5.221  11.970  0.6254  0.6098 -3.3231
 4878TIP3    H236126   2.917   5.361  11.961  2.3857  1.6692  0.3480
 4879TIP3   OH236127   6.015   4.229  15.919  0.1284  0.0102  0.7536
 4879TIP3    H136128   6.040   4.313  15.879  3.3432 -1.7650 -1.3365
 4879TIP3    H236129   6.077   4.217  15.991  0.7338 -1.2358  0.0457
 4880TIP3   OH236130   4.723   4.693   0.308  0.2520 -0.1291  0.4063
 4880TIP3    H136131   4.767   4.763   0.260  0.7306 -0.2353  0.6792
 4880TIP3    H236132   4.705   4.626   0.242  0.1104  0.0986  0.2122
 4881TIP3   OH236133   2.847   4.062   5.262 -0.4581  0.0965 -0.1220
 4881TIP3    H136134   2.886   3.974   5.264 -2.2024 -0.8605  4.7566
 4881TIP3    H236135   2.765   4.049   5.214  0.0701 -0.4405 -0.9299
 4882TIP3   OH236136   2.765   4.692  11.769  0.2183  0.0757 -0.4689
 4882TIP3    H136137   2.796   4.606  11.742 -1.1470 -1.1878  1.7027
 4882TIP3    H236138   2.837   4.729  11.821  0.7529  0.2442 -1.2973
 4883TIP3   OH236139   1.689   6.593   0.409  0.0237 -0.2233  0.1510
 4883TIP3    H136140   1.617   6.599   0.346  0.4330  1.2246 -0.2111
 4883TIP3    H236141   1.646   6.582   0.494 -0.6332  0.6491 -0.0593
 4884TIP3   OH236142   5.258   4.680   1.561  0.1464  0.7009  0.0899
 4884TIP3    H136143   5.307   4.670   1.479 -0.8047 -0.5692 -0.3561
 4884TIP3    H236144   5.204   4.758   1.547  0.2159  0.6732 -0.3691
 4885TIP3   OH236145   4.679   3.481   5.864 -0.3306 -0.2598  0.3564
 4885TIP3    H136146   4.674   3.443   5.776 -0.5366  1.4136 -0.3955
 4885TIP3    H236147   4.763   3.528   5.865 -1.3618  1.6766  0.1856
 4886TIP3   OH236148   3.689   2.285  12.926 -0.3612 -0.2451 -0.5376
 4886TIP3    H136149   3.704   2.362  12.981 -0.9808 -1.2581  1.1448
 4886TIP3    H236150   3.621   2.236  12.972 -1.1612 -1.0043 -2.4201
 4887TIP3   OH236151   3.813   0.357   1.118  0.4910  0.8174 -0.3704
 4887TIP3    H136152   3.749   0.343   1.048  1.3002  1.7992 -1.3601
 4887TIP3    H236153   3.801   0.283   1.177 -0.7260  0.3461 -1.1609
 4888TIP3   OH236154   2.253   6.443  11.186  0.6508  0.5792  0.5453
 4888TIP3    H136155   2.271   6.486  11.103 -0.4679  0.7968  0.4069
 4888TIP3    H236156   2.314   6.369  11.189 -0.1101 -0.1478 -1.0260
 4889TIP3   OH236157   4.772   6.305   3.774 -0.3112 -0.9001  0.3589
 4889TIP3    H136158   4.720   6.356   3.836 -1.6323 -2.1387  0.3231
 4889TIP3    H236159   4.853   6.285   3.821 -1.4261 -2.1266  1.8661
 4890TIP3   OH236160   2.675   2.865   0.746  0.1536 -0.5445 -0.3688
 4890TIP3    H136161   2.609   2.863   0.815 -2.8742  0.8713 -2.9501
 4890TIP3    H236162   2.689   2.958   0.729  0.5839 -0.8523 -1.8253
 4891TIP3   OH236163   5.204   1.356   3.836  0.0418 -0.1767 -0.0599
 4891TIP3    H136164   5.167   1.365   3.924  1.6142 -1.3393  0.7650
 4891TIP3    H236165   5.276   1.418   3.834  1.9656 -2.2544  0.6396
 4892TIP3   OH236166   4.595   3.333  12.804  0.3110  0.0263  0.4724
 4892TIP3    H136167   4.513   3.338  12.753 -0.0906  3.2309  1.2158
 4892TIP3    H236168   4.570   3.287  12.884 -0.8575  1.1366  0.7793
 4893TIP3   OH236169   1.160   6.023  14.016  0.5606 -0.3020  0.2734
 4893TIP3    H136170   1.250   6.018  13.985  0.1578  1.9677 -1.5983
 4893TIP3    H236171   1.109   5.978  13.948  0.3021 -2.4616  1.8156
 4894TIP3   OH236172   3.018   1.723  11.948 -0.5549  0.9004 -0.2454
 4894TIP3    H136173   3.038   1.630  11.942  0.2000  1.0154  0.3517
 4894TIP3    H236174   2.976   1.733  12.033 -0.6354  1.1038 -0.3081
 4895TIP3   OH236175   0.910   4.841  14.417  0.7896 -0.2338 -0.0332
 4895TIP3    H136176   0.889   4.749  14.404  0.5058 -0.2822  0.7761
 4895TIP3    H236177   0.914   4.853  14.512  1.0691  0.5325 -0.1289
 4896TIP3   OH236178   5.942   4.212  17.081  0.0326 -0.0249 -0.1199
 4896TIP3    H136179   5.929   4.140  17.143 -2.3658  1.3105  1.0849
 4896TIP3    H236180   5.998   4.274  17.128  3.4476 -1.6215 -1.7420
 4897TIP3   OH236181   0.374   0.558  16.127 -0.0625  0.4467  0.3930
 4897TIP3    H136182   0.338   0.471  16.141  0.2349 -0.3258 -2.9196
 4897TIP3    H236183   0.429   0.550  16.049  1.8028  3.1295  1.2449
 4898TIP3   OH236184   1.920   4.434  11.147  0.4356 -0.4461 -0.1663
 4898TIP3    H136185   1.873   4.398  11.223  0.1630 -1.0938 -0.6253
 4898TIP3    H236186   1.872   4.400  11.071  0.3548  0.6621 -0.6308
 4899TIP3   OH236187   1.175   0.174   0.143  0.2464 -0.1558  0.5034
 4899TIP3    H136188   1.153   0.235   0.214 -0.1859 -0.0291  0.2646
 4899TIP3    H236189   1.229   0.225   0.083 -1.2738  0.4385 -0.4156
 4900TIP3   OH236190   3.502   1.854   5.151 -0.0312 -0.2851  0.1005
 4900TIP3    H136191   3.515   1.911   5.227 -1.5256 -0.4908  0.5401
 4900TIP3    H236192   3.591   1.832   5.122  0.5626 -0.0198  1.6428
 4901TIP3   OH236193   1.888   5.598   4.381  0.0406 -0.3913  0.1269
 4901TIP3    H136194   1.911   5.508   4.358  0.8542  0.2029 -1.5154
 4901TIP3    H236195   1.798   5.609   4.350  0.2039 -0.4187 -0.3675
 4902TIP3   OH236196   6.759   3.220  13.858 -0.1007 -0.3564  0.2528
 4902TIP3    H136197   6.705   3.180  13.926  0.3591 -0.5625  0.5075
 4902TIP3    H236198   6.723   3.186  13.776 -0.8532  0.1424  0.3765
 4903TIP3   OH236199   2.091   5.456   2.196 -0.0500  0.4551  0.2824
 4903TIP3    H136200   2.072   5.432   2.286 -1.2776 -1.7128 -0.4914
 4903TIP3    H236201   2.010   5.496   2.164  0.6780  2.0895  0.3627
 4904TIP3   OH236202   4.317   5.398  11.079  0.0495 -0.1906  0.0442
 4904TIP3    H136203   4.339   5.435  11.165 -1.3702  1.3713 -0.2139
 4904TIP3    H236204   4.321   5.303  11.093 -0.8609  0.0012  2.0669
 4905TIP3   OH236205   3.086   2.487   3.763 -0.0171 -0.4522  0.3403
 4905TIP3    H136206   3.139   2.520   3.690  1.0632  0.7565  1.6117
 4905TIP3    H236207   3.082   2.393   3.749 -3.4705 -0.0359 -3.6117
 4906TIP3   OH236208   0.889   1.921  16.537 -0.2719 -0.0029 -0.1401
 4906TIP3    H136209   0.905   2.012  16.563  0.2138 -0.1584  0.1046
 4906TIP3    H236210   0.806   1.924  16.490  1.6362  1.2684 -3.8144
 4907TIP3   OH236211   6.226   3.898  10.399 -0.7136  0.1854 -0.3588
 4907TIP3    H136212   6.233   3.991  10.420 -0.7368  0.2568 -0.6577
 4907TIP3    H236213   6.212   3.855  10.483  1.0331  0.2723  0.0245
 4908TIP3   OH236214   6.595   5.584  12.304  0.1164  0.1235  0.2954
 4908TIP3    H136215   6.601   5.591  12.400 -0.6161 -0.1344  0.3660
 4908TIP3    H236216   6.662   5.644  12.272 -0.5491  1.2390  0.9580
 4909TIP3   OH236217   1.625   0.898  10.977 -0.5718  0.6313  0.2230
 4909TIP3    H136218   1.612   0.901  10.882  0.0093  1.3769  0.1639
 4909TIP3    H236219   1.555   0.953  11.012 -1.4398 -0.4770  0.3150
 4910TIP3   OH236220   0.306   4.590   4.232  0.0304  0.5399  0.4995
 4910TIP3    H136221   0.402   4.595   4.229 -0.0380  1.2220 -0.8947
 4910TIP3    H236222   0.278   4.679   4.253 -0.3387  0.6942 -0.5947
 4911TIP3   OH236223   3.598   1.455  12.504 -0.1572  0.1531 -0.4592
 4911TIP3    H136224   3.682   1.499  12.506 -0.1082  0.0233  0.5967
 4911TIP3    H236225   3.537   1.517  12.543 -1.0531  1.1922 -3.2310
 4912TIP3   OH236226   1.623   5.211   6.044 -0.8653 -0.4413  0.0937
 4912TIP3    H136227   1.553   5.270   6.018 -1.4174 -1.4894 -0.8762
 4912TIP3    H236228   1.619   5.209   6.140 -2.8358 -1.2333  0.0477
 4913TIP3   OH236229   0.962   4.983   0.435 -0.6527  0.0392  0.0748
 4913TIP3    H136230   0.986   4.944   0.519 -0.1130 -0.0964 -0.1368
 4913TIP3    H236231   0.973   4.913   0.371 -3.8402 -0.7545  0.2135
 4914TIP3   OH236232   5.691   6.219  16.175 -0.3871 -0.5553 -0.2273
 4914TIP3    H136233   5.697   6.213  16.080  0.6987  0.9385 -0.2941
 4914TIP3    H236234   5.598   6.209  16.194 -0.9625  1.4896 -1.6784
 4915TIP3   OH236235   0.350   4.730  16.677  0.3068  0.0668 -0.2892
 4915TIP3    H136236   0.380   4.737  16.587 -0.0814  0.8099 -0.3709
 4915TIP3    H236237   0.416   4.778  16.728  1.1358 -1.2920 -0.0176
 4916TIP3   OH236238   3.030   5.567  17.172 -0.1541 -0.3045 -0.4732
 4916TIP3    H136239   2.951   5.514  17.184 -0.4714  0.5218  1.2849
 4916TIP3    H236240   3.040   5.616  17.253  1.6121  0.3833 -1.0473
 4917TIP3   OH236241   1.014   3.873   1.272 -0.0639 -0.5304 -0.1959
 4917TIP3    H136242   1.097   3.901   1.309 -1.4920  0.2058  2.7003
 4917TIP3    H236243   0.975   3.953   1.237 -0.1216 -0.6471 -0.4036
 4918TIP3   OH236244   0.354   1.069   0.865  0.2647  0.0409  0.5182
 4918TIP3    H136245   0.364   1.152   0.911  1.0610  0.5954 -0.6270
 4918TIP3    H236246   0.381   1.003   0.929 -0.6350  0.6243  1.5239
 4919TIP3   OH236247   1.786   5.540   0.856  0.4192 -0.7204 -0.0838
 4919TIP3    H136248   1.817   5.455   0.824  1.5418 -1.1532  1.9503
 4919TIP3    H236249   1.746   5.520   0.940 -1.1535  0.5323 -0.4992
 4920TIP3   OH236250   1.749   2.358   4.167  0.4019  0.0316  0.1932
 4920TIP3    H136251   1.845   2.356   4.163  0.3890 -0.4166  0.0093
 4920TIP3    H236252   1.726   2.290   4.231  0.2401  0.7955  0.9593
 4921TIP3   OH236253   2.116   2.731  13.496 -0.2649  0.0271 -0.2147
 4921TIP3    H136254   2.204   2.766  13.508  1.1090 -2.5740 -1.8903
 4921TIP3    H236255   2.097   2.684  13.577  0.4740 -0.5561 -0.3756
 4922TIP3   OH236256   3.414   2.540   0.737  0.0202  0.2518 -0.1894
 4922TIP3    H136257   3.454   2.598   0.801  1.1037  0.4070 -0.9755
 4922TIP3    H236258   3.347   2.492   0.786  1.2325 -0.0798  1.1946
 4923TIP3   OH236259   6.545   5.140   5.417 -0.1776  0.2440  0.4658
 4923TIP3    H136260   6.575   5.118   5.505  0.2334 -0.4710  0.1594
 4923TIP3    H236261   6.503   5.060   5.386 -1.4028  0.8739  0.4542
 4924TIP3   OH236262   2.998   0.052   5.901  0.8202 -0.0244  0.4257
 4924TIP3    H136263   3.033   0.141   5.902  2.1176 -0.4182 -2.3012
 4924TIP3    H236264   3.075  -0.004   5.907  0.2227 -0.9376 -0.2856
 4925TIP3   OH236265   5.487   5.036   3.824  0.0018 -0.0900 -0.3292
 4925TIP3    H136266   5.513   4.993   3.743  1.4336 -0.4713  0.3101
 4925TIP3    H236267   5.529   4.985   3.893 -2.3978 -0.7012  0.8052
 4926TIP3   OH236268   4.291   3.834   0.093 -0.2860  0.2548 -0.1818
 4926TIP3    H136269   4.278   3.848   0.187  0.8013  0.0727  0.0128
 4926TIP3    H236270   4.307   3.739   0.085  1.4246  0.5202 -0.2953
 4927TIP3   OH236271   4.702   2.350   1.525  0.0862  0.1932  0.4210
 4927TIP3    H136272   4.762   2.421   1.503 -0.0107 -0.2880 -1.6121
 4927TIP3    H236273   4.615   2.384   1.506 -0.1700  0.2865  1.6647
 4928TIP3   OH236274   0.735   2.924   1.505 -0.3451  0.1331  0.0772
 4928TIP3    H136275   0.744   3.009   1.461  0.5003 -0.7174 -1.4759
 4928TIP3    H236276   0.668   2.939   1.572  0.3309  2.2124  0.3633
 4929TIP3   OH236277   5.341   0.619   3.609 -0.4908 -0.4123  0.2201
 4929TIP3    H136278   5.280   0.658   3.546  0.6598  0.7312 -0.2129
 4929TIP3    H236279   5.285   0.594   3.683 -1.2696  2.4542  0.7131
 4930TIP3   OH236280   3.474   6.576  11.261 -0.1986  0.0962  0.1632
 4930TIP3    H136281   3.432   6.544  11.181  1.1631  1.1700 -1.0559
 4930TIP3    H236282   3.447   6.514  11.329 -0.6457 -1.4260 -1.3191
 4931TIP3   OH236283   2.570   0.018  15.804 -0.2268 -0.2914 -0.1527
 4931TIP3    H136284   2.506   0.086  15.826 -0.3189 -0.9156  1.7110
 4931TIP3    H236285   2.517  -0.058  15.781 -0.1339 -0.1785 -0.7457
 4932TIP3   OH236286   4.049   1.212   3.100  0.1542  0.1725 -0.2001
 4932TIP3    H136287   4.063   1.125   3.065 -0.7835 -0.4306  0.8478
 4932TIP3    H236288   3.998   1.257   3.033  1.4070  0.2486 -1.1480
 4933TIP3   OH236289   0.036   4.155   2.919  0.3411  0.8579 -0.1573
 4933TIP3    H136290   0.045   4.143   2.824  0.2165 -1.5790  0.0955
 4933TIP3    H236291  -0.055   4.135   2.938  0.7261 -0.1654  0.6695
 4934TIP3   OH236292   2.397   4.951  12.725  0.1721  0.0424 -1.2185
 4934TIP3    H136293   2.313   4.988  12.696 -0.9700 -0.9893  0.5762
 4934TIP3    H236294   2.438   5.023  12.774 -2.0413 -0.8432  2.2606
 4935TIP3   OH236295   4.761   0.249  16.115  0.2484 -0.3062  0.1659
 4935TIP3    H136296   4.851   0.268  16.140  0.7025  0.3330 -1.7851
 4935TIP3    H236297   4.714   0.332  16.126  0.4354 -0.0387 -0.9312
 4936TIP3   OH236298   0.313   5.937   1.011 -0.1245  0.0376  0.3884
 4936TIP3    H136299   0.377   5.959   0.943  1.6056 -1.9053  1.2894
 4936TIP3    H236300   0.301   5.842   1.003 -1.6611  0.1141  1.3353
 4937TIP3   OH236301   5.891   5.266  11.580  0.1626 -0.0845  0.1830
 4937TIP3    H136302   5.825   5.266  11.511  0.5058 -0.3339 -0.1525
 4937TIP3    H236303   5.845   5.236  11.659 -0.3243  0.5852  0.1554
 4938TIP3   OH236304   2.492   6.320  16.409  0.8006  0.1148  0.2523
 4938TIP3    H136305   2.487   6.367  16.492  0.6812 -1.1170  0.9715
 4938TIP3    H236306   2.494   6.388  16.343 -0.7658  1.1334  1.1732
 4939TIP3   OH236307   4.058   3.576  15.568  0.5019 -0.1721  0.1269
 4939TIP3    H136308   4.106   3.514  15.623  0.5257 -1.0373 -0.8527
 4939TIP3    H236309   3.972   3.584  15.609  0.4089 -1.0559  0.1071
 4940TIP3   OH236310   0.644   5.461   0.312  0.3620  0.3541 -0.0452
 4940TIP3    H136311   0.580   5.403   0.271  0.0428  0.3406  0.4524
 4940TIP3    H236312   0.729   5.421   0.294  0.1577 -0.1803  0.1481
 4941TIP3   OH236313   4.251   4.404   0.072 -0.5096  0.2072 -0.3204
 4941TIP3    H136314   4.278   4.315   0.051  2.3212  0.7636  0.5206
 4941TIP3    H236315   4.208   4.436  -0.007  0.7250 -1.0748 -1.5546
 4942TIP3   OH236316   4.795   5.896  15.325 -0.3529 -0.7293  0.1280
 4942TIP3    H136317   4.890   5.887  15.319 -0.2074  1.4164 -2.3682
 4942TIP3    H236318   4.764   5.893  15.235 -2.0992  2.9474  0.3972
 4943TIP3   OH236319   2.818   5.956  12.912 -0.7489  0.4103 -0.2549
 4943TIP3    H136320   2.772   5.993  12.988  0.6087  0.0940  0.7569
 4943TIP3    H236321   2.863   6.031  12.873  1.0329  0.1142  1.0949
 4944TIP3   OH236322   2.954   5.279  12.376  0.0704  0.5045 -0.5477
 4944TIP3    H136323   2.928   5.307  12.464  3.2989  1.5259  0.2262
 4944TIP3    H236324   2.938   5.185  12.375 -2.4333  0.8510  0.1338
 4945TIP3   OH236325   6.127   0.431   2.376 -0.4297  0.4119 -0.2587
 4945TIP3    H136326   6.056   0.397   2.323 -0.5778 -2.1507  1.3799
 4945TIP3    H236327   6.088   0.502   2.427 -1.0282  0.9406 -1.4326
 4946TIP3   OH236328   3.110   2.895  11.301  0.5349  0.5489 -0.4651
 4946TIP3    H136329   3.062   2.815  11.323  1.0449  0.1997 -0.6066
 4946TIP3    H236330   3.108   2.947  11.381 -0.9177  0.9749 -0.7593
 4947TIP3   OH236331   4.122   5.592  11.045  0.4785  0.0418 -0.2766
 4947TIP3    H136332   4.190   5.525  11.055  0.3525 -0.3476 -1.8525
 4947TIP3    H236333   4.170   5.674  11.037  0.8829 -0.3567 -2.5980
 4948TIP3   OH236334   0.705   0.594  16.927 -0.7050 -0.8553 -0.2445
 4948TIP3    H136335   0.782   0.633  16.886 -1.8825  1.5261 -0.3590
 4948TIP3    H236336   0.665   0.541  16.859 -0.6721  0.1614 -1.0777
 4949TIP3   OH236337   0.755   6.077   1.599 -0.4663  0.6200  0.8730
 4949TIP3    H136338   0.840   6.097   1.559 -0.9025  0.3813 -0.2168
 4949TIP3    H236339   0.697   6.062   1.525 -1.4367  0.6518  1.6101
 4950TIP3   OH236340   3.410   2.008  15.832  0.3976 -0.5884 -0.6893
 4950TIP3    H136341   3.437   1.968  15.914  0.5055 -0.3961 -0.6312
 4950TIP3    H236342   3.380   2.096  15.856  2.8528  0.4668 -1.1586
 4951TIP3   OH236343   1.549   4.346  11.488  0.0065 -0.0755  0.0997
 4951TIP3    H136344   1.507   4.432  11.491 -0.3742 -0.2821  0.7413
 4951TIP3    H236345   1.482   4.286  11.520  0.1269 -0.6719 -0.7381
 4952TIP3   OH236346   5.330   4.016  15.124 -0.1368  0.0478 -0.1239
 4952TIP3    H136347   5.386   4.087  15.092 -0.0496 -0.2388 -0.6109
 4952TIP3    H236348   5.243   4.037  15.090 -0.0423 -0.2628 -0.5611
 4953TIP3   OH236349   4.658   3.149  12.551 -0.0454 -0.1250  0.1759
 4953TIP3    H136350   4.698   3.071  12.587 -0.8557 -0.8646 -0.4695
 4953TIP3    H236351   4.586   3.169  12.611 -0.0598 -0.0859  0.1458
 4954TIP3   OH236352   1.099   4.633   1.451  0.0488  0.0960  0.1580
 4954TIP3    H136353   1.111   4.618   1.357  1.8592  1.4687  0.1114
 4954TIP3    H236354   1.163   4.576   1.493 -1.9756 -1.9050  0.7527
 4955TIP3   OH236355   5.964   1.064  10.589  0.0352 -0.6145  0.2777
 4955TIP3    H136356   5.943   1.139  10.533 -0.6104  0.1594  1.5015
 4955TIP3    H236357   6.057   1.049  10.574  0.7898  1.9702  1.7003
 4956TIP3   OH236358   0.941   5.874  16.086 -0.3948  0.0121 -0.4516
 4956TIP3    H136359   1.009   5.806  16.089  0.1887  0.6118  0.1845
 4956TIP3    H236360   0.868   5.833  16.039  0.0250 -0.9870 -0.2558
 4957TIP3   OH236361   2.474   3.690  16.021  0.6046  0.4185  0.6128
 4957TIP3    H136362   2.394   3.667  16.068  0.8201  0.3579  0.9537
 4957TIP3    H236363   2.531   3.614  16.031  0.3574  0.0750 -0.4312
 4958TIP3   OH236364   2.750   5.437  13.333  0.5504 -0.1881  1.0003
 4958TIP3    H136365   2.656   5.429  13.320  0.7289 -0.6611 -0.1629
 4958TIP3    H236366   2.771   5.372  13.400  0.3570 -1.7976 -0.4106
 4959TIP3   OH236367   4.793   6.280  15.737  0.0462 -0.3620  0.1990
 4959TIP3    H136368   4.783   6.374  15.747 -1.2357 -0.4515 -0.0590
 4959TIP3    H236369   4.757   6.261  15.650  1.7220 -0.9010 -0.4245
 4960TIP3   OH236370   4.088   5.752  12.854  0.1881  0.0547  0.5131
 4960TIP3    H136371   4.182   5.742  12.864 -0.1263 -0.4807  4.1873
 4960TIP3    H236372   4.069   5.840  12.888 -0.6889 -0.0966  0.4488
 4961TIP3   OH236373   5.254   5.100  11.316  0.0266  0.7893  0.7004
 4961TIP3    H136374   5.198   5.149  11.255  0.2132 -0.9572 -0.9691
 4961TIP3    H236375   5.334   5.084  11.266  0.0184 -1.0848  1.2309
 4962TIP3   OH236376   3.043   2.715  15.779 -0.2801  0.0773 -0.6365
 4962TIP3    H136377   3.090   2.653  15.835  3.1751  1.4361 -1.7848
 4962TIP3    H236378   3.013   2.783  15.840 -1.2086 -1.0152  0.1775
 4963TIP3   OH236379   5.514   5.668   5.267 -0.2697  0.0883 -0.0668
 4963TIP3    H136380   5.570   5.703   5.198 -0.1439 -0.2732 -0.1545
 4963TIP3    H236381   5.505   5.739   5.330 -0.4165  0.4332 -0.4733
 4964TIP3   OH236382   2.554   3.408   1.527 -0.4260  0.0369  0.3665
 4964TIP3    H136383   2.598   3.493   1.520 -1.8393  0.9272  1.7455
 4964TIP3    H236384   2.474   3.426   1.576 -2.1210 -1.6270 -1.6228
 4965TIP3   OH236385   0.199   3.887   0.785 -0.3489  0.0600 -0.3343
 4965TIP3    H136386   0.240   3.973   0.793  0.3934 -0.2001 -1.1397
 4965TIP3    H236387   0.232   3.837   0.860 -1.1533  0.6074  0.3995
 4966TIP3   OH236388   3.826   4.861  16.147  0.3491 -0.2794  0.2912
 4966TIP3    H136389   3.788   4.774  16.141  1.3676 -0.6424 -1.9267
 4966TIP3    H236390   3.757   4.920  16.117  0.4047 -0.5855 -0.4615
 4967TIP3   OH236391   2.183   3.452  12.621  0.0644 -0.0154  0.0905
 4967TIP3    H136392   2.265   3.435  12.574 -0.9109 -1.6570 -1.0863
 4967TIP3    H236393   2.190   3.544  12.646  1.0446  0.7049 -2.4714
 4968TIP3   OH236394   4.090   5.673   5.371  0.1722  0.0658 -0.4098
 4968TIP3    H136395   4.019   5.737   5.367  0.9746  0.9779 -0.4291
 4968TIP3    H236396   4.121   5.667   5.280 -0.5530 -1.1244 -0.5968
 4969TIP3   OH236397   4.294   4.376  11.746 -0.3561  0.0787 -0.2123
 4969TIP3    H136398   4.256   4.458  11.777  0.7600 -0.5245  3.1763
 4969TIP3    H236399   4.375   4.401  11.703 -0.3207  0.7965  0.2608
 4970TIP3   OH236400   6.496   0.613   0.781 -0.2582  0.0137  0.4973
 4970TIP3    H136401   6.499   0.566   0.698 -0.5158 -0.2344  0.6258
 4970TIP3    H236402   6.576   0.588   0.826 -0.0254  0.2949  0.2488
 4971TIP3   OH236403   2.535   6.786  16.989 -0.4316 -0.2414 -0.0760
 4971TIP3    H136404   2.481   6.775  17.067 -1.3238 -2.5385 -0.9179
 4971TIP3    H236405   2.500   6.865  16.947  1.1882  2.0816  2.5770
 4972TIP3   OH236406   1.363   2.801   2.077  0.0944  0.3453  0.2071
 4972TIP3    H136407   1.288   2.842   2.120 -0.1054  1.5913 -1.2317
 4972TIP3    H236408   1.326   2.729   2.026 -0.5047  2.1635 -2.0887
 4973TIP3   OH236409   5.684   1.736  12.459  0.1117 -0.0175  0.6125
 4973TIP3    H136410   5.744   1.719  12.531  1.1277 -1.7084 -0.5660
 4973TIP3    H236411   5.729   1.701  12.382 -1.9952 -0.5059 -0.4647
 4974TIP3   OH236412   6.285   6.244  13.138 -0.5044 -0.1605  1.0175
 4974TIP3    H136413   6.268   6.184  13.212  1.4777 -1.7708  0.2662
 4974TIP3    H236414   6.214   6.226  13.077 -0.2815 -1.3761  1.0750
 4975TIP3   OH236415   1.659   0.236   4.166 -0.1215 -0.1969 -0.7722
 4975TIP3    H136416   1.723   0.307   4.158  1.0311 -1.1973 -0.5917
 4975TIP3    H236417   1.581   0.280   4.200  0.9237  0.8245  0.4525
 4976TIP3   OH236418   4.395   6.413   0.539  0.0029 -0.1188 -0.2885
 4976TIP3    H136419   4.481   6.393   0.502  0.0107 -1.4933  0.3958
 4976TIP3    H236420   4.371   6.334   0.587 -1.1217  0.6898  0.5260
 4977TIP3   OH236421   3.016   2.874  16.031  0.4195  0.2071 -0.2241
 4977TIP3    H136422   3.102   2.912  16.014  0.4350  0.1889 -0.1890
 4977TIP3    H236423   3.024   2.833  16.118  0.6913 -0.7065 -0.6695
 4978TIP3   OH236424   2.308   3.353   0.339  0.4980  0.4605  0.1227
 4978TIP3    H136425   2.353   3.365   0.255 -0.2586  1.2493 -0.1812
 4978TIP3    H236426   2.215   3.356   0.317  0.2915  0.3360  0.9528
 4979TIP3   OH236427   1.412   0.793   6.100 -0.0547 -0.1659 -0.6342
 4979TIP3    H136428   1.471   0.718   6.093  0.4307  0.2731 -1.4192
 4979TIP3    H236429   1.383   0.793   6.192  0.8039 -0.6579 -0.3552
 4980TIP3   OH236430   2.557   4.267  13.311  0.3628 -0.3727 -0.0121
 4980TIP3    H136431   2.528   4.177  13.300 -1.7740  0.1339  0.9601
 4980TIP3    H236432   2.528   4.312  13.232 -1.0379  0.0016  0.6856
 4981TIP3   OH236433   5.064   1.383   0.947  0.1604 -0.1482  1.1370
 4981TIP3    H136434   5.098   1.298   0.921  0.4024  0.5047 -0.8563
 4981TIP3    H236435   5.004   1.408   0.878 -1.7853  0.2834  2.8768
 4982TIP3   OH236436   4.751   5.831  10.849 -0.5747 -0.0185 -0.0948
 4982TIP3    H136437   4.756   5.792  10.762 -2.3566  0.4023 -0.4248
 4982TIP3    H236438   4.682   5.781  10.894 -0.1381  0.1986  0.8543
 4983TIP3   OH236439   4.869   0.291   5.835 -0.1766 -0.3750  0.1866
 4983TIP3    H136440   4.958   0.309   5.806  0.0940 -0.2579  1.0665
 4983TIP3    H236441   4.877   0.212   5.888 -0.6042 -0.3887  0.2315
 4984TIP3   OH236442   6.522   2.588   3.659  0.1367 -0.1509 -0.2707
 4984TIP3    H136443   6.564   2.665   3.621 -1.1257  0.8798  0.3371
 4984TIP3    H236444   6.594   2.539   3.699  0.7939  1.6023  0.8269
 4985TIP3   OH236445   4.640   0.041  12.535 -0.0148 -0.1862 -0.1672
 4985TIP3    H136446   4.670  -0.008  12.458  0.4789 -2.7637  1.5359
 4985TIP3    H236447   4.721   0.066  12.580 -0.2903 -0.9236  0.7793
 4986TIP3   OH236448   1.763   0.630   5.638 -0.0390 -0.5207 -0.5519
 4986TIP3    H136449   1.760   0.575   5.716 -1.6074  0.7909  0.3846
 4986TIP3    H236450   1.804   0.575   5.572 -1.0586 -2.6501  0.4682
 4987TIP3   OH236451   2.698   5.491   2.166 -0.3287 -0.1495 -0.1018
 4987TIP3    H136452   2.623   5.439   2.137 -0.5948  0.4724 -0.5477
 4987TIP3    H236453   2.660   5.558   2.223  0.0541 -0.6433  0.7619
 4988TIP3   OH236454   3.775   3.258   5.431 -0.4502  0.0997 -0.2673
 4988TIP3    H136455   3.809   3.213   5.353 -0.3859  1.0493 -0.8006
 4988TIP3    H236456   3.718   3.193   5.473  1.8067 -1.4784  0.5408
 4989TIP3   OH236457   5.476   0.257  13.246 -0.0742  0.3860  0.3569
 4989TIP3    H136458   5.524   0.286  13.323 -2.0644  1.1109  1.4167
 4989TIP3    H236459   5.433   0.176  13.273 -1.9261  1.3732  0.5779
 4990TIP3   OH236460   1.752   2.221   2.279  0.3083 -0.3170 -0.3142
 4990TIP3    H136461   1.672   2.169   2.266  0.3498 -0.5418  0.3208
 4990TIP3    H236462   1.794   2.222   2.192 -1.0591  0.9512 -1.0023
 4991TIP3   OH236463   5.136   4.571  14.168 -0.7297  1.0846  0.5720
 4991TIP3    H136464   5.085   4.644  14.203 -0.1114  2.2933 -0.9229
 4991TIP3    H236465   5.213   4.612  14.129 -0.9811 -0.2245 -1.4300
 4992TIP3   OH236466   0.267   1.475   0.113  0.1335 -0.5533 -0.2202
 4992TIP3    H136467   0.362   1.463   0.118  0.2249  0.5158  1.2511
 4992TIP3    H236468   0.256   1.565   0.081 -0.3605 -0.3151  0.5944
 4993TIP3   OH236469   6.091   5.065   1.761 -0.2409 -0.4282 -0.2905
 4993TIP3    H136470   6.068   5.111   1.842  1.9703 -0.4947  0.4468
 4993TIP3    H236471   6.124   5.134   1.703  3.4907 -0.9262  0.9696
 4994TIP3   OH236472   6.407   5.736  17.116  0.5375  0.2043  0.2708
 4994TIP3    H136473   6.470   5.800  17.084  1.4901 -0.7635  0.1648
 4994TIP3    H236474   6.452   5.652  17.109 -1.0765 -0.6349 -0.6439
 4995TIP3   OH236475   1.421   6.537  16.422  0.7097  0.1764  0.4769
 4995TIP3    H136476   1.492   6.557  16.484 -1.1235 -0.8189  3.0991
 4995TIP3    H236477   1.377   6.460  16.460 -1.8121  0.7796 -0.9665
 4996TIP3   OH236478   2.647   2.175  13.606 -0.2088  0.1869 -0.0156
 4996TIP3    H136479   2.685   2.237  13.544 -0.1126  1.0800  0.8996
 4996TIP3    H236480   2.643   2.092  13.558  0.9256  0.5738 -0.8263
 4997TIP3   OH236481   3.848   5.818   5.400  0.1087  0.8668 -0.0397
 4997TIP3    H136482   3.829   5.729   5.432 -0.4689  1.4294  1.2629
 4997TIP3    H236483   3.781   5.834   5.334 -0.0496  0.4920  0.0236
 4998TIP3   OH236484   1.319   2.906  12.537  0.3983 -0.1737 -0.3677
 4998TIP3    H136485   1.313   2.839  12.605  0.9373  0.8700  0.7518
 4998TIP3    H236486   1.411   2.933  12.537  0.1347  0.7901 -0.5534
 4999TIP3   OH236487   5.591   3.603  14.041  1.0675  0.7785 -0.3155
 4999TIP3    H136488   5.628   3.658  14.110  1.6144 -0.0797  0.0912
 4999TIP3    H236489   5.557   3.527  14.087 -0.6684  1.2575 -0.7591
 5000TIP3   OH236490   0.300   4.119   1.239 -0.2863  0.0473  0.0889
 5000TIP3    H136491   0.282   4.151   1.327 -0.0144 -0.8012  0.4620
 5000TIP3    H236492   0.264   4.031   1.237  0.2948 -0.1893 -0.4235
 5001TIP3   OH236493   0.689   6.057   4.696  0.0086  0.5694  0.4514
 5001TIP3    H136494   0.695   6.074   4.790  2.0546 -0.5869  0.5786
 5001TIP3    H236495   0.635   5.979   4.688 -0.9294  1.1902  0.5733
 5002TIP3   OH236496   6.126   0.717   1.104  0.2948 -0.0056 -0.5636
 5002TIP3    H136497   6.172   0.797   1.079  0.4341  0.4638  1.0564
 5002TIP3    H236498   6.036   0.745   1.118  0.2582 -0.2073 -0.3886
 5003TIP3   OH236499   3.376   4.691  12.560  0.5847  0.1860  0.6728
 5003TIP3    H136500   3.329   4.732  12.633 -1.1957  0.2679 -0.4620
 5003TIP3    H236501   3.323   4.710  12.483  0.9744 -2.1595 -0.2648
 5004TIP3   OH236502   3.703   3.478   0.188 -0.2470 -0.3238  0.0973
 5004TIP3    H136503   3.750   3.505   0.268  0.5841 -1.8116  0.1514
 5004TIP3    H236504   3.746   3.396   0.162 -0.4887  0.1420 -1.9049
 5005TIP3   OH236505   3.210   2.388  12.142  0.5254 -0.1823 -0.3613
 5005TIP3    H136506   3.251   2.302  12.136  0.6647 -0.2291  0.9112
 5005TIP3    H236507   3.159   2.385  12.224 -0.4248  0.5432 -0.8963
 5006TIP3   OH236508   5.450   3.094  16.958  0.1833  0.2595  0.0643
 5006TIP3    H136509   5.479   3.036  17.029 -0.1889 -0.3056 -0.2338
 5006TIP3    H236510   5.531   3.120  16.915  0.2905 -1.4578 -0.8744
 5007TIP3   OH236511   5.020   6.128   4.274  0.2502  0.4137  0.2633
 5007TIP3    H136512   4.985   6.048   4.312 -1.1655  1.1534  0.5951
 5007TIP3    H236513   5.083   6.098   4.209 -1.5125 -1.0473 -0.8834
 5008TIP3   OH236514   0.845   0.800   4.113 -0.5015 -0.1649 -0.4943
 5008TIP3    H136515   0.891   0.856   4.050 -1.6119  1.5870  0.1830
 5008TIP3    H236516   0.771   0.766   4.064  0.5957 -1.7568 -1.1374
 5009TIP3   OH236517   0.724   0.351   1.794  0.0630 -0.7587 -0.8959
 5009TIP3    H136518   0.656   0.413   1.820  0.8196  0.7254 -2.3177
 5009TIP3    H236519   0.806   0.388   1.828  0.2777 -2.4356  0.6475
 5010TIP3   OH236520   1.829   0.878   5.794 -0.8733 -0.0181  0.0897
 5010TIP3    H136521   1.814   0.785   5.778 -1.2464 -0.1218  0.9865
 5010TIP3    H236522   1.795   0.893   5.882  0.2674  0.7186  0.4225
 5011TIP3   OH236523   3.132   2.680  12.802  0.3355 -0.1954 -0.2849
 5011TIP3    H136524   3.190   2.638  12.865 -0.2904  0.3955  0.7058
 5011TIP3    H236525   3.149   2.634  12.719  0.0933 -2.0089  0.6344
 5012TIP3   OH236526   3.451   6.544  14.796  0.3242 -0.1537  0.2223
 5012TIP3    H136527   3.357   6.536  14.806  0.2561 -1.6163 -1.2665
 5012TIP3    H236528   3.481   6.578  14.881 -1.4934  0.2130  0.7615
 5013TIP3   OH236529   0.140   5.401  16.119  0.0346  0.4022 -0.3482
 5013TIP3    H136530   0.118   5.494  16.108  0.0027  0.5779  1.0231
 5013TIP3    H236531   0.188   5.378  16.040 -1.7562  1.0271 -1.6693
 5014TIP3   OH236532   6.024   3.284  11.609  0.4815 -0.1363  0.2656
 5014TIP3    H136533   6.114   3.289  11.640 -0.0468  0.8876  1.7385
 5014TIP3    H236534   5.996   3.376  11.601 -1.9436 -0.2492  4.6431
 5015TIP3   OH236535   3.957   2.578  12.673 -0.0127  0.7631  0.5576
 5015TIP3    H136536   4.035   2.585  12.728 -0.4033  0.6871  1.1379
 5015TIP3    H236537   3.913   2.663  12.683  0.8263  1.4450 -1.0900
 5016TIP3   OH236538   5.293   2.251  13.247  0.2734 -0.1871  0.8541
 5016TIP3    H136539   5.317   2.196  13.322 -1.8304 -1.1465  0.9022
 5016TIP3    H236540   5.280   2.189  13.175 -0.3271  0.4486  0.4089
 5017TIP3   OH236541   3.477   3.094  16.793 -0.1731 -0.1980  0.0647
 5017TIP3    H136542   3.455   3.037  16.720 -1.6963  1.3456 -0.7662
 5017TIP3    H236543   3.393   3.111  16.836  0.2560  1.2606  0.3851
 5018TIP3   OH236544   2.032   0.340   1.622 -0.1665 -0.4948 -0.1255
 5018TIP3    H136545   1.966   0.325   1.554 -0.3526  1.8127 -0.5369
 5018TIP3    H236546   2.024   0.264   1.680 -2.9997 -0.4383 -0.3125
 5019TIP3   OH236547   2.847   1.918   6.225  0.2477  0.5327 -0.6853
 5019TIP3    H136548   2.792   1.937   6.149 -1.2725  0.6739  0.4075
 5019TIP3    H236549   2.923   1.872   6.189 -1.8058 -2.0943 -1.9854
 5020TIP3   OH236550   4.054   2.926   3.874  0.5649  0.1128  0.6319
 5020TIP3    H136551   4.135   2.916   3.924  1.8030 -0.7342 -1.4245
 5020TIP3    H236552   3.989   2.874   3.922  1.3383  0.3969  2.0366
 5021TIP3   OH236553   2.705   5.214   6.124  0.5776  0.3654  0.7629
 5021TIP3    H136554   2.637   5.198   6.190 -1.2941  0.3972 -1.0503
 5021TIP3    H236555   2.667   5.181   6.043  2.7036  0.5449 -0.3551
 5022TIP3   OH236556   3.245   3.183  12.532 -0.1185 -0.2708  0.1395
 5022TIP3    H136557   3.291   3.099  12.533 -0.3774 -0.4281 -0.3673
 5022TIP3    H236558   3.216   3.192  12.441  1.3987  1.1865 -0.2421
 5023TIP3   OH236559   1.799   2.537   0.057  0.0527  0.2412 -0.6221
 5023TIP3    H136560   1.858   2.580  -0.004 -0.0801 -0.5928 -1.3680
 5023TIP3    H236561   1.715   2.534   0.011 -0.5920  1.4054  0.4211
 5024TIP3   OH236562   1.876   6.651   5.036 -0.0240 -0.6808  0.4196
 5024TIP3    H136563   1.933   6.629   4.962  0.5148 -1.1344  0.9640
 5024TIP3    H236564   1.862   6.745   5.027  0.1351 -0.7087 -0.1932
 5025TIP3   OH236565   4.351   6.658  16.665 -0.1083  0.0932 -0.2589
 5025TIP3    H136566   4.424   6.707  16.626  1.2326 -1.5159  0.0896
 5025TIP3    H236567   4.280   6.667  16.601  0.9482  0.3084 -1.4602
 5026TIP3   OH236568   1.952   2.977   1.611  0.8268  0.8465 -0.3544
 5026TIP3    H136569   2.003   3.006   1.535  0.8824  0.5592 -0.4308
 5026TIP3    H236570   2.015   2.930   1.666  0.5074 -0.1423 -0.7997
 5027TIP3   OH236571   4.979   1.161  13.105 -0.3132 -0.1967 -0.3403
 5027TIP3    H136572   5.066   1.183  13.072  0.0460  0.5685  1.0595
 5027TIP3    H236573   4.995   1.110  13.184 -1.1395 -3.7641 -2.2700
 5028TIP3   OH236574   2.458   5.394  11.172  0.1738  0.8708 -0.3199
 5028TIP3    H136575   2.509   5.401  11.091  1.0691  0.0872  0.1561
 5028TIP3    H236576   2.379   5.347  11.147  1.7574 -2.0698 -0.2252
 5029TIP3   OH236577   0.325   4.510   4.986  0.2418  0.3382 -0.1406
 5029TIP3    H136578   0.250   4.451   4.985  1.3718 -1.2304  1.3985
 5029TIP3    H236579   0.356   4.508   5.077  0.4741  3.1685 -0.0819
 5030TIP3   OH236580   4.931   5.342  14.384  0.1864  0.0296  0.1304
 5030TIP3    H136581   5.013   5.292  14.387  1.7405  2.3090 -1.7129
 5030TIP3    H236582   4.940   5.407  14.454 -0.3186 -0.0527  0.2766
 5031TIP3   OH236583   1.471   0.937   1.558  0.1690  0.8084 -0.7852
 5031TIP3    H136584   1.498   0.934   1.466  0.9019  0.1166 -0.5589
 5031TIP3    H236585   1.537   0.992   1.600  1.8046 -1.5345 -0.0789
 5032TIP3   OH236586   3.376   4.790   6.558  0.3158  0.2061 -0.1165
 5032TIP3    H136587   3.434   4.796   6.482  1.6118 -0.7989  0.7333
 5032TIP3    H236588   3.311   4.724   6.534  0.7375 -0.1321 -0.3410
 5033TIP3   OH236589   1.788   3.007  16.864 -0.0672 -0.4963 -0.2591
 5033TIP3    H136590   1.801   2.928  16.811  0.2268 -0.7639  0.2042
 5033TIP3    H236591   1.859   3.005  16.928 -0.0523  0.1523 -0.2489
 5034TIP3   OH236592   1.888   1.990  12.261 -0.7828  0.2233  0.0102
 5034TIP3    H136593   1.870   1.935  12.185  0.1255  1.4725 -1.1842
 5034TIP3    H236594   1.878   1.933  12.336 -1.5579 -1.1052 -1.0695
 5035TIP3   OH236595   4.756   5.801  15.984 -0.0853 -0.2258 -0.1287
 5035TIP3    H136596   4.835   5.855  15.990 -0.1812  0.0566 -1.1726
 5035TIP3    H236597   4.778   5.721  16.031  0.3117  0.4213  0.8346
 5036TIP3   OH236598   1.591   3.385   5.021 -0.1559  0.7098 -0.4111
 5036TIP3    H136599   1.646   3.422   5.089 -2.0073  1.5716  0.7142
 5036TIP3    H236600   1.649   3.370   4.947  1.0132  4.6458 -0.4839
 5037TIP3   OH236601   3.091   4.895  15.797  0.1278  0.1043  0.0190
 5037TIP3    H136602   3.049   4.810  15.791  0.0381  0.1286  0.2954
 5037TIP3    H236603   3.177   4.883  15.757 -0.0896  0.0198 -0.4219
 5038TIP3   OH236604   6.015   3.272   4.142 -0.4987 -0.4876 -0.1807
 5038TIP3    H136605   5.923   3.289   4.122 -0.9366 -3.1668 -0.7078
 5038TIP3    H236606   6.063   3.309   4.067 -1.4945 -2.5343 -1.9313
 5039TIP3   OH236607   2.154   5.179  17.040 -0.5589  0.0260  0.6931
 5039TIP3    H136608   2.072   5.226  17.032 -0.0621  0.7372 -0.4318
 5039TIP3    H236609   2.129   5.086  17.039 -1.3098  0.2225 -0.1924
 5040TIP3   OH236610   2.927   3.119  11.935 -0.0036 -0.7162 -0.1946
 5040TIP3    H136611   2.919   3.069  11.853 -1.7191  0.2174 -0.6566
 5040TIP3    H236612   2.842   3.108  11.978  0.0673  0.6443  0.3537
 5041TIP3   OH236613   2.367   3.220   1.357 -0.9145  0.2792  0.0431
 5041TIP3    H136614   2.399   3.290   1.413 -2.2633 -0.6977  2.1502
 5041TIP3    H236615   2.366   3.258   1.269  2.3999  1.5048  0.3809
 5042TIP3   OH236616   0.137   0.702  13.695  0.1564 -0.0947 -0.3450
 5042TIP3    H136617   0.091   0.632  13.741  0.1677 -0.0891 -0.3247
 5042TIP3    H236618   0.150   0.770  13.761 -0.5320  0.2510 -0.5524
 5043TIP3   OH236619   2.603   3.466  13.194  0.1272  0.1552 -0.1057
 5043TIP3    H136620   2.572   3.490  13.281 -0.6578  2.6804 -0.9770
 5043TIP3    H236621   2.529   3.420  13.154 -0.6392  1.5276 -0.3587
 5044TIP3   OH236622   4.386   5.316  12.932 -0.0619 -0.4513  0.0589
 5044TIP3    H136623   4.312   5.286  12.985 -0.6156  1.7632  0.6584
 5044TIP3    H236624   4.425   5.388  12.983  1.3277 -0.3187 -1.1234
 5045TIP3   OH236625   1.021   1.339  10.634 -0.5405 -0.4468 -0.0331
 5045TIP3    H136626   1.114   1.320  10.634 -0.1858  1.1324  0.4767
 5045TIP3    H236627   0.979   1.258  10.664  0.5709 -1.4788 -1.1887
 5046TIP3   OH236628   3.079   2.107  13.178  0.1789 -0.1289  0.5009
 5046TIP3    H136629   3.119   2.063  13.103 -2.2054  1.9841 -2.2302
 5046TIP3    H236630   3.135   2.184  13.192 -0.6050  0.6992 -0.7061
 5047TIP3   OH236631   6.554   6.401  14.419 -0.5394  0.3811  0.6936
 5047TIP3    H136632   6.496   6.370  14.489  0.0464  0.8401  1.3931
 5047TIP3    H236633   6.575   6.322  14.370 -1.0441  0.0641  0.9727
 5048TIP3   OH236634   5.439   1.023  15.729 -0.2832  0.2140 -0.0241
 5048TIP3    H136635   5.436   0.928  15.740 -1.1870  0.1710 -0.5064
 5048TIP3    H236636   5.371   1.056  15.787  0.4436  0.6274  0.6081
 5049TIP3   OH236637   3.865   5.693   4.534  0.3731  0.2427 -0.3572
 5049TIP3    H136638   3.901   5.605   4.522  0.8890  0.5210 -0.9473
 5049TIP3    H236639   3.909   5.726   4.612  0.5584  0.1628 -0.4257
 5050TIP3   OH236640   1.918   4.340   1.179 -0.1392 -0.1691 -0.1925
 5050TIP3    H136641   1.991   4.366   1.236  0.7958  0.9533 -1.8260
 5050TIP3    H236642   1.884   4.422   1.143 -1.7798 -0.7369 -0.0147
 5051TIP3   OH236643   6.143   6.094  11.526  0.4527  0.9679  0.1306
 5051TIP3    H136644   6.192   6.090  11.445  1.5691 -0.5393  0.8162
 5051TIP3    H236645   6.098   6.178  11.524  0.0325  0.7485 -2.2570
 5052TIP3   OH236646   5.005   3.331   1.415 -0.6347 -0.7625 -0.2941
 5052TIP3    H136647   4.924   3.379   1.430 -1.1012 -2.2097  2.6359
 5052TIP3    H236648   5.067   3.396   1.383 -2.3137  0.8855 -0.3253
 5053TIP3   OH236649   5.048   3.161   1.636  0.4723 -0.4407  0.6812
 5053TIP3    H136650   5.046   3.228   1.568 -0.5932 -2.0983 -1.0309
 5053TIP3    H236651   5.005   3.202   1.712 -2.1859  0.1504 -1.0253
 5054TIP3   OH236652   6.526   6.665  15.078  0.2453 -0.3090 -0.6808
 5054TIP3    H136653   6.613   6.657  15.039  0.3697 -0.3974 -0.3879
 5054TIP3    H236654   6.469   6.612  15.021  0.3785 -0.2378 -0.8807
 5055TIP3   OH236655   2.898   0.594   5.734 -0.4130  0.2938 -0.0887
 5055TIP3    H136656   2.952   0.558   5.663 -0.2922  0.6786 -0.1928
 5055TIP3    H236657   2.959   0.602   5.808 -0.6206 -0.4457  0.1744
 5056TIP3   OH236658   0.648   5.013   3.080 -0.1360  0.5901 -0.5739
 5056TIP3    H136659   0.709   5.086   3.073  0.2064  0.4189  0.5075
 5056TIP3    H236660   0.701   4.936   3.063 -0.6077  0.5999 -2.2644
 5057TIP3   OH236661   4.485   1.309  14.633  0.6639  0.3281 -0.4902
 5057TIP3    H136662   4.515   1.249  14.701 -0.2107  0.3280 -0.0987
 5057TIP3    H236663   4.562   1.361  14.611  1.8271 -1.7963 -1.7884
 5058TIP3   OH236664   0.863   6.066  16.482 -0.0398 -0.2012 -0.0232
 5058TIP3    H136665   0.895   6.128  16.548  1.0457 -1.2526  0.4906
 5058TIP3    H236666   0.786   6.025  16.523  0.6892 -0.9196  0.6565
 5059TIP3   OH236667   1.915   2.744  14.115  0.3560 -0.2176  0.9652
 5059TIP3    H136668   1.871   2.664  14.144 -0.5998 -0.7535 -1.6824
 5059TIP3    H236669   1.843   2.804  14.093  0.9974  0.2523  0.0666
 5060TIP3   OH236670   2.803   3.014  11.213 -0.0490  0.6014  0.0334
 5060TIP3    H136671   2.761   2.955  11.276  0.1288 -0.6939 -1.0200
 5060TIP3    H236672   2.738   3.082  11.197 -0.6647  0.1369  0.5090
 5061TIP3   OH236673   1.613   5.698   4.117 -0.2778  0.3971 -0.1579
 5061TIP3    H136674   1.631   5.624   4.175 -1.4976 -1.0874 -1.5789
 5061TIP3    H236675   1.551   5.752   4.165  0.0415  0.1105  0.5951
 5062TIP3   OH236676   0.247   0.553  14.419  0.0519  0.2005  0.2717
 5062TIP3    H136677   0.161   0.592  14.431  0.1188  0.4456 -0.0431
 5062TIP3    H236678   0.236   0.491  14.347 -0.5414 -1.8567  2.0247
 5063TIP3   OH236679   4.323   3.177  16.096  0.2590  0.4121 -0.1614
 5063TIP3    H136680   4.317   3.228  16.176  2.8227  0.4123  0.1258
 5063TIP3    H236681   4.269   3.100  16.112 -0.6573  1.2446  0.8538
 5064TIP3   OH236682   0.180   4.384  11.570 -0.4921 -0.2434 -0.1320
 5064TIP3    H136683   0.202   4.457  11.628 -1.1436  0.6533 -0.9832
 5064TIP3    H236684   0.086   4.372  11.579 -0.3456 -1.1898  0.2271
 5065TIP3   OH236685   3.927   2.596   1.714 -0.0350  0.3904  0.0749
 5065TIP3    H136686   3.892   2.514   1.679 -2.4415  0.8897  1.0731
 5065TIP3    H236687   3.886   2.664   1.661  0.4652  0.9827  0.4381
 5066TIP3   OH236688   3.981   0.364   4.376  0.7665  0.2536  0.0559
 5066TIP3    H136689   3.971   0.375   4.471  0.4613 -0.8783  0.1635
 5066TIP3    H236690   4.012   0.450   4.346  0.0965  0.8700  1.0583
 5067TIP3   OH236691   0.003   5.508   3.382 -0.0463 -0.2959 -0.0229
 5067TIP3    H136692   0.012   5.560   3.302 -0.5396 -0.5923 -0.2761
 5067TIP3    H236693  -0.087   5.525   3.411 -0.8165 -2.3161 -1.0537
 5068TIP3   OH236694   3.701   0.197  14.559 -0.1260 -0.1371 -0.2883
 5068TIP3    H136695   3.732   0.129  14.619  0.0973  0.6560  0.5253
 5068TIP3    H236696   3.771   0.263  14.559 -0.9587  0.7796  0.0838
 5069TIP3   OH236697   2.265   3.621  12.922 -0.0902  0.0960 -0.1822
 5069TIP3    H136698   2.301   3.545  12.969  0.2112  0.4851  0.2177
 5069TIP3    H236699   2.173   3.625  12.950  0.9502  2.6485  3.5468
 5070TIP3   OH236700   1.168   3.402   0.271  0.1685 -0.2697  0.3198
 5070TIP3    H136701   1.224   3.463   0.320  0.1962  0.1158 -0.1766
 5070TIP3    H236702   1.125   3.457   0.205  1.6419 -1.0546 -1.4046
 5071TIP3   OH236703   2.007   3.349   1.303 -0.0699  0.2970  0.4807
 5071TIP3    H136704   2.024   3.343   1.209 -1.3788 -0.1912  0.2638
 5071TIP3    H236705   1.988   3.442   1.318 -0.7284  0.2248  0.1065
 5072TIP3   OH236706   6.419   5.475  16.190 -0.5045 -0.3084 -0.6133
 5072TIP3    H136707   6.450   5.564  16.173 -0.9654 -0.0658 -0.1937
 5072TIP3    H236708   6.465   5.449  16.270 -2.6532  0.7261  1.0696
 5073TIP3   OH236709   2.663   4.785  14.257  0.4873 -0.6562 -0.1380
 5073TIP3    H136710   2.627   4.861  14.302  1.1796  0.1251 -0.8493
 5073TIP3    H236711   2.725   4.747  14.319  0.2530 -0.5513  0.1612
 5074TIP3   OH236712   2.471   4.419   2.884 -0.3422  0.0833  0.0228
 5074TIP3    H136713   2.482   4.355   2.954 -1.9052  0.2428  0.4586
 5074TIP3    H236714   2.421   4.373   2.817 -0.0855  0.3625 -0.3626
 5075TIP3   OH236715   3.622   5.979   4.493  0.2448 -0.0083 -0.3187
 5075TIP3    H136716   3.602   6.072   4.481  1.6610  0.2210 -1.1339
 5075TIP3    H236717   3.713   5.971   4.466 -0.0771 -1.7843 -0.9731
 5076TIP3   OH236718   0.339   0.249   5.872  0.3642  0.5770 -0.5107
 5076TIP3    H136719   0.355   0.323   5.930  0.7843  0.5697 -0.6187
 5076TIP3    H236720   0.326   0.288   5.786 -1.1218  0.6625 -0.2803
 5077TIP3   OH236721   1.433   6.033   4.720 -0.2768 -0.2551 -0.4090
 5077TIP3    H136722   1.455   6.124   4.699  0.7252 -0.8348 -2.0324
 5077TIP3    H236723   1.516   5.986   4.716 -0.4829 -0.9938  2.1403
 5078TIP3   OH236724   1.695   6.782  12.808 -0.0370  0.3269  0.0345
 5078TIP3    H136725   1.693   6.868  12.850 -0.3517  0.5530 -0.4262
 5078TIP3    H236726   1.629   6.788  12.739 -2.5891 -1.3979  2.1222
 5079TIP3   OH236727   1.251   4.269   1.859  0.0800 -0.0032  0.1109
 5079TIP3    H136728   1.189   4.212   1.812  0.2951 -1.9653  2.0513
 5079TIP3    H236729   1.334   4.257   1.812 -0.1634 -0.3162 -0.2507
 5080TIP3   OH236730   4.297   4.894  16.395 -0.1702  0.2113 -0.4553
 5080TIP3    H136731   4.286   4.800  16.391  0.9193  0.0757 -0.7074
 5080TIP3    H236732   4.262   4.919  16.481 -0.8166 -0.3611 -0.5489
 5081TIP3   OH236733   4.578   0.776  15.839 -0.3809  0.4457 -0.2711
 5081TIP3    H136734   4.610   0.688  15.856 -2.5240 -0.6089 -1.2803
 5081TIP3    H236735   4.651   0.821  15.797  0.4120 -1.2153 -0.7439
 5082TIP3   OH236736   0.520   4.301  10.406  0.4490  0.0678  0.6434
 5082TIP3    H136737   0.545   4.338  10.321  0.7822 -0.6278  0.4268
 5082TIP3    H236738   0.596   4.314  10.462  0.2082  0.5775  0.8557
 5083TIP3   OH236739   2.125   1.623  13.821  0.3159  0.2651 -0.3425
 5083TIP3    H136740   2.035   1.634  13.793  0.5633  0.4777 -1.0632
 5083TIP3    H236741   2.175   1.608  13.740  1.2555  2.3301 -0.1962
 5084TIP3   OH236742   3.385   0.752  12.427 -0.0168 -0.6635 -0.0360
 5084TIP3    H136743   3.474   0.781  12.406  1.0079 -3.4445  0.0794
 5084TIP3    H236744   3.396   0.692  12.501 -1.6549 -2.9605 -1.5382
 5085TIP3   OH236745   5.266   6.528   1.407 -0.1406 -0.2621  0.2686
 5085TIP3    H136746   5.184   6.568   1.376  0.6840  2.5483  1.4186
 5085TIP3    H236747   5.246   6.499   1.496  0.3260  1.4192  0.9638
 5086TIP3   OH236748   1.412   4.697  11.794  0.0995 -0.5094 -0.5375
 5086TIP3    H136749   1.488   4.647  11.824  0.5142 -0.8885 -2.1101
 5086TIP3    H236750   1.339   4.636  11.802  0.3385 -0.8648 -0.9899
 5087TIP3   OH236751   6.343   6.362  12.155  0.1886 -0.5653 -0.3097
 5087TIP3    H136752   6.359   6.450  12.187  0.8455 -0.0165 -2.0078
 5087TIP3    H236753   6.403   6.353  12.080 -0.7027 -2.0157 -0.8924
 5088TIP3   OH236754   5.567   5.746  15.825 -0.1492 -0.4665  0.2982
 5088TIP3    H136755   5.542   5.660  15.860 -0.9923 -0.8439 -1.1321
 5088TIP3    H236756   5.561   5.736  15.730  0.3503  1.0029  0.0854
 5089TIP3   OH236757   2.385   2.197   2.606 -0.6275 -0.2464  0.6112
 5089TIP3    H136758   2.343   2.118   2.639 -0.8715 -0.1080  0.6351
 5089TIP3    H236759   2.360   2.266   2.668  0.5978 -0.3835  1.2890
 5090TIP3   OH236760   2.278   2.359   0.303 -0.1618 -0.2222  0.1379
 5090TIP3    H136761   2.319   2.405   0.376 -1.2282 -0.6613  1.0585
 5090TIP3    H236762   2.346   2.354   0.236  0.7456  0.4873  0.9703
 5091TIP3   OH236763   4.554   0.128   3.777 -0.1594  0.2179  0.4137
 5091TIP3    H136764   4.502   0.119   3.857 -2.2241  0.3066 -0.8535
 5091TIP3    H236765   4.620   0.194   3.799  1.9754 -2.5551  3.2471
 5092TIP3   OH236766   6.135   1.128   4.214  0.0366  0.7386  0.7165
 5092TIP3    H136767   6.177   1.042   4.226 -0.8601  0.2999  0.7788
 5092TIP3    H236768   6.043   1.107   4.197 -0.1774  1.6932  0.6879
 5093TIP3   OH236769   1.723   0.541   3.942 -0.7412 -0.1328  0.2716
 5093TIP3    H136770   1.800   0.580   3.901 -0.7774  0.2867  0.5887
 5093TIP3    H236771   1.699   0.468   3.885 -1.0338  0.6780 -0.6653
 5094TIP3   OH236772   6.531   3.796   3.027 -0.0733 -0.2633 -0.5755
 5094TIP3    H136773   6.503   3.711   3.060 -0.2756 -0.0910 -0.2998
 5094TIP3    H236774   6.624   3.785   3.007 -0.0970 -0.5434 -0.5313
 5095TIP3   OH236775   1.977   1.069  14.198 -0.2581  0.7774 -0.1764
 5095TIP3    H136776   2.009   1.095  14.285  0.9840 -0.4036 -0.2445
 5095TIP3    H236777   2.034   1.116  14.137 -0.8851  1.3115 -0.3520
 5096TIP3   OH236778   5.026   2.764   0.720 -0.2781  0.2274  0.3878
 5096TIP3    H136779   5.046   2.690   0.663 -0.1381  1.0905 -0.7132
 5096TIP3    H236780   5.068   2.742   0.804 -1.2103 -1.4486  0.4506
 5097TIP3   OH236781   4.339   4.901   0.994  0.2820 -0.6598 -0.2437
 5097TIP3    H136782   4.412   4.901   0.932  2.2976 -1.9812  1.9722
 5097TIP3    H236783   4.286   4.825   0.970  1.7469 -1.9093  0.3543
 5098TIP3   OH236784   2.473   3.375   0.593  0.0897  0.1644 -0.5015
 5098TIP3    H136785   2.411   3.373   0.520 -0.5796  2.1533 -0.0638
 5098TIP3    H236786   2.418   3.376   0.672  0.8014 -1.9655  0.0741
 5099TIP3   OH236787   2.001   0.740  13.386 -0.0514 -0.3979  0.1506
 5099TIP3    H136788   1.931   0.723  13.449  0.6514  0.3353  1.1661
 5099TIP3    H236789   2.058   0.664  13.393 -0.0452 -0.3802  0.2972
 5100TIP3   OH236790   2.608   1.619  16.006 -0.4639 -0.3418  0.5185
 5100TIP3    H136791   2.630   1.544  15.950  0.4328 -0.3812  0.9029
 5100TIP3    H236792   2.608   1.694  15.947 -0.5370 -0.5263  0.2812
 5101TIP3   OH236793   1.917   4.295   0.416  0.1030  0.1836  0.4016
 5101TIP3    H136794   1.916   4.207   0.453  1.2923  0.7562  1.9364
 5101TIP3    H236795   1.945   4.351   0.489 -0.0066  1.7456 -0.7030
 5102TIP3   OH236796   4.559   6.123  10.992 -0.7439  0.4087  0.0108
 5102TIP3    H136797   4.497   6.084  11.053  0.3001 -0.1336  0.7689
 5102TIP3    H236798   4.584   6.206  11.032  0.9058 -0.5142  1.0394
 5103TIP3   OH236799   6.342   5.665   2.794 -0.2264 -0.7949 -0.6998
 5103TIP3    H136800   6.247   5.679   2.787 -0.2477 -0.8438 -0.5130
 5103TIP3    H236801   6.378   5.702   2.713 -0.1213  1.8434  0.4598
 5104TIP3   OH236802   1.882   4.076  15.971  0.0551  0.1069  0.5385
 5104TIP3    H136803   1.895   3.981  15.972  0.5696  0.1559 -0.2555
 5104TIP3    H236804   1.967   4.112  15.997 -0.4289  0.3521  1.8726
 5105TIP3   OH236805   4.435   4.075   0.526  0.2289 -0.0274 -0.0220
 5105TIP3    H136806   4.516   4.027   0.509  0.7051  0.7747 -0.0436
 5105TIP3    H236807   4.457   4.167   0.510 -1.2952  0.0201 -2.3161
 5106TIP3   OH236808   1.517   3.105   5.240 -0.2154 -0.1496  0.0140
 5106TIP3    H136809   1.608   3.085   5.262  0.0113 -0.0505 -0.7769
 5106TIP3    H236810   1.522   3.187   5.191 -0.8830  0.5771  1.1428
 5107TIP3   OH236811   0.403   1.805   3.030  0.3952  0.2063  0.3743
 5107TIP3    H136812   0.476   1.847   2.984  0.8956 -1.1392 -0.1144
 5107TIP3    H236813   0.335   1.797   2.964  0.4580 -0.1340  0.3519
 5108TIP3   OH236814   4.179   3.383  13.275  0.1195  0.0380  0.4481
 5108TIP3    H136815   4.182   3.466  13.322  0.9682 -0.7464  1.8364
 5108TIP3    H236816   4.237   3.395  13.200  1.8119  0.0785  1.7218
 5109TIP3   OH236817   1.215   6.093  15.785  0.3848  0.0028 -0.1617
 5109TIP3    H136818   1.183   6.085  15.875  2.0868  2.7275  0.8321
 5109TIP3    H236819   1.297   6.044  15.783  1.6671  1.9834  0.6320
 5110TIP3   OH236820   1.227   6.763   4.606 -0.2808 -0.3278  0.3356
 5110TIP3    H136821   1.143   6.777   4.563 -0.6547 -0.0829  1.1249
 5110TIP3    H236822   1.205   6.758   4.699  0.4725 -1.1321  0.4812
 5111TIP3   OH236823   1.535   2.002  16.742 -0.7272  0.0434 -0.3626
 5111TIP3    H136824   1.511   1.910  16.736 -0.6758  0.0451 -0.5964
 5111TIP3    H236825   1.630   2.003  16.729 -0.7227  0.1248 -0.3256
 5112TIP3   OH236826   0.032   2.270   0.092  0.1728  0.1679  0.0151
 5112TIP3    H136827   0.083   2.344   0.059  1.1428 -0.3846  0.2486
 5112TIP3    H236828   0.087   2.194   0.076  0.1915 -0.2531  1.8855
 5113TIP3   OH236829   2.881   1.963  17.135  0.8026 -0.6265 -0.2298
 5113TIP3    H136830   2.907   1.950  17.043  0.7894 -3.5527  0.0901
 5113TIP3    H236831   2.948   1.917  17.185 -0.7501 -1.5855  1.0368
 5114TIP3   OH236832   0.093   3.289  11.127  0.2284 -0.8878  0.2474
 5114TIP3    H136833   0.083   3.235  11.048  0.3889 -1.8235  0.8508
 5114TIP3    H236834   0.003   3.311  11.151  0.0221 -2.4644  1.0413
 5115TIP3   OH236835   0.703   3.993  17.086  0.0622 -0.2113  0.2322
 5115TIP3    H136836   0.610   3.979  17.066 -0.7907 -0.1117  3.5859
 5115TIP3    H236837   0.726   3.921  17.145  2.4677 -0.7902 -1.2920
 5116TIP3   OH236838   5.866   1.572  16.170  0.0826 -1.1820 -0.3622
 5116TIP3    H136839   5.932   1.540  16.232 -0.3554 -2.4899 -0.5336
 5116TIP3    H236840   5.783   1.564  16.217 -0.0804 -0.7149 -0.5727
 5117TIP3   OH236841   5.290   5.165   1.599  0.0130 -0.0309  0.1776
 5117TIP3    H136842   5.253   5.155   1.511  0.4154  2.1912 -0.3094
 5117TIP3    H236843   5.215   5.187   1.654 -0.0924 -0.4165  0.1904
 5118TIP3   OH236844   6.293   1.845   1.221  0.0905  0.0204  0.3352
 5118TIP3    H136845   6.202   1.868   1.206  0.3636  0.4784 -0.7300
 5118TIP3    H236846   6.290   1.771   1.282 -0.8992  1.4642  2.1292
 5119TIP3   OH236847   3.266   5.883   0.522 -1.0065  0.0626 -0.1829
 5119TIP3    H136848   3.279   5.788   0.526 -1.3538  0.0578  3.0621
 5119TIP3    H236849   3.354   5.918   0.508 -0.8385 -0.6707 -1.1200
 5120TIP3   OH236850   4.281   6.599  15.250 -0.2675 -0.3771 -0.1633
 5120TIP3    H136851   4.294   6.691  15.272  2.0190 -0.7090  0.1326
 5120TIP3    H236852   4.329   6.551  15.318 -1.5500 -1.8059 -0.2117
 5121TIP3   OH236853   3.116   5.541   3.109 -0.1211 -0.4637  0.0557
 5121TIP3    H136854   3.085   5.454   3.134  1.7087 -0.7648  1.5249
 5121TIP3    H236855   3.168   5.570   3.184  1.2620  0.8991 -1.3542
 5122TIP3   OH236856   5.856   4.360   1.794 -0.1848 -0.8716 -0.0729
 5122TIP3    H136857   5.796   4.309   1.849  0.9771 -0.4443  1.6564
 5122TIP3    H236858   5.844   4.451   1.824  1.2568 -0.7741  0.2481
 5123TIP3   OH236859   1.971   5.297  16.331 -0.2991  0.5624  0.2801
 5123TIP3    H136860   1.975   5.351  16.410  2.1290  1.9789 -0.6874
 5123TIP3    H236861   1.997   5.210  16.360 -1.7106  0.4642  1.3966
 5124TIP3   OH236862   1.292   2.034   1.640  0.9130  0.1770  0.3948
 5124TIP3    H136863   1.369   1.995   1.598 -0.0998 -1.9729  0.4447
 5124TIP3    H236864   1.227   2.040   1.571  1.0862  2.0484  0.3412
 5125TIP3   OH236865   4.008   0.523   3.496 -0.4025  0.1292  0.4429
 5125TIP3    H136866   3.973   0.527   3.407 -0.2547 -0.0260  0.3776
 5125TIP3    H236867   3.943   0.569   3.550 -0.7461 -0.2282  0.3368
 5126TIP3   OH236868   0.215   3.377  17.118  0.6260  0.2719  0.3754
 5126TIP3    H136869   0.132   3.420  17.141  0.0109 -0.9654  0.6030
 5126TIP3    H236870   0.213   3.370  17.023  0.3433  0.0276  0.3964
 5127TIP3   OH236871   3.201   3.238   2.446 -0.4365 -0.3097 -0.2884
 5127TIP3    H136872   3.234   3.210   2.531  0.0694  0.2702 -0.2873
 5127TIP3    H236873   3.223   3.331   2.441 -0.0061 -0.4544 -1.2644
 5128TIP3   OH236874   2.606   0.347   1.225  0.4115  0.3280 -0.8519
 5128TIP3    H136875   2.677   0.373   1.166  1.2189 -0.1847 -0.1296
 5128TIP3    H236876   2.626   0.391   1.307 -0.3478  0.5160 -0.7617
 5129TIP3   OH236877   5.633   2.487  12.644  0.4541  0.5706  0.2359
 5129TIP3    H136878   5.549   2.471  12.687  1.2088  0.3563  1.6739
 5129TIP3    H236879   5.652   2.404  12.599  0.5065  0.1689  0.9793
 5130TIP3   OH236880   1.407   4.178   1.303 -0.6973  0.0795 -0.1822
 5130TIP3    H136881   1.458   4.224   1.236 -1.0574  0.3105 -0.3001
 5130TIP3    H236882   1.316   4.204   1.287 -0.7293  0.5621  0.7348
 5131TIP3   OH236883   1.778   0.064   5.925  0.0420 -0.4134  0.0753
 5131TIP3    H136884   1.769   0.124   5.999  1.1474  0.4034 -0.4273
 5131TIP3    H236885   1.753  -0.021   5.961  1.9425 -0.3151  1.8112
 5132TIP3   OH236886   1.063   2.429   5.155  0.4431 -0.2633 -0.2699
 5132TIP3    H136887   1.056   2.524   5.147  0.9392 -0.0548  1.4506
 5132TIP3    H236888   1.009   2.395   5.083  0.8212  1.3024 -1.3401
 5133TIP3   OH236889   6.164   3.614  11.311  0.1172 -0.3104 -0.1756
 5133TIP3    H136890   6.224   3.643  11.243 -1.8045  2.2243 -0.9691
 5133TIP3    H236891   6.109   3.548  11.269  0.9793 -1.1054 -0.0718
 5134TIP3   OH236892   5.640   6.230  13.269  0.6999  0.4508  0.0143
 5134TIP3    H136893   5.712   6.266  13.321  0.5799 -0.7339  1.0479
 5134TIP3    H236894   5.590   6.306  13.241  1.3732  1.1836  0.7390
 5135TIP3   OH236895   5.393   6.270   6.111  0.0956  0.3360 -0.3002
 5135TIP3    H136896   5.453   6.344   6.109 -0.2186  0.6216  0.3220
 5135TIP3    H236897   5.316   6.300   6.063  0.0730  0.3195 -0.2747
 5136TIP3   OH236898   4.241   6.392  13.478 -0.1545 -0.2646 -0.2227
 5136TIP3    H136899   4.224   6.424  13.566  3.8489 -0.6957  0.8816
 5136TIP3    H236900   4.243   6.297  13.486  1.4564 -0.2765 -0.4324
 5137TIP3   OH236901   1.257   4.652  15.557 -0.1577 -0.1280  0.4862
 5137TIP3    H136902   1.343   4.668  15.517  0.2155 -2.7201  0.1100
 5137TIP3    H236903   1.197   4.707  15.506  1.3361  2.4988  1.3891
 5138TIP3   OH236904   3.330   0.040  16.651  0.2654 -0.3236  0.0329
 5138TIP3    H136905   3.345  -0.051  16.678  1.4106 -0.8939 -2.2735
 5138TIP3    H236906   3.239   0.043  16.624  0.7188 -1.3806 -1.7738
 5139TIP3   OH236907   0.420   4.147   0.096 -0.6426 -0.0953 -0.1446
 5139TIP3    H136908   0.366   4.223   0.075  0.1031  0.7891  1.0339
 5139TIP3    H236909   0.375   4.105   0.169 -0.2082  0.1323  0.2547
 5140TIP3   OH236910   6.123   2.471   4.608  0.2696 -0.0914  0.8065
 5140TIP3    H136911   6.088   2.386   4.636 -0.7841  0.1632  0.3004
 5140TIP3    H236912   6.169   2.453   4.526  0.7397 -0.2959  1.1045
 5141TIP3   OH236913   5.363   3.621   3.988 -0.8444 -0.3125 -0.4351
 5141TIP3    H136914   5.353   3.638   3.895 -0.7396 -1.1037 -0.5956
 5141TIP3    H236915   5.432   3.681   4.016  0.7399 -1.6309 -1.3472
 5142TIP3   OH236916   3.581   2.100   3.569 -0.4199 -0.5487  0.5988
 5142TIP3    H136917   3.533   2.181   3.554 -0.7336 -0.6712  0.9498
 5142TIP3    H236918   3.673   2.124   3.555 -0.6075 -0.4149 -0.5158
 5143TIP3   OH236919   1.879   6.263   5.519  0.8010  0.1712 -0.8026
 5143TIP3    H136920   1.923   6.253   5.435  0.3012 -0.4966 -0.9922
 5143TIP3    H236921   1.939   6.225   5.583  1.5631  1.4484 -0.7291
 5144TIP3   OH236922   2.216   4.725   2.314  0.4296  0.5775  0.2497
 5144TIP3    H136923   2.123   4.731   2.336  0.5373  3.2053  0.2248
 5144TIP3    H236924   2.218   4.726   2.219  0.4684 -0.0904  0.2401
 5145TIP3   OH236925   2.456   1.866   5.492 -0.0864 -0.0354  0.3019
 5145TIP3    H136926   2.396   1.891   5.563 -1.0249 -0.2171 -0.4170
 5145TIP3    H236927   2.527   1.820   5.537 -1.0046 -0.7668  1.0663
 5146TIP3   OH236928   6.507   6.468  13.122  0.5180 -0.3676 -0.4953
 5146TIP3    H136929   6.426   6.510  13.094  0.2763  0.5629  1.4451
 5146TIP3    H236930   6.504   6.380  13.083 -2.5727 -1.2257  1.3524
 5147TIP3   OH236931   4.975   1.925   0.909 -0.1441  0.0326 -0.5169
 5147TIP3    H136932   4.991   1.858   0.975 -1.4344 -0.2329 -0.4542
 5147TIP3    H236933   4.954   1.876   0.829 -0.3370  0.3519 -0.6655
 5148TIP3   OH236934   6.121   5.689   3.741  0.0891 -0.4339 -0.4515
 5148TIP3    H136935   6.058   5.732   3.799  1.1282  1.5284 -0.6886
 5148TIP3    H236936   6.206   5.727   3.765  0.9772 -1.8218 -1.2232
 5149TIP3   OH236937   6.052   3.168  14.396 -0.5015  0.3050  0.1668
 5149TIP3    H136938   5.986   3.158  14.328 -0.0181  1.2437 -0.4635
 5149TIP3    H236939   6.077   3.079  14.419 -0.4200 -0.0165 -1.1315
 5150TIP3   OH236940   6.653   3.334   0.292  0.0797  0.6769  0.7740
 5150TIP3    H136941   6.610   3.401   0.238 -2.0434 -0.0308  1.4915
 5150TIP3    H236942   6.671   3.263   0.230  2.0167  1.6940  0.0843
 5151TIP3   OH236943   0.882   4.263   4.958  0.5595 -0.5626  0.5371
 5151TIP3    H136944   0.811   4.322   4.981  0.5629 -0.2395 -0.2292
 5151TIP3    H236945   0.894   4.276   4.864  0.3162 -2.0392  0.2718
 5152TIP3   OH236946   5.611   5.259   3.732 -0.6410  0.1577  0.4782
 5152TIP3    H136947   5.572   5.194   3.790 -2.9430  0.3614 -0.7252
 5152TIP3    H236948   5.598   5.223   3.644 -1.0594  1.7819 -0.1588
 5153TIP3   OH236949   1.641   3.969  13.562  0.2290  0.3333 -0.5572
 5153TIP3    H136950   1.684   3.911  13.499  1.1961 -0.0721  0.4403
 5153TIP3    H236951   1.560   3.996  13.519 -0.3142 -1.8538 -1.0134
 5154TIP3   OH236952   5.758   2.170   5.715 -0.1615  0.0588 -0.1906
 5154TIP3    H136953   5.768   2.156   5.621 -0.6683  0.1141 -0.2531
 5154TIP3    H236954   5.780   2.262   5.728 -0.5951  0.1838 -0.3313
 5155TIP3   OH236955   1.933   4.888   5.837  0.0110  0.4229  0.8504
 5155TIP3    H136956   1.986   4.911   5.913 -0.9782 -1.4244  2.1960
 5155TIP3    H236957   1.848   4.864   5.874 -0.3107 -1.1631 -0.7582
 5156TIP3   OH236958   1.358   1.655   0.745 -1.1090  0.2085 -0.1942
 5156TIP3    H136959   1.308   1.698   0.814  0.1559 -1.2613  1.7545
 5156TIP3    H236960   1.425   1.719   0.720 -1.7251  0.8413 -0.2559
 5157TIP3   OH236961   0.281   2.184  12.785  0.5435 -1.0488  0.9367
 5157TIP3    H136962   0.231   2.147  12.712  1.6570 -0.1494 -0.3260
 5157TIP3    H236963   0.361   2.132  12.789  1.5987  0.4187 -0.1100
 5158TIP3   OH236964   2.201   4.131   6.016  0.2071 -0.4824 -0.8638
 5158TIP3    H136965   2.172   4.200   6.075  0.2060 -0.0572 -1.3544
 5158TIP3    H236966   2.281   4.097   6.055 -0.7557 -1.4555  0.3472
 5159TIP3   OH236967   3.335   2.149   2.162  0.4541  0.1619  0.0968
 5159TIP3    H136968   3.240   2.150   2.151  0.5142  0.7599 -0.4431
 5159TIP3    H236969   3.358   2.056   2.158 -0.1315 -0.0196  0.5552
 5160TIP3   OH236970   3.503   0.642   5.068  0.2338  0.2905 -0.4806
 5160TIP3    H136971   3.409   0.624   5.068  0.7220 -2.6756 -0.2100
 5160TIP3    H236972   3.529   0.634   4.977  0.5241 -0.9816 -0.3056
 5161TIP3   OH236973   3.131   0.785   1.496  0.4271 -0.4106  0.2257
 5161TIP3    H136974   3.207   0.784   1.555  1.9672  0.6704 -1.6431
 5161TIP3    H236975   3.060   0.746   1.548  1.9975 -0.5914  2.3614
 5162TIP3   OH236976   4.288   2.252  11.291  1.2392 -0.5999 -0.2126
 5162TIP3    H136977   4.281   2.162  11.258  0.1413  0.0982 -2.0123
 5162TIP3    H236978   4.314   2.304  11.214 -1.7968  1.1676 -0.2097
 5163TIP3   OH236979   2.355   4.374   5.799 -0.0994  0.2329 -0.0720
 5163TIP3    H136980   2.426   4.319   5.831 -0.6975 -0.6617 -0.2547
 5163TIP3    H236981   2.294   4.313   5.758 -1.2680  0.9090  0.6124
 5164TIP3   OH236982   3.065   3.969   0.698 -0.2195 -0.0215  0.3771
 5164TIP3    H136983   3.104   3.926   0.774 -2.0327 -0.7713  0.9465
 5164TIP3    H236984   3.006   3.903   0.661  1.4761 -0.1289 -2.4712
 5165TIP3   OH236985   4.695   1.014   4.132  0.0628 -0.0252 -0.6517
 5165TIP3    H136986   4.621   1.026   4.191  0.7612 -0.1776  0.2733
 5165TIP3    H236987   4.771   1.009   4.189  0.7487 -0.2865 -1.5606
 5166TIP3   OH236988   2.785   5.994   1.536 -0.6214  0.4135 -0.3606
 5166TIP3    H136989   2.752   5.996   1.626  0.0754 -2.1568  0.0382
 5166TIP3    H236990   2.858   6.056   1.536  1.4754 -1.8056  1.8601
 5167TIP3   OH236991   0.784   1.301  11.818 -0.4785  0.1363 -0.0630
 5167TIP3    H136992   0.836   1.330  11.893 -1.0225  0.5320  0.1660
 5167TIP3    H236993   0.785   1.375  11.758  1.1876 -0.6903 -1.1377
 5168TIP3   OH236994   4.795   6.006  15.615 -0.7495 -0.2470 -0.1488
 5168TIP3    H136995   4.806   5.971  15.527  0.2955  0.7529 -0.4493
 5168TIP3    H236996   4.881   5.994  15.656 -0.8561  0.4398  0.2895
 5169TIP3   OH236997   6.822   0.720  10.703 -0.2381  0.7915  0.0484
 5169TIP3    H136998   6.866   0.648  10.657  0.4940  1.2288  0.0554
 5169TIP3    H236999   6.757   0.676  10.758  0.9392  0.0359  0.8745
 5170TIP3   OH237000   0.347   1.409  12.079 -0.4130  0.2286  0.4717
 5170TIP3    H137001   0.404   1.365  12.142 -1.0201 -1.0005  0.1931
 5170TIP3    H237002   0.282   1.453  12.133 -0.2271  0.1713  0.7445
 5171TIP3   OH237003   1.577   1.414  15.969  0.2218 -0.4521 -0.7322
 5171TIP3    H137004   1.506   1.456  16.017  0.8036  0.5480 -0.7137
 5171TIP3    H237005   1.624   1.487  15.926  0.1622 -1.2394 -2.2167
 5172TIP3   OH237006   4.610   5.953   0.494 -0.1675 -0.1274 -0.6713
 5172TIP3    H137007   4.611   5.861   0.468 -0.6325 -0.7686  1.3803
 5172TIP3    H237008   4.532   5.989   0.450  1.3832  0.0319 -3.5502
 5173TIP3   OH237009   0.274   6.226  16.839 -0.3663 -0.3224  0.0011
 5173TIP3    H137010   0.188   6.264  16.818  0.7601  2.1927 -0.5115
 5173TIP3    H237011   0.287   6.247  16.931 -0.0787 -0.1413 -0.0768
 5174TIP3   OH237012   5.677   5.475   4.857  0.3133 -0.1960  0.1858
 5174TIP3    H137013   5.611   5.496   4.923 -0.5708  2.8981 -1.4853
 5174TIP3    H237014   5.641   5.400   4.810 -0.6899 -0.2834  1.0593
 5175TIP3   OH237015   1.934   2.084  11.853 -0.0422  0.4866 -0.1532
 5175TIP3    H137016   1.967   2.116  11.937 -1.2183  0.0159  0.5124
 5175TIP3    H237017   1.976   2.141  11.788 -1.0670  2.5675  0.9006
 5176TIP3   OH237018   6.826   3.434   1.552 -0.2752 -0.1393 -0.5757
 5176TIP3    H137019   6.817   3.406   1.461  0.4324 -1.4182 -0.2893
 5176TIP3    H237020   6.740   3.417   1.591 -0.4730  0.0638 -0.9232
 5177TIP3   OH237021   4.872   5.072  13.700 -0.1644  0.0655 -0.1583
 5177TIP3    H137022   4.794   5.096  13.649 -0.2833 -1.1099 -0.5503
 5177TIP3    H237023   4.843   5.075  13.791 -0.3167  0.8349 -0.2179
 5178TIP3   OH237024   4.998   5.765  16.591  0.2271 -0.2903  0.0632
 5178TIP3    H137025   5.040   5.783  16.507  1.2768 -0.4460  0.5325
 5178TIP3    H237026   5.026   5.837  16.647  1.0061 -1.1079  0.7625
 5179TIP3   OH237027   2.289   1.730   1.438  0.2219  0.0560  0.1419
 5179TIP3    H137028   2.331   1.710   1.522 -0.1190  0.8529  0.5079
 5179TIP3    H237029   2.328   1.667   1.377  1.5260  0.4068  0.5830
 5180TIP3   OH237030   4.756   6.830  16.843 -0.3547 -0.1648 -0.2601
 5180TIP3    H137031   4.827   6.796  16.899 -2.1819  1.0767  3.0829
 5180TIP3    H237032   4.736   6.916  16.880 -2.3310  0.3544 -2.3419
 5181TIP3   OH237033   5.550   2.264  13.788 -0.3096 -0.1836  0.0128
 5181TIP3    H137034   5.495   2.339  13.811  2.1466  0.9447  2.8939
 5181TIP3    H237035   5.639   2.292  13.808  0.7391 -3.8201  1.2084
 5182TIP3   OH237036   6.255   0.809   5.456  0.5976  0.0790 -0.8093
 5182TIP3    H137037   6.280   0.759   5.378  1.7764  1.4316 -1.3381
 5182TIP3    H237038   6.318   0.880   5.460  0.3875  0.2139  1.2401
 5183TIP3   OH237039   3.684   2.829   3.885 -0.3332 -0.7241 -0.5152
 5183TIP3    H137040   3.696   2.871   3.800 -0.5851 -0.6728 -0.5256
 5183TIP3    H237041   3.757   2.767   3.892  1.2034  1.0908  0.3421
 5184TIP3   OH237042   1.819   0.993   1.367  0.0967 -0.0555 -0.0800
 5184TIP3    H137043   1.902   0.964   1.330 -0.0027 -0.4829  0.0284
 5184TIP3    H237044   1.803   1.077   1.325  0.1331 -0.3931 -0.7916
 5185TIP3   OH237045   2.958   0.549  13.116  0.0276  0.6757 -0.0723
 5185TIP3    H137046   2.935   0.516  13.029 -4.0884  0.0733  1.0540
 5185TIP3    H237047   2.933   0.478  13.176 -0.0905  2.2253  1.8093
 5186TIP3   OH237048   5.376   6.702  14.771 -0.7543  0.3391  0.1456
 5186TIP3    H137049   5.318   6.691  14.696 -0.7839 -0.8412  0.3125
 5186TIP3    H237050   5.365   6.621  14.821  1.8332 -0.4646 -0.3925
 5187TIP3   OH237051   0.314   5.251   0.808  0.0258 -0.0720  0.0388
 5187TIP3    H137052   0.345   5.279   0.721  0.1611 -0.9818 -0.2161
 5187TIP3    H237053   0.343   5.320   0.867  1.0694 -0.0685 -0.4592
 5188TIP3   OH237054   1.576   1.438  11.848  0.3965  0.0846 -0.4699
 5188TIP3    H137055   1.644   1.442  11.781 -0.2397 -0.6627 -1.1757
 5188TIP3    H237056   1.519   1.513  11.830 -0.8523 -1.1470 -1.9928
 5189TIP3   OH237057   2.475   2.717  10.677  0.2355  0.5552 -0.2861
 5189TIP3    H137058   2.533   2.703  10.752 -1.7785  1.5094  1.5390
 5189TIP3    H237059   2.500   2.649  10.615  2.4606  0.1754  0.9163
 5190TIP3   OH237060   5.662   3.940  13.871  0.1919  0.2850 -0.4359
 5190TIP3    H137061   5.676   3.870  13.936  2.3322 -0.7666 -1.9140
 5190TIP3    H237062   5.615   3.897  13.800 -0.3976  0.9249 -0.4367
 5191TIP3   OH237063   6.516   4.070   5.199 -0.0268  0.3870  0.5853
 5191TIP3    H137064   6.439   4.023   5.231 -0.7864 -0.0085 -1.6752
 5191TIP3    H237065   6.482   4.132   5.134  1.5572  0.0638 -0.6291
 5192TIP3   OH237066   1.615   3.930  15.887  0.3237  0.5943  0.0091
 5192TIP3    H137067   1.566   3.853  15.861  0.2165  1.0657 -1.2943
 5192TIP3    H237068   1.707   3.904  15.880  0.3093  0.8411 -1.3693
 5193TIP3   OH237069   5.467   4.642  11.663  0.3940  0.0244 -0.4593
 5193TIP3    H137070   5.519   4.717  11.690 -0.3507 -0.1287  1.5707
 5193TIP3    H237071   5.531   4.577  11.634  1.2075  0.4370  0.3938
 5194TIP3   OH237072   3.153   4.139  12.698  0.1492 -0.1194  0.3406
 5194TIP3    H137073   3.117   4.087  12.626  1.6600  0.8266 -1.1737
 5194TIP3    H237074   3.163   4.077  12.770 -0.5310 -1.3194 -0.5648
 5195TIP3   OH237075   0.969   3.644   5.204 -0.3747  0.5131 -0.3051
 5195TIP3    H137076   1.023   3.723   5.206 -0.4434  0.5680 -0.5744
 5195TIP3    H237077   0.879   3.677   5.206 -0.4240  0.3803  1.9746
 5196TIP3   OH237078   4.845   6.091   0.511  0.1864  0.3519 -0.2983
 5196TIP3    H137079   4.854   6.095   0.415  1.4739  1.7071 -0.1605
 5196TIP3    H237080   4.771   6.033   0.525  1.1024 -1.3949 -2.0632
 5197TIP3   OH237081   5.625   6.708   5.818 -0.8896  0.0931  0.2710
 5197TIP3    H137082   5.627   6.752   5.904  0.2159  1.7098 -0.5219
 5197TIP3    H237083   5.717   6.704   5.791 -1.1735 -0.9043 -0.6015
 5198TIP3   OH237084   4.087   0.180  13.079  0.1657  0.4492  0.6177
 5198TIP3    H137085   4.120   0.091  13.086  0.3315  0.4322 -0.3043
 5198TIP3    H237086   4.137   0.230  13.144  2.0302  0.4282 -0.7442
 5199TIP3   OH237087   1.514   3.565   3.126  0.4695  0.3858  0.1571
 5199TIP3    H137088   1.599   3.555   3.168  0.7182 -0.2441 -0.4697
 5199TIP3    H237089   1.526   3.638   3.065  0.9344 -0.4754 -0.8096
 5200TIP3   OH237090   2.414   3.503  17.123 -0.5248 -0.0448  0.1172
 5200TIP3    H137091   2.437   3.552  17.044  1.7314  1.2679  1.4712
 5200TIP3    H237092   2.323   3.478  17.110 -0.1215 -0.2454 -3.0524
 5201TIP3   OH237093   5.213   6.080   5.328  0.2797 -0.0451  0.6462
 5201TIP3    H137094   5.214   6.134   5.407 -1.3447 -0.7934  1.2193
 5201TIP3    H237095   5.205   5.990   5.361  1.1578 -0.5088 -0.3412
 5202TIP3   OH237096   2.259   4.790   0.717  0.3831  0.3030  0.0874
 5202TIP3    H137097   2.309   4.779   0.798 -0.1561 -2.3436  0.1485
 5202TIP3    H237098   2.321   4.767   0.647  0.3907  1.0104 -0.1423
 5203TIP3   OH237099   5.966   1.178   4.950  0.1615 -0.5213  0.2406
 5203TIP3    H137100   6.005   1.110   4.895  1.2314 -0.7087  1.2110
 5203TIP3    H237101   5.987   1.260   4.905  0.4488 -0.7100  0.0282
 5204TIP3   OH237102   2.651   0.228   0.203 -0.0811  0.3494 -0.4642
 5204TIP3    H137103   2.560   0.257   0.196 -0.0505  0.3954 -0.6859
 5204TIP3    H237104   2.690   0.249   0.118 -0.0620 -0.3594 -0.6312
 5205TIP3   OH237105   2.389   2.527  16.006  0.5200 -0.1944  0.1013
 5205TIP3    H137106   2.444   2.570  15.940 -0.6597 -0.2759 -0.9817
 5205TIP3    H237107   2.314   2.586  16.018  0.7012 -0.1981  1.3625
 5206TIP3   OH237108   3.482   2.263  11.612  0.2636  0.2532 -0.6096
 5206TIP3    H137109   3.475   2.177  11.572  1.3607 -0.2987  0.3151
 5206TIP3    H237110   3.454   2.250  11.703  0.2021  0.9288 -0.5238
 5207TIP3   OH237111   5.368   1.628  13.336  0.1039  0.4425 -0.6608
 5207TIP3    H137112   5.334   1.717  13.351 -4.6084 -1.0655 -0.5901
 5207TIP3    H237113   5.409   1.604  13.418  0.1568  2.0236 -0.1815
 5208TIP3   OH237114   2.115   2.147   5.233  0.1304  0.5479 -0.0556
 5208TIP3    H137115   2.196   2.191   5.208  0.2054  0.9064  0.7704
 5208TIP3    H237116   2.083   2.107   5.152 -0.0303  2.2848 -0.9060
 5209TIP3   OH237117   2.552   6.794  13.793  0.1874  0.2839  0.2928
 5209TIP3    H137118   2.557   6.816  13.700  0.3518 -1.1238 -0.0472
 5209TIP3    H237119   2.459   6.775  13.808  0.2026  0.2603  0.3578
 5210TIP3   OH237120   3.922   4.205  12.014 -0.4726 -0.4787  0.6336
 5210TIP3    H137121   3.983   4.204  11.940  1.0203  0.7579  1.7860
 5210TIP3    H237122   3.871   4.285  12.002  1.7052  1.2901  2.3446
 5211TIP3   OH237123   4.805   0.217   2.751  0.5507  0.1177 -0.6742
 5211TIP3    H137124   4.788   0.309   2.771 -1.6722 -0.4446  0.2817
 5211TIP3    H237125   4.882   0.219   2.694  0.3485  2.5859 -0.9660
 5212TIP3   OH237126   3.768   0.756  14.109 -0.7337 -0.2037  0.3870
 5212TIP3    H137127   3.785   0.679  14.163 -0.2356  0.3223  0.9934
 5212TIP3    H237128   3.730   0.721  14.028 -0.4837 -1.0805  0.6447
 5213TIP3   OH237129   0.627   6.251   2.282 -0.0588 -0.2445  0.0112
 5213TIP3    H137130   0.672   6.323   2.237 -1.0069 -0.5621 -1.5299
 5213TIP3    H237131   0.582   6.293   2.355 -3.4844  1.5167 -2.8025
 5214TIP3   OH237132   4.240   1.646   4.178 -0.2739  0.3017 -0.8347
 5214TIP3    H137133   4.153   1.626   4.214  0.7242 -1.2335  0.8808
 5214TIP3    H237134   4.258   1.735   4.206  0.6124 -0.9373  3.0521
 5215TIP3   OH237135   4.712   3.808   5.429  0.1574 -0.7423  0.0790
 5215TIP3    H137136   4.620   3.821   5.409  0.1686 -0.0077  0.4643
 5215TIP3    H237137   4.759   3.848   5.355  0.1768 -0.1166  0.4292
 5216TIP3   OH237138   6.122   2.177   3.842 -0.4336 -0.3912  0.3046
 5216TIP3    H137139   6.038   2.131   3.837  0.0829 -1.4021  0.5537
 5216TIP3    H237140   6.184   2.118   3.798 -0.2235  1.3387 -1.8960
 5217TIP3   OH237141   5.764   0.525   3.484 -0.2305 -0.3193 -0.1430
 5217TIP3    H137142   5.695   0.466   3.515  1.1381 -1.0836  1.6532
 5217TIP3    H237143   5.743   0.610   3.522 -0.7307 -0.2825 -0.4865
 5218TIP3   OH237144   6.483   1.367   6.353 -0.1512  0.0572  0.1681
 5218TIP3    H137145   6.510   1.327   6.270  0.5708  1.3540 -0.2571
 5218TIP3    H237146   6.390   1.386   6.341  0.5270  2.9281 -1.5896
 5219TIP3   OH237147   2.715   4.629   3.848 -0.3567 -0.1018  0.0908
 5219TIP3    H137148   2.752   4.545   3.877  0.4106  0.7955  1.8995
 5219TIP3    H237149   2.712   4.622   3.753 -0.9410 -2.4258  0.2121
 5220TIP3   OH237150   6.691   4.819  13.421  0.1738 -0.3899 -0.5138
 5220TIP3    H137151   6.650   4.818  13.508  0.9111 -0.4445 -0.1553
 5220TIP3    H237152   6.618   4.822  13.360 -0.3497  1.4981  0.1298
 5221TIP3   OH237153   3.863   6.380  15.001 -0.2663 -0.1031  0.1570
 5221TIP3    H137154   3.869   6.431  14.920 -0.0527  0.0952  0.2935
 5221TIP3    H237155   3.776   6.398  15.035 -0.3913 -0.2639 -0.0798
 5222TIP3   OH237156   6.338   0.972  13.085  0.2092  0.3657  0.3862
 5222TIP3    H137157   6.293   1.056  13.088  0.9779  0.7749  1.3665
 5222TIP3    H237158   6.430   0.994  13.102  0.3119 -0.7286  1.3925
 5223TIP3   OH237159   3.969   5.972  12.493 -0.1513  0.1019 -0.0682
 5223TIP3    H137160   3.989   6.043  12.431  0.3657 -0.7727 -0.9311
 5223TIP3    H237161   3.963   6.015  12.578 -0.7224  1.3121 -0.6959
 5224TIP3   OH237162   4.103   6.108  14.060  0.3766 -0.3291 -0.2916
 5224TIP3    H137163   4.129   6.156  13.982 -2.3280 -1.1517 -1.8195
 5224TIP3    H237164   4.010   6.126  14.070  0.2302 -1.7741  1.6527
 5225TIP3   OH237165   5.568   6.064   5.212 -0.8020  0.1617 -0.3643
 5225TIP3    H137166   5.514   6.137   5.180 -0.1605 -0.1022 -2.1606
 5225TIP3    H237167   5.639   6.107   5.260 -1.6664  0.5888  0.5709
 5226TIP3   OH237168   3.851   0.068  11.484  0.1183 -0.3457  0.1126
 5226TIP3    H137169   3.884   0.049  11.396  0.9498 -0.5535  0.4648
 5226TIP3    H237170   3.844   0.164  11.486  0.7959 -0.2868  0.0555
 5227TIP3   OH237171   1.627   4.437   4.493  0.1375  0.1904  0.4050
 5227TIP3    H137172   1.698   4.404   4.548  1.0388 -0.5977 -1.1914
 5227TIP3    H237173   1.657   4.523   4.464 -0.1868  0.4570  0.8461
 5228TIP3   OH237174   2.283   0.884   3.752 -0.0956  0.0416  0.1834
 5228TIP3    H137175   2.247   0.796   3.761 -1.0347  0.4297  0.4141
 5228TIP3    H237176   2.267   0.907   3.660 -0.0445  0.0419  0.1750
 5229TIP3   OH237177   0.374   3.888  11.749 -0.4275 -0.4089  0.8324
 5229TIP3    H137178   0.307   3.823  11.769 -0.5795 -0.1434  1.2145
 5229TIP3    H237179   0.331   3.947  11.687 -1.2644  0.8960  2.5481
 5230TIP3   OH237180   2.680   6.513  12.945  0.1407 -0.2705  0.4996
 5230TIP3    H137181   2.602   6.472  12.982 -0.3244 -1.2018 -1.3825
 5230TIP3    H237182   2.719   6.561  13.018 -2.3778  0.5396  1.4145
 5231TIP3   OH237183   0.349   0.828  14.450  0.0139  0.2675 -0.2221
 5231TIP3    H137184   0.396   0.762  14.399 -1.6718  0.0486 -1.5837
 5231TIP3    H237185   0.309   0.778  14.522  0.5393  0.1874  0.0165
 5232TIP3   OH237186   1.453   0.408   1.896  0.5034 -0.3796 -0.1443
 5232TIP3    H137187   1.425   0.400   1.987  0.2644 -0.3422 -0.2140
 5232TIP3    H237188   1.374   0.431   1.848  0.3449 -1.6865 -0.5613
 5233TIP3   OH237189   2.628   0.462  15.135  0.0100  0.1142  0.1884
 5233TIP3    H137190   2.626   0.432  15.226 -1.9609 -1.1190 -0.1929
 5233TIP3    H237191   2.701   0.523  15.131  2.2691 -2.2872  1.7885
 5234TIP3   OH237192   6.131   4.683   0.427 -0.5921 -0.1692 -0.0743
 5234TIP3    H137193   6.036   4.682   0.412 -0.5572  1.3569 -0.6041
 5234TIP3    H237194   6.141   4.723   0.513 -0.4732 -1.8931  0.7437
 5235TIP3   OH237195   3.137   6.030   5.413 -0.3597 -0.0020 -0.2097
 5235TIP3    H137196   3.043   6.017   5.406 -0.9675  3.4659 -0.0281
 5235TIP3    H237197   3.162   5.980   5.491 -2.0870 -0.7497 -0.0955
 5236TIP3   OH237198   5.182   5.192  13.125 -0.0835  0.0231 -0.7659
 5236TIP3    H137199   5.274   5.190  13.100  0.1902 -1.3372  0.2222
 5236TIP3    H237200   5.181   5.172  13.218 -1.4239 -1.0793 -0.9731
 5237TIP3   OH237201   5.017   5.263   4.846  0.2350 -0.0028 -0.3105
 5237TIP3    H137202   5.025   5.329   4.914 -0.6507  0.8026 -0.9642
 5237TIP3    H237203   4.927   5.231   4.854  0.2370 -0.1603 -0.8684
 5238TIP3   OH237204   6.469   5.704  15.344  0.1609  0.1409  0.2102
 5238TIP3    H137205   6.552   5.729  15.303  0.9143 -0.1443  1.4982
 5238TIP3    H237206   6.490   5.694  15.437 -1.4708  0.7364  0.6899
 5239TIP3   OH237207   1.855   2.139   1.349 -0.2845  0.3578  0.0460
 5239TIP3    H137208   1.805   2.204   1.398 -0.2281  0.2131  0.2920
 5239TIP3    H237209   1.929   2.117   1.405 -1.6944 -1.9066  1.1748
 5240TIP3   OH237210   6.435   0.291   5.276 -0.0864  0.4525 -0.2791
 5240TIP3    H137211   6.371   0.269   5.344  0.5465  0.1894  0.2401
 5240TIP3    H237212   6.493   0.214   5.271  1.0814  1.2731  0.3070
 5241TIP3   OH237213   2.252   1.118  11.271 -0.4821 -0.1000 -0.0889
 5241TIP3    H137214   2.158   1.104  11.275 -0.7089  0.9452 -1.0378
 5241TIP3    H237215   2.283   1.057  11.204 -0.2378 -1.4516  1.2119
 5242TIP3   OH237216   6.497   2.925   2.648 -0.0668  0.1352 -0.5084
 5242TIP3    H137217   6.502   3.020   2.633  1.5599 -0.0702 -1.5290
 5242TIP3    H237218   6.587   2.899   2.666 -0.4350 -1.2833 -0.6268
 5243TIP3   OH237219   4.033   2.129   4.503  0.3300 -0.1391 -0.0022
 5243TIP3    H137220   4.121   2.097   4.483  0.7163  0.9340 -0.1012
 5243TIP3    H237221   4.030   2.216   4.464 -0.5286  0.1302  0.6273
 5244TIP3   OH237222   3.804   0.131  15.511  0.0960 -0.2051 -0.2317
 5244TIP3    H137223   3.779   0.220  15.536 -1.2777 -0.8085  0.7158
 5244TIP3    H237224   3.848   0.096  15.589  1.0218 -0.2221 -0.7548
 5245TIP3   OH237225   6.608   3.091  11.393 -0.0342 -0.2039  0.5288
 5245TIP3    H137226   6.624   3.183  11.370  1.9036 -0.2376  1.5597
 5245TIP3    H237227   6.647   3.041  11.322 -1.4632 -0.2785 -0.2505
 5246TIP3   OH237228   4.726   2.005  13.102  0.2214  0.2622 -0.2620
 5246TIP3    H137229   4.724   1.929  13.159  1.2308  1.3642  1.3271
 5246TIP3    H237230   4.804   1.994  13.048  1.5931  1.1317  1.4521
 5247TIP3   OH237231   0.159   6.196  12.916 -0.1844  0.0449  0.0904
 5247TIP3    H137232   0.206   6.118  12.888  1.5386  1.3066 -0.7340
 5247TIP3    H237233   0.102   6.218  12.842 -0.5432 -0.2935  0.2560
 5248TIP3   OH237234   1.103   2.362   4.684 -0.2094 -0.2676 -0.1109
 5248TIP3    H137235   1.185   2.322   4.654  0.9160  0.6399  1.5980
 5248TIP3    H237236   1.086   2.432   4.621  0.5365 -0.2358 -0.2905
 5249TIP3   OH237237   0.887   5.238  13.615  0.2026 -0.2622  0.6632
 5249TIP3    H137238   0.862   5.217  13.705  0.7919 -0.5387  0.7678
 5249TIP3    H237239   0.949   5.169  13.590 -1.8373 -1.6845 -0.8512
 5250TIP3   OH237240   1.503   4.720  13.021  0.7775 -0.0269 -0.8248
 5250TIP3    H137241   1.433   4.753  13.077  1.4721 -0.0593  0.0855
 5250TIP3    H237242   1.583   4.742  13.068  1.3318 -1.1610 -1.2205
 5251TIP3   OH237243   3.490   5.590   0.824 -0.3940  0.4168 -0.1060
 5251TIP3    H137244   3.563   5.528   0.819  0.6325  1.6025 -0.3724
 5251TIP3    H237245   3.431   5.553   0.890  0.8887 -0.1251  0.7727
 5252TIP3   OH237246   0.891   0.167   5.535  0.0335  0.1260 -0.6902
 5252TIP3    H137247   0.801   0.198   5.532  0.8379  2.7280 -0.1096
 5252TIP3    H237248   0.939   0.225   5.475  1.2855 -1.4252 -1.2755
 5253TIP3   OH237249   0.090   5.577   2.827  0.2138  0.1111 -0.2117
 5253TIP3    H137250   0.137   5.569   2.910 -0.1358  0.2631  0.0035
 5253TIP3    H237251   0.079   5.487   2.797 -0.9952 -0.0495  0.6655
 5254TIP3   OH237252   3.099   1.446  16.129  0.2115 -0.1815  0.5457
 5254TIP3    H137253   3.180   1.426  16.082 -0.3749 -1.0141 -0.1358
 5254TIP3    H237254   3.039   1.374  16.106 -0.1260 -0.5918  2.4895
 5255TIP3   OH237255   2.365   0.056  16.314  0.0315 -0.1802  0.1510
 5255TIP3    H137256   2.328   0.143  16.301 -0.6445 -0.9210 -3.9997
 5255TIP3    H237257   2.291   0.003  16.343 -0.2213  0.0420 -0.0781
 5256TIP3   OH237258   4.140   0.462  12.238  0.2057  0.2697 -0.0992
 5256TIP3    H137259   4.198   0.385  12.234 -1.4484 -1.0740  0.6233
 5256TIP3    H237260   4.125   0.475  12.332 -0.0111  1.1326 -0.2479
 5257TIP3   OH237261   2.138   5.546  16.491  0.1382  0.1150 -0.7919
 5257TIP3    H137262   2.232   5.549  16.477  0.8263  1.0821  3.0290
 5257TIP3    H237263   2.127   5.491  16.568 -2.1142  2.2242  0.5297
 5258TIP3   OH237264   6.011   5.496   2.589  0.1024  0.4745 -0.6164
 5258TIP3    H137265   6.027   5.574   2.536  0.2394 -0.5697 -2.1849
 5258TIP3    H237266   5.917   5.496   2.604  0.3034  1.8133  0.8494
 5259TIP3   OH237267   3.350   4.892   1.080  0.0895 -0.5270  0.6492
 5259TIP3    H137268   3.263   4.917   1.047  1.3686  0.9722 -1.9658
 5259TIP3    H237269   3.334   4.862   1.169 -3.2285 -1.2054 -0.0181
 5260TIP3   OH237270   1.835   4.603  14.632  0.3265  0.2954 -0.2154
 5260TIP3    H137271   1.880   4.568  14.555 -0.2306  1.6652 -1.2025
 5260TIP3    H237272   1.895   4.586  14.705  1.8137  0.8246 -1.2694
 5261TIP3   OH237273   2.659   2.962   3.042  0.3254  0.4132  0.3374
 5261TIP3    H137274   2.622   3.046   3.070 -0.5005  0.4821 -0.8936
 5261TIP3    H237275   2.616   2.897   3.099 -2.8855  0.3315 -1.9080
 5262TIP3   OH237276   5.669   3.894  12.404  0.1087  0.2528  0.0248
 5262TIP3    H137277   5.594   3.922  12.353 -0.1859 -0.1619  0.2239
 5262TIP3    H237278   5.656   3.801  12.418  1.2274 -0.0680 -0.8870
 5263TIP3   OH237279   0.243   5.861   3.857 -0.7612  0.3493 -0.0697
 5263TIP3    H137280   0.231   5.767   3.869 -0.5196  0.3958  0.5778
 5263TIP3    H237281   0.217   5.877   3.766  0.0683 -0.4873 -0.4715
 5264TIP3   OH237282   1.374   6.127   1.218  0.3258  0.0178 -0.0261
 5264TIP3    H137283   1.324   6.123   1.299  2.1604  0.8991  1.2366
 5264TIP3    H237284   1.352   6.047   1.172 -1.9251  0.2024  0.6022
 5265TIP3   OH237285   1.709   3.856  12.094 -0.6792  0.1604 -0.4080
 5265TIP3    H137286   1.637   3.793  12.102 -1.0576  0.5323 -0.8798
 5265TIP3    H237287   1.775   3.811  12.041 -0.9048  0.1248 -0.6557
 5266TIP3   OH237288   0.120   0.295   5.333 -0.5157 -0.2763  0.1086
 5266TIP3    H137289   0.091   0.257   5.416  1.2440  0.6126  1.1763
 5266TIP3    H237290   0.161   0.222   5.287 -1.4874 -0.7713 -0.0088
 5267TIP3   OH237291   4.985   1.570   3.187 -0.1253 -0.1539 -0.4211
 5267TIP3    H137292   4.937   1.504   3.237  0.6071 -0.8514 -0.6194
 5267TIP3    H237293   4.917   1.624   3.146 -0.7315 -0.6706 -0.1033
 5268TIP3   OH237294   0.908   1.189   1.626 -0.0356  0.0096 -0.1003
 5268TIP3    H137295   0.863   1.104   1.623 -1.9303  0.9872 -1.3327
 5268TIP3    H237296   0.997   1.168   1.655 -0.6025 -2.3235  0.1454
 5269TIP3   OH237297   2.651   4.065  14.783 -0.1718  0.9467  0.2695
 5269TIP3    H137298   2.722   4.010  14.817  1.1655  0.8530 -2.4567
 5269TIP3    H237299   2.658   4.059  14.688 -4.0304  0.7618 -0.1650
 5270TIP3   OH237300   1.385   1.950   4.467 -0.1212  0.5245  0.4312
 5270TIP3    H137301   1.392   1.879   4.531 -0.0533  0.9609  0.9157
 5270TIP3    H237302   1.454   1.931   4.403 -0.7081 -0.3487  0.0444
 5271TIP3   OH237303   5.606   2.137   4.395 -0.1058  0.0854  0.2456
 5271TIP3    H137304   5.583   2.230   4.391 -0.4236  0.0999  1.7625
 5271TIP3    H237305   5.692   2.136   4.437  0.3358 -0.2659 -0.6441
 5272TIP3   OH237306   1.632   4.605  11.229  0.1373 -1.2561 -0.4415
 5272TIP3    H137307   1.612   4.621  11.137  0.2871 -0.1554 -0.2889
 5272TIP3    H237308   1.717   4.561  11.227  0.8201  0.0339 -0.7773
 5273TIP3   OH237309   2.471   1.029  10.232 -0.2850 -0.3097 -0.0626
 5273TIP3    H137310   2.405   0.969  10.267 -0.7108 -0.3774 -0.9287
 5273TIP3    H237311   2.548   1.015  10.286 -0.6194 -1.0854  0.2322
 5274TIP3   OH237312   2.035   0.742   0.057 -0.6874 -0.0979 -0.1376
 5274TIP3    H137313   2.078   0.825   0.040 -1.3464  0.3058  0.0932
 5274TIP3    H237314   1.942   0.761   0.044 -1.1406 -0.0520  2.5832
 5275TIP3   OH237315   6.305   2.511   1.332 -0.1369  0.2136  0.4539
 5275TIP3    H137316   6.209   2.514   1.325 -0.1244 -1.2799 -0.9918
 5275TIP3    H237317   6.333   2.468   1.251  1.7367  0.1728  1.0873
 5276TIP3   OH237318   4.326   6.445  14.196 -0.4560 -0.6490 -0.9341
 5276TIP3    H137319   4.269   6.424  14.270  1.6837 -0.5297  0.8468
 5276TIP3    H237320   4.365   6.361  14.171  1.7060 -0.2116  0.6648
 5277TIP3   OH237321   4.715   5.605   2.315 -0.7494 -0.1724 -0.4550
 5277TIP3    H137322   4.628   5.582   2.282 -1.8508  2.8128  0.0147
 5277TIP3    H237323   4.710   5.590   2.409  0.2991 -2.7199 -0.7241
 5278TIP3   OH237324   4.882   2.558   1.447 -0.0548 -0.0723 -0.1844
 5278TIP3    H137325   4.888   2.648   1.479 -0.1804 -0.2567  0.3784
 5278TIP3    H237326   4.972   2.528   1.444  0.1797  0.6940 -2.2608
 5279TIP3   OH237327   1.032   5.273   5.327 -0.0338  0.5162  0.3463
 5279TIP3    H137328   1.108   5.315   5.368 -1.1381 -0.0186  3.1423
 5279TIP3    H237329   0.973   5.345   5.306 -0.1564  0.6983  1.2821
 5280TIP3   OH237330   5.182   1.214  16.977 -0.0457  0.2894  0.2829
 5280TIP3    H137331   5.144   1.256  17.053  0.8898  1.4777  0.1219
 5280TIP3    H237332   5.276   1.231  16.984  0.2811 -1.1598 -0.1835
 5281TIP3   OH237333   2.824   0.090   5.364 -0.1074  0.1935  0.2609
 5281TIP3    H137334   2.853   0.068   5.453  0.6206  3.0573  0.8317
 5281TIP3    H237335   2.843   0.183   5.355 -1.0356  0.1991 -2.6012
 5282TIP3   OH237336   3.968   1.800  12.839 -0.2451  0.3408  0.1390
 5282TIP3    H137337   3.973   1.711  12.874  1.0382  1.2016  2.3402
 5282TIP3    H237338   3.897   1.841  12.889 -0.8916  0.5555 -0.9309
 5283TIP3   OH237339   4.515   3.001  11.897  0.1223  0.5628  0.5323
 5283TIP3    H137340   4.595   2.953  11.915 -0.0754  0.7448  2.0451
 5283TIP3    H237341   4.467   3.000  11.980 -1.3762  0.5907 -0.2934
 5284TIP3   OH237342   5.663   5.981   4.507  0.0739  0.0386  0.0002
 5284TIP3    H137343   5.704   5.928   4.576  1.7116  1.4712  0.1945
 5284TIP3    H237344   5.605   6.041   4.554 -2.0570 -1.6575 -0.2422
 5285TIP3   OH237345   6.290   6.767   2.425  0.2063  0.0881 -0.0318
 5285TIP3    H137346   6.270   6.838   2.486  1.3594 -1.1059  1.8732
 5285TIP3    H237347   6.386   6.767   2.421  0.1702  0.9114 -2.9163
 5286TIP3   OH237348   2.335   1.005   0.565  0.1789  0.3846 -1.0503
 5286TIP3    H137349   2.387   0.927   0.543 -0.5257 -1.6869  3.5233
 5286TIP3    H237350   2.244   0.975   0.561 -0.1596  1.2869 -0.3351
 5287TIP3   OH237351   3.981   1.135   3.771 -0.2784  0.3179  0.0939
 5287TIP3    H137352   3.939   1.209   3.727  0.8235  0.3302 -0.9983
 5287TIP3    H237353   4.055   1.175   3.818  0.0588 -0.0195 -0.1390
 5288TIP3   OH237354   2.374   1.242  15.307  0.1791  0.2627  0.1399
 5288TIP3    H137355   2.396   1.290  15.227 -1.2331 -0.2275 -0.5845
 5288TIP3    H237356   2.326   1.305  15.360 -0.9122 -0.0574 -0.4325
 5289TIP3   OH237357   5.768   3.820   5.228 -0.9142  0.1498 -0.2492
 5289TIP3    H137358   5.774   3.742   5.284  0.2890  0.7526  0.4918
 5289TIP3    H237359   5.674   3.838   5.222 -1.0703  0.2807  1.9070
 5290TIP3   OH237360   4.478   2.101  16.964 -0.0115 -0.7983 -0.9042
 5290TIP3    H137361   4.534   2.025  16.946  1.4595 -0.9395  3.2090
 5290TIP3    H237362   4.524   2.175  16.924  1.4329 -1.3873 -0.4035
 5291TIP3   OH237363   0.356   2.625  15.249 -0.4756  0.0823  0.1045
 5291TIP3    H137364   0.299   2.658  15.180 -0.3187 -0.5429 -0.3403
 5291TIP3    H237365   0.341   2.530  15.249 -1.0878  0.1610  1.4914
 5292TIP3   OH237366   0.457   6.742   2.759 -0.0186 -0.3135 -0.7346
 5292TIP3    H137367   0.413   6.657   2.757 -0.8671  0.0618  0.6263
 5292TIP3    H237368   0.543   6.723   2.796  0.3817 -0.7986 -1.8719
 5293TIP3   OH237369   0.726   6.325  14.872 -0.2991 -0.4450 -0.9251
 5293TIP3    H137370   0.634   6.303  14.855 -0.5455  0.2550 -0.5014
 5293TIP3    H237371   0.772   6.242  14.859 -0.9456 -0.7362 -1.4504
 5294TIP3   OH237372   2.882   4.637   2.506  0.1024 -0.1823 -0.2320
 5294TIP3    H137373   2.977   4.631   2.519 -0.1061  0.4836  1.8003
 5294TIP3    H237374   2.844   4.625   2.593 -1.8260 -2.4244 -1.2556
 5295TIP3   OH237375   0.535   6.197   3.625  0.2426 -0.3357 -0.4299
 5295TIP3    H137376   0.530   6.280   3.579 -0.7770 -1.2985 -2.1738
 5295TIP3    H237377   0.612   6.154   3.589 -0.2414 -0.8682 -0.8477
 5296TIP3   OH237378   2.607   1.811  12.593  0.3044  0.1759 -0.0398
 5296TIP3    H137379   2.589   1.866  12.517  0.4997 -0.2881 -0.4258
 5296TIP3    H237380   2.611   1.872  12.666 -0.0642  0.6060 -0.3720
 5297TIP3   OH237381   6.266   1.412  12.028 -0.4260  0.5534  0.3472
 5297TIP3    H137382   6.252   1.398  12.121 -0.7489  1.8420  0.5036
 5297TIP3    H237383   6.178   1.408  11.989 -0.2080 -0.9628 -0.0712
 5298TIP3   OH237384   6.053   1.999  13.679  0.2830 -0.4472 -0.2948
 5298TIP3    H137385   5.982   1.938  13.659  1.3895 -2.1414  0.6845
 5298TIP3    H237386   6.026   2.082  13.639 -1.8940 -1.2213 -0.5469
 5299TIP3   OH237387   0.936   2.462   0.549 -0.2795 -0.8304  1.0469
 5299TIP3    H137388   0.865   2.419   0.502 -0.6323 -0.6593  1.4223
 5299TIP3    H237389   0.893   2.531   0.601  0.5562  2.6694 -2.4091
 5300TIP3   OH237390   2.409   2.845  14.897 -0.1403  0.4250  0.3662
 5300TIP3    H137391   2.331   2.790  14.904  0.3195 -0.3147 -0.2150
 5300TIP3    H237392   2.467   2.812  14.966  1.2697 -1.7294 -1.7305
 5301TIP3   OH237393   4.754   6.328  16.951  0.0314  0.6704 -0.1261
 5301TIP3    H137394   4.750   6.415  16.991  0.6197  0.1249  1.1647
 5301TIP3    H237395   4.663   6.296  16.953  0.2719 -0.0662  2.4939
 5302TIP3   OH237396   5.086   4.265   3.285 -0.1103 -0.5531 -0.6618
 5302TIP3    H137397   5.146   4.266   3.211 -0.1876  0.2895 -0.7218
 5302TIP3    H237398   5.021   4.332   3.264 -0.3450 -0.5721 -0.0105
 5303TIP3   OH237399   0.000   3.862   4.156  0.6733 -0.5746 -0.4008
 5303TIP3    H137400  -0.052   3.789   4.122 -0.8392  1.5674 -3.1710
 5303TIP3    H237401  -0.058   3.908   4.216  1.3773 -1.2351  0.8046
 5304TIP3   OH237402   0.889   0.045  14.405 -0.1079  0.7165 -0.3428
 5304TIP3    H137403   0.955   0.011  14.345  0.2452  0.9679 -0.0932
 5304TIP3    H237404   0.834   0.101  14.349 -0.8038 -0.3851 -0.7964
 5305TIP3   OH237405   6.625   0.122   2.808 -0.5080  0.3066  0.4715
 5305TIP3    H137406   6.579   0.038   2.803 -0.1965  0.1728 -0.3892
 5305TIP3    H237407   6.557   0.187   2.791 -0.7742  0.2468  1.2575
 5306TIP3   OH237408   4.526   5.185   5.152  0.8569 -0.2437  0.0438
 5306TIP3    H137409   4.570   5.118   5.204  1.9238  0.3981  0.0117
 5306TIP3    H237410   4.464   5.226   5.213  0.2778 -1.1697  0.0905
 5307TIP3   OH237411   3.121   4.432  15.734  0.2032 -0.1552 -0.4539
 5307TIP3    H137412   3.202   4.457  15.780 -0.1098  0.3153 -0.1476
 5307TIP3    H237413   3.146   4.431  15.641  0.7013 -0.5679 -0.3217
 5308TIP3   OH237414   2.384   1.289   3.608  0.6191  0.3409  0.2814
 5308TIP3    H137415   2.372   1.383   3.594 -1.3988 -0.1818 -2.0880
 5308TIP3    H237416   2.479   1.277   3.614  0.8783  2.6287  1.8977
 5309TIP3   OH237417   1.074   3.926  11.813 -0.4048 -0.0616  0.2521
 5309TIP3    H137418   1.037   3.957  11.730  0.2573 -1.6786 -0.7045
 5309TIP3    H237419   1.062   3.831  11.810  0.2316 -0.2100  1.7258
 5310TIP3   OH237420   2.295   0.312  12.960  0.0309 -0.3759  0.0166
 5310TIP3    H137421   2.379   0.346  12.928  0.2131 -0.5969  0.2489
 5310TIP3    H237422   2.257   0.384  13.010  0.7111 -0.7071  1.0455
 5311TIP3   OH237423   6.301   6.134  11.267 -0.1333 -0.5052  0.3600
 5311TIP3    H137424   6.307   6.046  11.229 -1.7519 -0.3515 -0.3121
 5311TIP3    H237425   6.290   6.192  11.191  0.9333  0.3104  0.7964
 5312TIP3   OH237426   3.194   1.394  16.909 -0.0099 -0.3509  0.7210
 5312TIP3    H137427   3.135   1.346  16.851  0.6848  0.1361 -0.4372
 5312TIP3    H237428   3.173   1.486  16.894 -0.1098 -0.2194  1.5888
 5313TIP3   OH237429   4.096   3.441  15.341  0.1329  0.2804 -0.0027
 5313TIP3    H137430   4.080   3.500  15.414  2.9008  1.4343 -0.2475
 5313TIP3    H237431   4.083   3.494  15.263 -1.4796 -0.6056 -0.4030
 5314TIP3   OH237432   0.191   1.294   2.010  0.5838 -0.1716  0.2826
 5314TIP3    H137433   0.280   1.297   2.045  0.3667  1.4645  0.7617
 5314TIP3    H237434   0.166   1.386   1.997 -0.6843 -0.6202 -0.7683
 5315TIP3   OH237435   0.859   0.724   2.689  0.2310  0.0533 -0.1425
 5315TIP3    H137436   0.888   0.770   2.768  0.7113 -1.8405  0.8580
 5315TIP3    H237437   0.889   0.634   2.702  0.2548 -0.3399 -2.4796
 5316TIP3   OH237438   2.179   4.060  14.044 -0.4148  0.0038  0.1389
 5316TIP3    H137439   2.093   4.022  14.024 -0.1452 -0.7716  0.3981
 5316TIP3    H237440   2.194   4.037  14.136 -0.0302  0.3376  0.1618
 5317TIP3   OH237441   4.343   2.032  13.127  0.4159 -0.4926  0.0376
 5317TIP3    H137442   4.276   2.004  13.189  0.3694  1.0738  0.7330
 5317TIP3    H237443   4.379   1.951  13.093 -2.6614 -1.4691 -1.3180
 5318TIP3   OH237444   5.907   5.158  14.740 -0.2409  0.3826 -0.4659
 5318TIP3    H137445   5.870   5.193  14.821  0.6400  0.2469  0.0087
 5318TIP3    H237446   5.854   5.197  14.671 -0.2569  1.4432  0.1211
 5319TIP3   OH237447   4.519   1.641  13.971  0.0749  0.3577 -0.5094
 5319TIP3    H137448   4.611   1.667  13.968  0.5107 -1.0652 -0.0179
 5319TIP3    H237449   4.476   1.710  14.021  1.1314  0.3085  0.4926
 5320TIP3   OH237450   2.023   3.193  10.381 -0.7389  0.5630  0.6338
 5320TIP3    H137451   2.067   3.278  10.371 -0.5495  0.2459 -1.8859
 5320TIP3    H237452   2.089   3.129  10.353 -1.3448 -0.3104  1.1680
 5321TIP3   OH237453   1.387   6.287   6.766  0.5196 -0.6832 -0.2041
 5321TIP3    H137454   1.377   6.277   6.672 -1.4237 -0.1768 -0.0886
 5321TIP3    H237455   1.481   6.297   6.779  0.9140 -1.6494 -1.9835
 5322TIP3   OH237456   6.168   1.633  13.185 -0.2976  0.4025 -0.5093
 5322TIP3    H137457   6.106   1.683  13.238 -0.8506 -0.0976 -0.6741
 5322TIP3    H237458   6.214   1.700  13.134  2.6447  1.2998  2.9120
 5323TIP3   OH237459   0.358   5.925   5.271 -0.0473  0.4623 -0.4323
 5323TIP3    H137460   0.340   5.989   5.339  2.1201  1.1961 -0.4545
 5323TIP3    H237461   0.296   5.854   5.288  0.6993  0.3873  2.6556
 5324TIP3   OH237462   0.003   5.715   2.589  0.0425 -0.2096  0.3602
 5324TIP3    H137463   0.041   5.671   2.665  0.1346 -0.3090  0.2575
 5324TIP3    H237464   0.068   5.780   2.563 -0.3910  0.4564  0.9260
 5325TIP3   OH237465   4.825   2.199  13.976  0.7751 -0.4052  0.4416
 5325TIP3    H137466   4.913   2.235  13.974  0.2979  0.7741  0.2502
 5325TIP3    H237467   4.819   2.145  13.897  0.3110  2.0034 -1.2571
 5326TIP3   OH237468   6.308   0.762   4.491 -0.4726 -0.2211 -0.1637
 5326TIP3    H137469   6.395   0.722   4.487 -0.4679 -0.1577 -0.8417
 5326TIP3    H237470   6.287   0.764   4.585 -0.3044 -1.4543 -0.0737
 5327TIP3   OH237471   6.442   0.889   0.696  0.5361  0.2646  0.2634
 5327TIP3    H137472   6.520   0.908   0.645 -0.3239  0.3603 -1.0501
 5327TIP3    H237473   6.456   0.800   0.729  0.2729 -0.5651 -1.7644
 5328TIP3   OH237474   2.797   0.207  12.180 -0.0721 -0.1976 -0.1394
 5328TIP3    H137475   2.718   0.176  12.225  0.2951 -0.6149  0.2419
 5328TIP3    H237476   2.786   0.301  12.172  0.1654  0.0042  1.5112
 5329TIP3   OH237477   0.629   2.592  11.771  0.5404 -0.1155  0.2070
 5329TIP3    H137478   0.632   2.553  11.858 -1.9514 -0.9924 -0.0379
 5329TIP3    H237479   0.581   2.674  11.783 -0.4733 -0.5984 -0.4241
 5330TIP3   OH237480   5.671   4.714   5.910 -0.2001 -0.0759  0.0110
 5330TIP3    H137481   5.640   4.653   5.843 -0.7829 -0.2377  0.4243
 5330TIP3    H237482   5.631   4.683   5.991 -2.0602  1.9537 -0.0534
 5331TIP3   OH237483   0.683   4.786  13.966  0.7066  0.4291 -0.8936
 5331TIP3    H137484   0.696   4.794  13.871  0.5954 -1.8411 -1.1547
 5331TIP3    H237485   0.756   4.732  13.995  0.3060  0.4644  0.2019
 5332TIP3   OH237486   1.839   6.338   0.490 -0.3206  0.2187 -0.0354
 5332TIP3    H137487   1.833   6.408   0.554  0.1659  0.4290 -0.2123
 5332TIP3    H237488   1.750   6.327   0.456 -0.7290 -0.3792  1.1792
 5333TIP3   OH237489   2.103   2.017   1.503  0.3932 -0.1995 -0.0732
 5333TIP3    H137490   2.198   2.002   1.511  0.4627  0.4459  0.3734
 5333TIP3    H237491   2.074   2.034   1.592 -0.1176 -0.2198 -0.2351
 5334TIP3   OH237492   2.649   3.881  16.533 -0.7885  0.0125  0.1539
 5334TIP3    H137493   2.582   3.850  16.594  0.4872 -1.0972  1.0756
 5334TIP3    H237494   2.622   3.848  16.448 -0.5232 -2.0253  0.8029
 5335TIP3   OH237495   6.786   3.690   3.104  0.5525  0.6294  0.1732
 5335TIP3    H137496   6.753   3.729   3.184  1.8010  1.4321  0.3369
 5335TIP3    H237497   6.861   3.745   3.079  0.3629  0.2503 -1.3947
 5336TIP3   OH237498   5.680   4.772   2.558 -0.6455  0.2756 -0.1523
 5336TIP3    H137499   5.692   4.844   2.497  1.6053  0.5725  0.5458
 5336TIP3    H237500   5.760   4.719   2.550  0.6635  1.3051  3.7002
 5337TIP3   OH237501   2.389   1.036  17.106  0.2741 -0.4556 -0.5283
 5337TIP3    H137502   2.370   1.107  17.167 -1.3683 -0.0533 -1.4425
 5337TIP3    H237503   2.483   1.021  17.115  0.1121 -0.3245  1.9654
 5338TIP3   OH237504   0.541   0.318   0.623 -0.2785  0.2777  0.3544
 5338TIP3    H137505   0.557   0.354   0.536  2.2843 -0.3868  0.4697
 5338TIP3    H237506   0.613   0.352   0.676 -0.1902 -1.5851  1.4929
 5339TIP3   OH237507   2.379   0.861  13.517  0.0424 -0.4524 -0.7022
 5339TIP3    H137508   2.292   0.824  13.528  0.3376 -0.9635 -0.0375
 5339TIP3    H237509   2.439   0.793  13.547  0.5691  0.8223  1.3763
 5340TIP3   OH237510   4.017   4.920   3.402  0.1256 -0.3660 -0.2781
 5340TIP3    H137511   4.025   4.923   3.306  0.9843  0.5135 -0.1915
 5340TIP3    H237512   4.024   4.827   3.423  1.0099 -0.4783 -0.9966
 5341TIP3   OH237513   2.526   4.976  16.610  0.1185 -0.0505 -0.0273
 5341TIP3    H137514   2.453   4.960  16.550  1.1361  1.4353 -1.7822
 5341TIP3    H237515   2.545   5.070  16.600  1.3054 -0.0794  1.5352
 5342TIP3   OH237516   4.963   0.469  15.409  0.6227  0.1304  0.3778
 5342TIP3    H137517   4.914   0.545  15.377  1.2292  0.9940  1.4281
 5342TIP3    H237518   5.023   0.505  15.474  2.3544 -0.9682 -0.5471
 5343TIP3   OH237519   5.512   3.591   1.917  0.1569 -0.0486  0.0414
 5343TIP3    H137520   5.573   3.596   1.844  0.3043  1.8486  0.2473
 5343TIP3    H237521   5.498   3.497   1.930  2.8190 -0.5610 -0.1747
 5344TIP3   OH237522   3.978   1.064  11.434 -0.4624  0.1241  0.4565
 5344TIP3    H137523   3.941   1.136  11.382  1.9616  0.6544 -0.6714
 5344TIP3    H237524   4.036   1.019  11.374  0.9313 -0.4782  2.1781
 5345TIP3   OH237525   1.300   3.633  16.772  0.0547 -0.3955  0.2230
 5345TIP3    H137526   1.208   3.646  16.795 -0.6680 -1.2312 -1.9984
 5345TIP3    H237527   1.340   3.719  16.787 -1.1174  0.0631  0.9497
 5346TIP3   OH237528   3.059   0.924   5.116 -0.2241 -0.2352  0.0422
 5346TIP3    H137529   3.050   0.954   5.026  0.2745  0.0842  0.0953
 5346TIP3    H237530   2.987   0.967   5.163 -2.8992 -3.2617 -0.8659
 5347TIP3   OH237531   1.143   1.229   0.637 -0.0016  0.4663  0.1297
 5347TIP3    H137532   1.057   1.236   0.596 -0.4417  1.0542  1.0975
 5347TIP3    H237533   1.184   1.314   0.622  0.3998  0.1962 -0.3071
 5348TIP3   OH237534   5.519   3.602  12.155  0.0108 -0.6229 -0.3336
 5348TIP3    H137535   5.543   3.532  12.094  0.4428  0.3665 -1.3305
 5348TIP3    H237536   5.579   3.674  12.134 -1.5262  0.6555 -0.4862
 5349TIP3   OH237537   4.158   6.327  15.581  0.1676  0.8551 -0.0735
 5349TIP3    H137538   4.160   6.275  15.501 -0.7019  0.8199 -0.0903
 5349TIP3    H237539   4.247   6.324  15.615  0.3628  0.2164 -0.6266
 5350TIP3   OH237540   4.290   4.714   4.416  0.0209 -0.1151 -0.3403
 5350TIP3    H137541   4.257   4.627   4.440  1.6414 -1.5723 -2.8471
 5350TIP3    H237542   4.303   4.708   4.321  0.1930  2.9136 -0.5755
 5351TIP3   OH237543   1.186   5.497   4.685  0.3779  0.4507  0.2440
 5351TIP3    H137544   1.199   5.517   4.592  0.2164 -0.1154  0.0972
 5351TIP3    H237545   1.270   5.461   4.713  0.4906  0.8041  0.3728
 5352TIP3   OH237546   6.201   4.021   1.416  0.0092 -0.4732 -0.0064
 5352TIP3    H137547   6.144   4.009   1.491  0.9126  0.3041  0.8292
 5352TIP3    H237548   6.241   3.935   1.402  1.3834 -0.1871  1.7278
 5353TIP3   OH237549   2.190   0.325  14.091 -0.6476 -0.5793  0.6106
 5353TIP3    H137550   2.161   0.235  14.106 -0.4183 -0.9855 -1.1888
 5353TIP3    H237551   2.139   0.354  14.016 -1.2142  1.0686  1.5705
 5354TIP3   OH237552   2.103   6.497  12.004  0.5543 -0.0984 -0.4925
 5354TIP3    H137553   2.179   6.455  11.964  0.1206 -0.4733 -0.9381
 5354TIP3    H237554   2.108   6.474  12.097 -0.5190 -2.4842 -0.9606
 5355TIP3   OH237555   3.256   6.319   2.138 -0.0084 -0.4603  0.1682
 5355TIP3    H137556   3.271   6.382   2.068 -2.0934 -0.1432 -0.0613
 5355TIP3    H237557   3.244   6.372   2.216 -0.8021 -0.6011  0.1534
 5356TIP3   OH237558   3.770   0.455   0.677 -0.6188  0.2584  0.1542
 5356TIP3    H137559   3.752   0.472   0.585  1.4611  0.5261 -0.2680
 5356TIP3    H237560   3.777   0.542   0.716 -1.1191  0.1527  0.4833
 5357TIP3   OH237561   1.272   6.412  16.709 -0.1172  0.2995 -0.5327
 5357TIP3    H137562   1.262   6.322  16.740 -0.2076  0.6589  0.5052
 5357TIP3    H237563   1.264   6.466  16.788 -2.6864  1.4131 -1.4437
 5358TIP3   OH237564   5.115   1.614  15.974 -0.0725 -0.0596  0.0110
 5358TIP3    H137565   5.061   1.535  15.978 -0.7498  0.4028  0.1446
 5358TIP3    H237566   5.095   1.652  15.889  0.0573  0.0991  0.0523
 5359TIP3   OH237567   2.422   3.964   4.873  0.0273  0.3789 -0.0891
 5359TIP3    H137568   2.456   4.048   4.842  2.0506 -1.3393 -2.9183
 5359TIP3    H237569   2.327   3.970   4.860  0.1346  2.1906 -0.2613
 5360TIP3   OH237570   6.737   1.387   5.690  0.3628  0.8254 -0.3906
 5360TIP3    H137571   6.759   1.437   5.768  0.2130 -0.7964  0.7334
 5360TIP3    H237572   6.813   1.330   5.675  0.4249  1.1606 -1.4963
 5361TIP3   OH237573   0.735   1.925   1.227 -0.1778 -0.1418 -0.3210
 5361TIP3    H137574   0.697   1.842   1.199 -0.1452  0.3900 -2.1055
 5361TIP3    H237575   0.660   1.980   1.249 -0.2037 -0.5776  0.7497
 5362TIP3   OH237576   5.487   0.521   5.076  0.3180  0.4171  0.0214
 5362TIP3    H137577   5.395   0.494   5.077  0.4172  0.0948  0.9128
 5362TIP3    H237578   5.489   0.602   5.126 -0.1451  2.7648 -3.4447
 5363TIP3   OH237579   0.763   5.843  12.467 -0.2854 -0.2952 -0.3947
 5363TIP3    H137580   0.825   5.771  12.477 -0.3171 -0.1896  0.7708
 5363TIP3    H237581   0.792   5.908  12.532 -0.6098  0.4866 -1.0129
 5364TIP3   OH237582   4.272   6.371  11.831  0.3532  0.6530 -0.2628
 5364TIP3    H137583   4.345   6.308  11.827  0.5226  0.7393  1.0003
 5364TIP3    H237584   4.267   6.408  11.743 -0.0861 -1.4904 -1.1875
 5365TIP3   OH237585   3.049   3.153   4.667  1.0589 -0.0262  0.4788
 5365TIP3    H137586   3.122   3.214   4.660  2.5675 -1.4345  2.6629
 5365TIP3    H237587   2.988   3.195   4.728  1.6957 -0.3051  1.3243
 5366TIP3   OH237588   6.510   5.982  11.999 -0.3577  0.1274 -0.3767
 5366TIP3    H137589   6.443   5.930  12.044 -1.3401  2.3767  0.9371
 5366TIP3    H237590   6.481   5.984  11.907 -1.9506  0.7091  0.0887
 5367TIP3   OH237591   2.287   5.953   2.266 -0.2995  0.3337  0.1609
 5367TIP3    H137592   2.271   6.037   2.309  0.9759  0.9476 -0.5119
 5367TIP3    H237593   2.381   5.953   2.247 -0.4883 -0.7543 -0.8924
 5368TIP3   OH237594   1.231   5.650   5.803 -0.2606  0.4247 -0.0413
 5368TIP3    H137595   1.196   5.721   5.749  1.9714  0.6597 -1.3239
 5368TIP3    H237596   1.264   5.694   5.882 -0.7633  0.5148  0.1202
 5369TIP3   OH237597   4.482   1.663  16.717  0.8989 -0.1785  0.5085
 5369TIP3    H137598   4.534   1.693  16.643 -0.7793  1.9439  0.1126
 5369TIP3    H237599   4.511   1.573  16.731 -0.6917 -1.8612 -4.6433
 5370TIP3   OH237600   2.830   2.802   3.414  0.7501  0.3831  0.1276
 5370TIP3    H137601   2.771   2.776   3.485  0.6633 -1.1637 -0.4795
 5370TIP3    H237602   2.852   2.893   3.433 -1.9412  1.0611  0.3063
 5371TIP3   OH237603   3.567   5.027   4.526  0.4805  0.7910 -0.4750
 5371TIP3    H137604   3.598   4.939   4.548 -2.0260 -0.2041 -0.6559
 5371TIP3    H237605   3.564   5.029   4.431 -0.5766  0.6247 -0.4588
 5372TIP3   OH237606   0.533   4.431   4.034 -0.8025 -0.2589  0.1937
 5372TIP3    H137607   0.503   4.362   3.974 -1.5147 -1.6207  2.0099
 5372TIP3    H237608   0.519   4.512   3.987 -0.8581 -1.2896 -1.6663
 5373TIP3   OH237609   1.975   3.413   2.966 -0.2951  0.1059 -0.4189
 5373TIP3    H137610   2.009   3.425   2.877  0.9237  2.5941  0.2936
 5373TIP3    H237611   2.053   3.418   3.022 -1.0284 -1.5524  0.8175
 5374TIP3   OH237612   3.521   4.701  13.972  0.2317 -0.3066  0.1796
 5374TIP3    H137613   3.506   4.618  13.927  0.8362 -0.0334 -0.5587
 5374TIP3    H237614   3.485   4.767  13.913  1.3104  0.0829 -0.0747
 5375TIP3   OH237615   4.958   1.233  15.378 -0.1828  0.9366 -0.6055
 5375TIP3    H137616   4.866   1.252  15.399 -0.7165 -1.7476 -0.1322
 5375TIP3    H237617   4.954   1.189  15.293  0.0973 -2.5883  1.0027
 5376TIP3   OH237618   0.994   0.768   1.219  0.6529 -0.2107 -0.2419
 5376TIP3    H137619   0.939   0.826   1.271 -0.6154 -1.3909 -0.2018
 5376TIP3    H237620   0.975   0.680   1.253  1.9839 -0.7349 -0.7672
 5377TIP3   OH237621   2.114   2.369   0.054  0.1739 -0.0684 -0.0490
 5377TIP3    H137622   2.146   2.355   0.143 -0.7429  0.5505  0.3870
 5377TIP3    H237623   2.167   2.440   0.020 -1.2147  1.5354  0.9706
 5378TIP3   OH237624   3.763   3.332   4.769  0.2993  0.3568  0.7369
 5378TIP3    H137625   3.725   3.362   4.686 -2.9299  1.0942  2.3278
 5378TIP3    H237626   3.724   3.388   4.835  0.5498 -2.0041  3.0562
 5379TIP3   OH237627   0.986   4.350  15.962  0.4261 -0.0095 -0.4145
 5379TIP3    H137628   0.953   4.333  15.874 -1.8520  1.2009  0.1165
 5379TIP3    H237629   1.050   4.421  15.951  1.5541 -1.1132 -1.2638
 5380TIP3   OH237630   2.426   0.733   0.048  0.3162  0.0981 -0.2777
 5380TIP3    H137631   2.406   0.741  -0.045  1.3011  0.2943 -0.4912
 5380TIP3    H237632   2.370   0.662   0.080  0.2108 -0.1892 -1.0939
 5381TIP3   OH237633   6.768   3.202   2.097 -0.2540 -0.1587 -0.1062
 5381TIP3    H137634   6.779   3.270   2.031 -1.6701 -0.4711 -0.6965
 5381TIP3    H237635   6.853   3.196   2.140  0.0288  1.6425 -0.3621
 5382TIP3   OH237636   2.872   1.284   2.252 -0.3877 -0.1209 -0.2706
 5382TIP3    H137637   2.788   1.292   2.297 -0.0803  3.2579 -0.0440
 5382TIP3    H237638   2.851   1.239   2.170 -1.8161 -2.0228  1.0405
 5383TIP3   OH237639   1.481   3.966  14.217  0.2071  0.3052  0.3416
 5383TIP3    H137640   1.438   3.883  14.237 -0.0207  0.6287  1.2517
 5383TIP3    H237641   1.563   3.941  14.176 -1.4608 -0.3215 -2.9081
 5384TIP3   OH237642   6.745   1.466   4.009  0.8132  0.0142 -0.3012
 5384TIP3    H137643   6.808   1.491   4.076  1.1228 -1.1195 -0.1508
 5384TIP3    H237644   6.749   1.370   4.006 -0.8509 -0.0872 -0.3359
 5385TIP3   OH237645   2.626   4.106  16.725  0.4057  0.6119  0.1288
 5385TIP3    H137646   2.669   4.133  16.644 -0.2792  1.5275  0.0606
 5385TIP3    H237647   2.595   4.017  16.706  0.8444  0.5517 -0.3643
 5386TIP3   OH237648   3.728   2.558  15.488 -0.3563 -0.7445 -0.0076
 5386TIP3    H137649   3.784   2.631  15.514 -0.6985 -1.0601  1.7114
 5386TIP3    H237650   3.770   2.523  15.409 -0.4865  1.5965 -1.2162
 5387TIP3   OH237651   2.558   6.160  15.623 -0.1167 -0.1449  0.2184
 5387TIP3    H137652   2.470   6.165  15.660 -0.3972 -1.0531 -0.3128
 5387TIP3    H237653   2.614   6.196  15.692 -0.5060 -2.6809  2.0070
 5388TIP3   OH237654   3.948   4.723   5.141 -0.2445 -0.5755  0.1837
 5388TIP3    H137655   3.865   4.681   5.117 -0.4865 -0.2383  0.4321
 5388TIP3    H237656   3.956   4.795   5.079 -0.9103  0.3489  1.1348
 5389TIP3   OH237657   2.991   4.470   0.034  0.0731  0.4536 -0.1431
 5389TIP3    H137658   2.903   4.461  -0.004 -0.1130 -1.9691  0.7252
 5389TIP3    H237659   2.994   4.406   0.104  3.2271 -1.0738 -1.4746
 5390TIP3   OH237660   4.211   2.376   5.052 -0.0234  0.6012 -0.3034
 5390TIP3    H137661   4.187   2.467   5.038  1.2037  1.1295  0.8389
 5390TIP3    H237662   4.247   2.347   4.968  0.8053  1.5836 -0.3047
 5391TIP3   OH237663   5.255   1.617  11.706 -0.0707 -0.9519 -0.4706
 5391TIP3    H137664   5.195   1.548  11.677 -1.6724 -0.3601  1.2242
 5391TIP3    H237665   5.304   1.577  11.778 -1.7475 -0.0973  1.2306
 5392TIP3   OH237666   1.309   0.958  14.995 -0.4300  0.3496  0.1776
 5392TIP3    H137667   1.277   0.961  15.085 -3.0112 -0.7616 -0.5853
 5392TIP3    H237668   1.364   1.035  14.986 -0.7825  0.9393  2.4542
 5393TIP3   OH237669   1.285   3.293  11.436 -0.1065  0.1368 -0.4474
 5393TIP3    H137670   1.312   3.385  11.438 -1.2552  0.6117 -2.9216
 5393TIP3    H237671   1.224   3.288  11.362 -0.0195 -2.6501 -0.4097
 5394TIP3   OH237672   4.428   0.994  12.308  0.1946 -0.2774  0.3404
 5394TIP3    H137673   4.398   0.905  12.289  2.0155 -1.4061  2.2908
 5394TIP3    H237674   4.522   0.992  12.288  0.3229  1.1452  0.6814
 5395TIP3   OH237675   2.960   2.867   4.978  0.3399  0.0587  0.1192
 5395TIP3    H137676   3.023   2.883   4.908 -0.4766  1.9748 -0.2355
 5395TIP3    H237677   2.987   2.783   5.016  2.0943  0.0323 -1.0790
 5396TIP3   OH237678   3.468   4.776  13.252 -0.1793  0.1853  0.1247
 5396TIP3    H137679   3.507   4.863  13.261 -1.4207  0.7342  0.3858
 5396TIP3    H237680   3.379   4.786  13.288 -0.4761 -1.0869 -0.2200
 5397TIP3   OH237681   2.470   3.041  12.265  0.5351 -0.0941 -0.2649
 5397TIP3    H137682   2.473   3.099  12.189 -0.3661 -0.6159 -0.7256
 5397TIP3    H237683   2.379   3.046  12.295  0.2747 -1.6582 -0.6652
 5398TIP3   OH237684   4.445   2.871   1.330 -0.3465  0.1682 -0.1296
 5398TIP3    H137685   4.414   2.901   1.244  2.0783 -1.5770 -1.7519
 5398TIP3    H237686   4.529   2.916   1.341 -0.4194  0.0146  1.1410
 5399TIP3   OH237687   6.731   5.440   5.618 -0.4398 -0.1712 -0.2560
 5399TIP3    H137688   6.764   5.528   5.630 -0.2040 -0.2359 -0.4303
 5399TIP3    H237689   6.808   5.384   5.627 -0.1313 -0.2112 -2.4943
 5400TIP3   OH237690   6.138   2.345   0.154  0.0224  0.4948 -0.0081
 5400TIP3    H137691   6.100   2.361   0.068 -1.0899 -0.7129  0.2291
 5400TIP3    H237692   6.190   2.423   0.172  2.0539 -0.0996 -2.6920
 5401TIP3   OH237693   5.285   4.406  11.687  0.0484  0.1070 -0.4760
 5401TIP3    H137694   5.333   4.486  11.708 -1.0088  1.2952 -2.3109
 5401TIP3    H237695   5.324   4.376  11.605 -0.1270 -0.8052 -0.2388
 5402TIP3   OH237696   6.825   0.445   4.470  0.7726 -0.1058 -0.2421
 5402TIP3    H137697   6.841   0.538   4.480 -1.8906  0.2979  1.5423
 5402TIP3    H237698   6.810   0.414   4.560 -1.3261 -1.5740 -1.0190
 5403TIP3   OH237699   1.819   6.448   4.243 -0.2801 -0.3378 -0.4648
 5403TIP3    H137700   1.759   6.423   4.314 -1.1540  0.8709 -0.7438
 5403TIP3    H237701   1.894   6.487   4.287 -0.4647 -0.3052 -0.1769
 5404TIP3   OH237702   4.518   0.492   2.848  0.9732  1.0382 -0.7184
 5404TIP3    H137703   4.440   0.547   2.848  1.0973  1.2428  0.3970
 5404TIP3    H237704   4.509   0.438   2.927  0.4813 -1.1151 -2.1465
 5405TIP3   OH237705   2.317   5.694  14.456  0.2281  0.8059 -0.9789
 5405TIP3    H137706   2.228   5.659  14.447  0.3311  0.1399  0.3758
 5405TIP3    H237707   2.359   5.673  14.372 -0.5193  0.0583 -1.1815
 5406TIP3   OH237708   0.239   5.096  12.090 -0.4793 -0.1030  1.2899
 5406TIP3    H137709   0.331   5.115  12.107 -0.1583 -0.9556  0.5663
 5406TIP3    H237710   0.192   5.175  12.118  0.4758  0.3803  1.5476
 5407TIP3   OH237711   4.527   5.992   5.483 -0.0438 -0.1294 -0.1852
 5407TIP3    H137712   4.572   5.908   5.484 -1.7802 -1.1082  0.3600
 5407TIP3    H237713   4.539   6.027   5.571  0.6667  0.2072 -0.4078
 5408TIP3   OH237714   2.279   0.366  11.771  0.4099  0.4944 -0.0826
 5408TIP3    H137715   2.273   0.314  11.691 -0.2130  0.5733 -0.0926
 5408TIP3    H237716   2.318   0.449  11.742  3.1745 -0.5880  0.2515
 5409TIP3   OH237717   1.397   2.755   4.586  0.0919  0.3308  0.1977
 5409TIP3    H137718   1.406   2.711   4.671 -0.1866  0.0872  0.1044
 5409TIP3    H237719   1.475   2.810   4.579  0.2528  0.1444  0.4920
 5410TIP3   OH237720   6.266   3.791  13.508  0.2587  0.0090 -0.3242
 5410TIP3    H137721   6.209   3.719  13.481  0.4929 -0.5530  0.6404
 5410TIP3    H237722   6.206   3.861  13.533  0.0188 -0.0431 -0.7550
 5411TIP3   OH237723   2.567   0.644   4.411 -0.6735 -0.6863 -0.3549
 5411TIP3    H137724   2.493   0.626   4.352 -0.5681 -1.8498 -0.1591
 5411TIP3    H237725   2.563   0.574   4.476 -0.1560 -0.0211  0.4135
 5412TIP3   OH237726   6.812   4.503  16.104 -0.3100  0.3582 -0.0794
 5412TIP3    H137727   6.772   4.560  16.169  1.8510  0.1038  1.5682
 5412TIP3    H237728   6.891   4.548  16.077 -0.1085 -0.5052 -1.0052
 5413TIP3   OH237729   3.284   3.843  14.245  0.1601  0.4239  0.0099
 5413TIP3    H137730   3.309   3.920  14.194 -1.4331  0.7533 -0.3224
 5413TIP3    H237731   3.266   3.877  14.333 -1.4283  0.6226 -0.3611
 5414TIP3   OH237732   4.612   2.799   6.316  0.2808  0.0139  0.1844
 5414TIP3    H137733   4.679   2.778   6.251 -0.8164  0.8133 -1.2797
 5414TIP3    H237734   4.619   2.893   6.328  0.8630 -0.2007  1.7266
 5415TIP3   OH237735   2.417   5.905  14.851 -0.9846  0.0115 -0.1112
 5415TIP3    H137736   2.498   5.858  14.871 -1.3084 -0.0500  1.1881
 5415TIP3    H237737   2.444   5.976  14.793  0.0430  0.1198  0.4701
 5416TIP3   OH237738   1.187   2.234  11.631  0.5992  0.2968  0.1558
 5416TIP3    H137739   1.094   2.256  11.624  0.3109 -0.7813  0.3374
 5416TIP3    H237740   1.230   2.316  11.654 -0.3452  0.7549  0.3261
 5417TIP3   OH237741   0.272   3.561  12.323  0.1439  0.5463 -0.5816
 5417TIP3    H137742   0.289   3.637  12.267  0.2953  0.0949 -1.1641
 5417TIP3    H237743   0.309   3.487  12.274  1.1235  0.2641  0.5560
 5418TIP3   OH237744   0.407   1.541  16.740  0.0771  0.1225 -0.4571
 5418TIP3    H137745   0.333   1.555  16.799  0.5029 -0.9126  0.3545
 5418TIP3    H237746   0.484   1.569  16.790  0.2564  1.1677 -1.2834
 5419TIP3   OH237747   0.312   5.540   2.596 -0.5376 -0.3910  0.0135
 5419TIP3    H137748   0.375   5.555   2.667  1.9716 -0.1685 -2.1009
 5419TIP3    H237749   0.284   5.627   2.570  2.0910 -0.0364 -2.1163
 5420TIP3   OH237750   6.476   2.125   0.262 -0.1137  0.0051  0.4543
 5420TIP3    H137751   6.528   2.048   0.285  1.7594  1.4336  1.2624
 5420TIP3    H237752   6.530   2.199   0.290 -1.4142  1.6415 -1.1685
 5421TIP3   OH237753   3.324   3.267  12.771 -0.0609  0.2674 -0.8207
 5421TIP3    H137754   3.287   3.252  12.684 -1.4617 -1.3953 -0.0017
 5421TIP3    H237755   3.398   3.206  12.777  1.1143  1.5814 -1.4197
 5422TIP3   OH237756   5.590   1.471   0.749  0.2514  0.2441  0.2423
 5422TIP3    H137757   5.621   1.529   0.819  1.7584 -0.8671  0.5413
 5422TIP3    H237758   5.544   1.401   0.795  1.3645 -0.5633  0.1597
 5423TIP3   OH237759   3.965   3.169   3.745 -0.3466  0.1407  0.1690
 5423TIP3    H137760   4.011   3.096   3.787  0.3522  0.3241 -0.2593
 5423TIP3    H237761   3.936   3.132   3.661 -0.5654  0.1622  0.2366
 5424TIP3   OH237762   0.131   0.051   3.718  0.0135  0.1158 -0.3767
 5424TIP3    H137763   0.089   0.067   3.634 -0.7257 -0.7826 -0.2040
 5424TIP3    H237764   0.218   0.019   3.696  0.1281  0.6880 -0.7742
 5425TIP3   OH237765   4.977   4.468  11.467 -0.2333 -0.2031  0.0584
 5425TIP3    H137766   5.016   4.513  11.392 -2.0240 -0.3321 -0.9989
 5425TIP3    H237767   5.011   4.379  11.463 -1.1263 -0.5064 -1.2567
 5426TIP3   OH237768   0.801   2.605   1.641  0.6800  0.3821 -0.5635
 5426TIP3    H137769   0.832   2.617   1.731  0.3453 -0.1210 -0.3775
 5426TIP3    H237770   0.880   2.608   1.588  1.3322 -2.7074  0.0710
 5427TIP3   OH237771   5.923   3.449  15.432  0.3247  0.2281  0.2071
 5427TIP3    H137772   6.016   3.459  15.454  0.1407  0.9224  0.7237
 5427TIP3    H237773   5.895   3.537  15.406 -0.4514  0.2839  1.1615
 5428TIP3   OH237774   4.261   4.651  15.504  0.0958  0.2694  0.1651
 5428TIP3    H137775   4.322   4.578  15.499  2.3793  1.9938  1.3025
 5428TIP3    H237776   4.291   4.703  15.578 -2.5423  1.4631  0.5246
 5429TIP3   OH237777   3.829   6.428   2.289  0.1435 -0.0865 -0.1887
 5429TIP3    H137778   3.897   6.361   2.287  1.7879  1.4824 -2.2385
 5429TIP3    H237779   3.854   6.485   2.362  0.6273  0.0678 -0.4684
 5430TIP3   OH237780   2.105   0.831  15.803 -0.4517  0.0945 -0.1818
 5430TIP3    H137781   2.154   0.899  15.757 -0.6124  0.1671 -0.2452
 5430TIP3    H237782   2.069   0.776  15.734  0.3029 -0.5029 -0.1253
 5431TIP3   OH237783   4.774   1.296  12.398 -0.2765 -0.1977  0.2693
 5431TIP3    H137784   4.695   1.259  12.438 -0.4777  0.2194  0.2576
 5431TIP3    H237785   4.842   1.284  12.465 -0.6131  0.4957  0.7418
 5432TIP3   OH237786   5.602   0.918   4.899 -0.0106  0.1048 -0.1088
 5432TIP3    H137787   5.571   0.963   4.821 -1.5103 -0.4961  0.1074
 5432TIP3    H237788   5.526   0.916   4.957  1.5011  2.0651  2.1129
 5433TIP3   OH237789   1.526   5.718   6.524  0.2404 -0.2970 -0.7696
 5433TIP3    H137790   1.513   5.812   6.515 -0.8689 -0.2393  0.9945
 5433TIP3    H237791   1.443   5.686   6.559  0.8619 -1.8298 -0.6212
 5434TIP3   OH237792   3.614   4.428  14.314  0.2082 -0.0234 -0.3168
 5434TIP3    H137793   3.674   4.467  14.251 -1.2191  0.8224 -1.1822
 5434TIP3    H237794   3.614   4.334  14.292  0.4125  0.1270 -0.9674
 5435TIP3   OH237795   5.389   0.674   6.307 -0.0006 -0.0328  0.3931
 5435TIP3    H137796   5.319   0.609   6.319  0.5459 -0.6358  0.3718
 5435TIP3    H237797   5.344   0.758   6.308 -0.7326 -0.4154  0.3562
 5436TIP3   OH237798   3.068   3.259   4.383 -0.0621  0.1161  0.1049
 5436TIP3    H137799   3.048   3.276   4.476 -0.1179 -0.3150  0.1772
 5436TIP3    H237800   3.123   3.181   4.385 -0.0615  0.1093 -0.2275
 5437TIP3   OH237801   5.946   3.929   2.054  0.1643  0.0225  0.1047
 5437TIP3    H137802   5.866   3.925   2.002  0.5473  0.2582 -0.5034
 5437TIP3    H237803   5.915   3.925   2.145 -0.6391  1.4580 -0.0828
 5438TIP3   OH237804   3.318   0.979   3.592  0.0542 -0.3555 -0.3424
 5438TIP3    H137805   3.409   0.949   3.590 -0.2453 -1.3596  0.3410
 5438TIP3    H237806   3.277   0.935   3.518  0.2424  0.5512 -1.0037
 5439TIP3   OH237807   1.700   3.028   0.873  0.2390  0.3314  0.4154
 5439TIP3    H137808   1.762   3.020   0.802  0.7014  3.8635  0.2074
 5439TIP3    H237809   1.616   3.048   0.830 -0.0063  0.1256  0.7885
 5440TIP3   OH237810   6.309   3.006  14.757  0.2047  0.6069 -0.3079
 5440TIP3    H137811   6.341   2.936  14.815  2.3203  2.0714  0.3965
 5440TIP3    H237812   6.236   3.045  14.805  0.3408  0.2174  0.2321
 5441TIP3   OH237813   2.892   0.966  15.042  0.2513  0.2925 -0.2379
 5441TIP3    H137814   2.963   1.005  14.992 -0.5174  0.3860 -1.2904
 5441TIP3    H237815   2.812   1.003  15.003 -0.3610  1.5572  2.0366
 5442TIP3   OH237816   4.313   2.698  12.711  0.2478  1.0257  0.2849
 5442TIP3    H137817   4.282   2.614  12.744  2.0737  0.1614 -0.0950
 5442TIP3    H237818   4.233   2.750  12.699 -1.4457 -1.8653 -3.0313
 5443TIP3   OH237819   3.696   3.800   1.577  0.2210 -0.1090  0.2288
 5443TIP3    H137820   3.692   3.891   1.607  1.7768 -0.0824  0.4485
 5443TIP3    H237821   3.672   3.804   1.484  1.3203  0.6942 -0.0362
 5444TIP3   OH237822   0.409   6.541   1.328  0.2664 -0.6037 -0.0683
 5444TIP3    H137823   0.379   6.524   1.418  0.3333 -0.0604  0.0558
 5444TIP3    H237824   0.334   6.516   1.273  0.5245 -1.7539  0.0809
 5445TIP3   OH237825   0.352   1.008   5.715 -0.0337  0.0912 -0.1487
 5445TIP3    H137826   0.325   0.958   5.792  2.9768 -0.7684  0.5050
 5445TIP3    H237827   0.289   1.080   5.710 -0.3820  0.2041  3.1691
 5446TIP3   OH237828   1.157   6.752   4.875 -0.0860  0.1123  0.7472
 5446TIP3    H137829   1.090   6.720   4.934 -0.4137  0.8488  0.7904
 5446TIP3    H237830   1.240   6.723   4.914 -0.3916 -2.5088 -0.3334
 5447TIP3   OH237831   1.828   6.130  13.583  0.2153 -0.3976  0.3758
 5447TIP3    H137832   1.846   6.108  13.492  1.3561 -0.7541  0.6713
 5447TIP3    H237833   1.789   6.051  13.620  0.5182 -0.5329  0.4052
 5448TIP3   OH237834   5.520   4.233   1.442  0.3058 -0.0586 -0.0818
 5448TIP3    H137835   5.429   4.215   1.422  1.2262 -1.4679 -3.7678
 5448TIP3    H237836   5.553   4.153   1.482  0.4034 -0.3665 -0.7653
 5449TIP3   OH237837   3.597   6.725  15.812 -0.6632 -0.0100  0.4549
 5449TIP3    H137838   3.691   6.736  15.824 -0.5348  0.4051 -0.7613
 5449TIP3    H237839   3.562   6.717  15.900  0.5398 -0.4120  0.9110
 5450TIP3   OH237840   5.884   1.443  13.143  0.2610 -0.3024 -0.1474
 5450TIP3    H137841   5.906   1.401  13.227 -2.1925 -0.5567  0.4478
 5450TIP3    H237842   5.819   1.385  13.104  0.1444  0.6768 -1.4636
 5451TIP3   OH237843   3.914   2.473   0.547 -0.5823 -0.1858 -0.0942
 5451TIP3    H137844   3.830   2.516   0.558 -0.0110  0.8795  0.2733
 5451TIP3    H237845   3.893   2.379   0.542 -1.7980  0.0870 -0.3238
 5452TIP3   OH237846   0.671   3.100   3.372 -0.3992 -0.6743  0.3417
 5452TIP3    H137847   0.751   3.151   3.378 -0.1061 -1.0894  0.0522
 5452TIP3    H237848   0.606   3.149   3.423  0.2596 -0.7800  1.3018
 5453TIP3   OH237849   3.301   3.653  11.189 -0.3483 -0.4354 -0.2265
 5453TIP3    H137850   3.380   3.705  11.179 -0.0767 -0.8335 -0.1784
 5453TIP3    H237851   3.241   3.687  11.123 -0.0586 -0.2725 -0.4056
 5454TIP3   OH237852   2.724   5.972   3.369  0.7554 -0.1989 -0.1828
 5454TIP3    H137853   2.723   6.022   3.450  0.7798  0.6854 -0.7082
 5454TIP3    H237854   2.667   5.897   3.386 -0.1536  0.5790  0.2909
 5455TIP3   OH237855   5.608   2.549  11.253 -0.2863  0.2776 -0.2859
 5455TIP3    H137856   5.599   2.469  11.305  2.3423  0.4899  0.6613
 5455TIP3    H237857   5.542   2.609  11.290 -1.3354 -0.9730 -0.0759
 5456TIP3   OH237858   1.738   1.679  16.217  0.1243  0.1649 -0.3744
 5456TIP3    H137859   1.681   1.742  16.171 -3.0596 -1.4231  1.0444
 5456TIP3    H237860   1.714   1.688  16.309  0.2230 -2.4305 -0.0174
 5457TIP3   OH237861   0.860   5.018  13.286 -0.0674  0.4002 -0.0497
 5457TIP3    H137862   0.858   4.970  13.203 -0.9929 -2.6817  1.5768
 5457TIP3    H237863   0.931   4.975  13.336 -0.4495  1.2241  1.2412
 5458TIP3   OH237864   4.908   3.484   2.667  0.0460  0.5001 -0.0449
 5458TIP3    H137865   4.824   3.468   2.624 -1.4226  0.2607  2.7195
 5458TIP3    H237866   4.902   3.575   2.698  0.6160  0.3480  0.5354
 5459TIP3   OH237867   1.066   3.069  15.819 -0.2797  0.1767  0.7113
 5459TIP3    H137868   1.071   3.147  15.764  1.4880 -0.5530 -0.2286
 5459TIP3    H237869   1.156   3.055  15.849 -0.4968 -1.6494  0.6270
 5460TIP3   OH237870   4.879   0.585   0.997 -0.5331  0.0541  0.4549
 5460TIP3    H137871   4.882   0.491   1.009  2.1727 -0.0293 -0.1584
 5460TIP3    H237872   4.936   0.620   1.066 -2.3151  1.3788  1.3516
 5461TIP3   OH237873   2.695   3.135  10.661  0.2039  0.8543  0.6954
 5461TIP3    H137874   2.719   3.044  10.679 -0.2736  0.9467  1.8957
 5461TIP3    H237875   2.663   3.134  10.570  0.2656 -0.1562  0.6712
 5462TIP3   OH237876   4.141   5.336   3.933  0.4799  0.2927 -0.1071
 5462TIP3    H137877   4.185   5.333   4.018  0.8581 -0.9804 -0.3232
 5462TIP3    H237878   4.163   5.252   3.892  2.0459  1.7067 -2.3572
 5463TIP3   OH237879   5.996   3.204  12.661 -0.3658 -0.1477 -0.5207
 5463TIP3    H137880   5.918   3.150  12.649  0.1552 -1.5342  1.8668
 5463TIP3    H237881   5.962   3.293  12.668 -1.4966 -0.4491 -1.7129
 5464TIP3   OH237882   1.418   4.704   5.491  0.8506  0.5654  0.1267
 5464TIP3    H137883   1.492   4.648   5.469  2.2759  2.4070  0.0057
 5464TIP3    H237884   1.364   4.650   5.549  2.2069 -0.8799  0.1180
 5465TIP3   OH237885   1.550   6.221  16.767  0.1005 -0.4692 -0.1162
 5465TIP3    H137886   1.506   6.172  16.697 -0.0278 -0.2076 -0.2174
 5465TIP3    H237887   1.643   6.202  16.755  0.5701  2.7034 -2.8592
 5466TIP3   OH237888   0.180   5.877  11.383 -0.1581 -0.1716 -0.0390
 5466TIP3    H137889   0.157   5.785  11.390  0.0507 -0.3882 -1.6647
 5466TIP3    H237890   0.228   5.897  11.463 -0.3418 -1.4319  0.3951
 5467TIP3   OH237891   5.073   2.755  15.657 -0.0144  0.3291  0.3058
 5467TIP3    H137892   5.064   2.848  15.638 -1.4481 -0.1512 -1.6424
 5467TIP3    H237893   5.135   2.723  15.592 -0.7986 -0.3673 -0.1203
 5468TIP3   OH237894   4.304   0.903  10.122  0.5232  0.2649 -0.1315
 5468TIP3    H137895   4.248   0.849  10.177  1.9027 -2.3064 -1.0855
 5468TIP3    H237896   4.392   0.889  10.157  1.0254  1.2174 -0.9623
 5469TIP3   OH237897   3.345   2.157  12.158  0.3366 -0.7359  0.7390
 5469TIP3    H137898   3.295   2.134  12.236  0.6290 -1.1946  0.7870
 5469TIP3    H237899   3.397   2.080  12.138 -0.4988 -1.0112 -0.5189
 5470TIP3   OH237900   3.548   5.834  11.420  0.1269  0.0001  0.3665
 5470TIP3    H137901   3.490   5.910  11.425 -0.8765 -0.6610 -0.6478
 5470TIP3    H237902   3.633   5.866  11.451 -0.5906  1.1842  1.1961
 5471TIP3   OH237903   5.774   5.336  10.673 -0.3495 -0.1528 -0.3285
 5471TIP3    H137904   5.813   5.393  10.739  0.4701  0.9413 -1.7220
 5471TIP3    H237905   5.834   5.261  10.666  0.6147  0.6718 -1.1949
 5472TIP3   OH237906   4.942   3.870  16.990 -0.5815  0.5365  0.4215
 5472TIP3    H137907   4.985   3.888  17.073 -0.7049  0.4087  0.5147
 5472TIP3    H237908   5.013   3.860  16.927 -0.5096  1.2686  0.3844
 5473TIP3   OH237909   5.776   1.301  12.908 -0.5775  0.5983  0.3167
 5473TIP3    H137910   5.761   1.207  12.894  1.3818  0.4645 -1.3862
 5473TIP3    H237911   5.771   1.339  12.820  0.9831  1.6909  0.6610
 5474TIP3   OH237912   2.718   1.628   2.220  0.0094  0.5213  0.4821
 5474TIP3    H137913   2.688   1.657   2.306 -1.1010  1.9933 -0.3504
 5474TIP3    H237914   2.639   1.592   2.178  0.4704  0.0947 -0.0312
 5475TIP3   OH237915   0.960   5.810  13.494  0.3112  0.0489 -0.1941
 5475TIP3    H137916   0.896   5.866  13.451 -0.3613 -0.9872 -0.5744
 5475TIP3    H237917   0.908   5.743  13.539  1.0095  0.8263  1.8819
 5476TIP3   OH237918   1.781   5.218  14.509 -0.7932 -0.5118  0.3160
 5476TIP3    H137919   1.729   5.175  14.441 -1.8227  0.2912  0.5719
 5476TIP3    H237920   1.764   5.167  14.588  0.2647 -1.3393  0.0248
 5477TIP3   OH237921   0.619   2.802  16.550  0.2605  0.1617  0.1999
 5477TIP3    H137922   0.653   2.767  16.468  1.2885  0.0029  0.6846
 5477TIP3    H237923   0.642   2.894  16.548 -0.1268  0.2587  0.1074
 5478TIP3   OH237924   5.680   0.143   1.944 -0.3268  0.8489  0.1866
 5478TIP3    H137925   5.772   0.172   1.950 -0.3154  0.8681 -0.0707
 5478TIP3    H237926   5.630   0.218   1.975 -0.1686  0.1142  2.3502
 5479TIP3   OH237927   4.688   1.275  16.604 -0.2089 -0.4099 -0.6043
 5479TIP3    H137928   4.715   1.360  16.639 -2.1440 -0.2219  0.5669
 5479TIP3    H237929   4.769   1.236  16.571  0.8834  1.4686 -0.2869
 5480TIP3   OH237930   1.104   5.645  16.011 -0.2502  0.1695 -0.5719
 5480TIP3    H137931   1.156   5.686  15.942  0.3011  0.8637  0.2296
 5480TIP3    H237932   1.161   5.576  16.046 -0.4373 -0.0277 -0.6512
 5481TIP3   OH237933   4.273   1.559   4.734  0.2470  0.1522 -0.1218
 5481TIP3    H137934   4.270   1.653   4.716 -0.4342 -0.0232 -1.0312
 5481TIP3    H237935   4.205   1.546   4.800 -1.0892  0.0483 -1.4351
 5482TIP3   OH237936   0.763   1.634  11.028 -0.5490 -0.0250 -0.0358
 5482TIP3    H137937   0.751   1.572  11.100  1.0585 -0.3111  0.0121
 5482TIP3    H237938   0.773   1.719  11.072  0.1270 -0.1550  0.0647
 5483TIP3   OH237939   1.932   4.100  11.420 -0.1847  0.5957 -0.1761
 5483TIP3    H137940   1.862   4.165  11.411  0.0738  0.9264  0.1476
 5483TIP3    H237941   2.007   4.140  11.374  0.2941  1.0158  0.9321
 5484TIP3   OH237942   0.718   1.456  11.208 -0.3628 -0.2582 -0.5920
 5484TIP3    H137943   0.644   1.431  11.264 -0.1365  1.5489  0.5950
 5484TIP3    H237944   0.786   1.392  11.227 -0.9577 -0.7892 -0.2377
 5485TIP3   OH237945   2.172   1.158  16.052  0.2201  0.2804 -0.0815
 5485TIP3    H137946   2.133   1.105  15.984 -0.1708 -0.0196  0.3728
 5485TIP3    H237947   2.249   1.197  16.011 -0.7513  1.1818 -1.1040
 5486TIP3   OH237948   0.843   1.517  16.474  0.1187 -0.1339 -0.0145
 5486TIP3    H137949   0.877   1.577  16.540 -0.9059  1.6888 -1.0642
 5486TIP3    H237950   0.874   1.431  16.501  0.9500  0.7510  2.0106
 5487TIP3   OH237951   1.516   4.288   1.701 -0.7786 -0.7341 -0.3403
 5487TIP3    H137952   1.590   4.237   1.734 -0.8962 -0.3092  0.6061
 5487TIP3    H237953   1.556   4.356   1.647 -0.3198  0.5380  1.5223
 5488TIP3   OH237954   4.673   1.191   4.920 -0.4715 -0.1046  0.4007
 5488TIP3    H137955   4.647   1.126   4.854 -0.5528 -0.2311  0.5559
 5488TIP3    H237956   4.600   1.252   4.923 -0.0639  0.4252 -0.2941
 5489TIP3   OH237957   6.417   0.161  11.497 -0.6106  0.8891  0.1867
 5489TIP3    H137958   6.495   0.107  11.489 -0.2705  1.4469 -0.3548
 5489TIP3    H237959   6.443   0.233  11.555 -0.7293  1.0561  0.0358
 5490TIP3   OH237960   6.030   1.806  16.867 -0.1417  0.0624 -0.8557
 5490TIP3    H137961   5.945   1.836  16.834 -0.1292  0.0253 -0.9200
 5490TIP3    H237962   6.091   1.875  16.842 -0.0745 -0.1157 -1.1919
 5491TIP3   OH237963   0.118   3.933   3.047 -0.7029 -0.2201  0.7517
 5491TIP3    H137964   0.125   4.015   2.997 -0.9603 -0.0146  1.0477
 5491TIP3    H237965   0.162   3.952   3.130  0.8659 -0.9676  0.1282
 5492TIP3   OH237966   1.464   2.856   3.344  0.2238 -0.1978  0.1400
 5492TIP3    H137967   1.556   2.877   3.357 -0.3113  1.7196  1.3009
 5492TIP3    H237968   1.458   2.829   3.252  1.5417  2.2033 -0.7422
 5493TIP3   OH237969   5.482   1.748  14.571 -0.2156 -0.2704  0.5708
 5493TIP3    H137970   5.434   1.700  14.502  1.8045 -2.1222  0.3376
 5493TIP3    H237971   5.418   1.758  14.641 -1.6353 -0.5090 -0.6329
 5494TIP3   OH237972   2.207   4.811  15.926  0.4147 -0.3535 -0.0526
 5494TIP3    H137973   2.184   4.731  15.878 -2.3372  0.2501  0.0843
 5494TIP3    H237974   2.249   4.867  15.860  1.0904 -1.3515 -0.5008
 5495TIP3   OH237975   2.941   3.381  11.430  0.2794  0.8259  0.3771
 5495TIP3    H137976   2.904   3.349  11.512 -0.3521 -2.1782 -0.9385
 5495TIP3    H237977   2.889   3.458  11.408 -1.5866 -0.1194  1.2721
 5496TIP3   OH237978   0.183   2.730   1.388 -0.2308  0.0095 -0.2567
 5496TIP3    H137979   0.152   2.771   1.469  0.9195  0.0355  0.1902
 5496TIP3    H237980   0.231   2.800   1.343  0.3651 -0.3938 -0.2629
 5497TIP3   OH237981   5.828   4.192   5.857 -0.3262  0.3629 -0.2346
 5497TIP3    H137982   5.782   4.148   5.786 -0.7861  0.4006  0.0364
 5497TIP3    H237983   5.897   4.131   5.882 -1.3192 -0.4858  0.5330
 5498TIP3   OH237984   4.715   1.217   3.946 -0.1545 -0.5077 -0.2950
 5498TIP3    H137985   4.684   1.306   3.931  0.8476  0.1468  1.2904
 5498TIP3    H237986   4.784   1.226   4.012 -0.9265 -2.5789  0.9086
 5499TIP3   OH237987   2.046   6.494   5.242 -0.3611 -0.1236  0.1486
 5499TIP3    H137988   2.016   6.488   5.151 -1.8539 -1.8964  0.6815
 5499TIP3    H237989   2.125   6.439   5.245  0.3008  0.7886 -0.2799
 5500TIP3   OH237990   2.998   1.221   0.835 -0.3974 -0.4930 -0.5810
 5500TIP3    H137991   2.988   1.243   0.928  0.7245 -1.6154 -0.1761
 5500TIP3    H237992   2.955   1.136   0.825 -0.5732 -0.3466 -1.1114
 5501TIP3   OH237993   2.981   2.084   1.711  0.0826 -0.0071  0.5188
 5501TIP3    H137994   2.951   1.994   1.705 -2.8381  0.9461 -0.8251
 5501TIP3    H237995   2.951   2.114   1.797 -1.2179  0.3617 -0.0355
 5502TIP3   OH237996   6.028   5.060  16.935 -0.2562 -0.3751 -0.8480
 5502TIP3    H137997   6.012   5.068  17.029 -0.0537  0.9707 -0.9173
 5502TIP3    H237998   6.077   4.978  16.926 -0.2351 -0.4877  0.2216
 5503TIP3   OH237999   3.840   3.983  16.624  0.5779  0.0607 -0.3315
 5503TIP3    H138000   3.818   4.048  16.556 -3.4199  0.4189  1.0720
 5503TIP3    H238001   3.933   3.963  16.608  0.8055  2.7695 -3.6011
 5504TIP3   OH238002   2.538   5.556  15.673 -0.3456 -1.0528 -0.6128
 5504TIP3    H138003   2.602   5.584  15.609 -1.0643 -2.1753 -1.8672
 5504TIP3    H238004   2.551   5.462  15.681 -1.5897 -1.2416 -0.6199
 5505TIP3   OH238005   4.481   2.505  13.887 -0.0496  0.5985  0.0859
 5505TIP3    H138006   4.571   2.515  13.917 -0.7041 -1.8496  3.3948
 5505TIP3    H238007   4.474   2.414  13.860 -1.0853  1.2786 -2.2074
 5506TIP3   OH238008   2.337   6.765   4.973 -0.6788  0.4032  0.7142
 5506TIP3    H138009   2.345   6.761   4.878 -2.1753  1.3505  0.5270
 5506TIP3    H238010   2.363   6.854   4.995 -0.7493  0.3172  1.1489
 5507TIP3   OH238011   1.254   5.264  16.276 -0.1973  0.4514  0.3023
 5507TIP3    H138012   1.291   5.285  16.190  0.0189  0.8221  0.4818
 5507TIP3    H238013   1.314   5.200  16.312 -1.3987 -1.2980 -0.6669
 5508TIP3   OH238014   2.154   3.538  17.105  0.2975  0.2946  0.2895
 5508TIP3    H138015   2.122   3.570  17.189 -1.1981  0.7834 -0.4195
 5508TIP3    H238016   2.183   3.617  17.059 -0.1999  0.2194 -0.1693
 5509TIP3   OH238017   3.146   3.836  16.093  0.0402  0.9868 -0.1540
 5509TIP3    H138018   3.069   3.823  16.147  2.7092  0.3075  3.9418
 5509TIP3    H238019   3.165   3.930  16.099  0.3757  0.9021  0.1124
 5510TIP3   OH238020   0.637   0.735  11.609 -0.3394 -0.1216  0.0333
 5510TIP3    H138021   0.633   0.713  11.516  1.3460 -0.7393  0.0822
 5510TIP3    H238022   0.566   0.684  11.649 -0.8933 -0.0655 -0.8613
 5511TIP3   OH238023   1.179   6.102   1.687  0.2110 -0.4036  0.0812
 5511TIP3    H138024   1.143   6.025   1.731  1.9534 -0.6562  1.1785
 5511TIP3    H238025   1.271   6.105   1.715  0.2456  1.9743 -0.0612
 5512TIP3   OH238026   6.802   0.465  11.843 -0.6064  0.1791 -0.1332
 5512TIP3    H138027   6.793   0.559  11.859  0.1332  0.3382 -0.6039
 5512TIP3    H238028   6.820   0.428  11.929  0.9248  0.7152 -0.1968
 5513TIP3   OH238029   5.892   0.147   6.829 -0.0748  0.6528  0.2465
 5513TIP3    H138030   5.809   0.172   6.868  0.4741  0.2624  1.7635
 5513TIP3    H238031   5.915   0.220   6.772 -0.5731  1.6353  1.2499
 5514TIP3   OH238032   3.260   6.387   2.424 -0.2017  0.3329  0.0288
 5514TIP3    H138033   3.239   6.391   2.517  1.5956  0.3330  0.4676
 5514TIP3    H238034   3.338   6.442   2.414 -0.0709 -0.0618 -1.3847
 5515TIP3   OH238035   3.226   3.794  15.148 -0.3876  0.1222  0.2574
 5515TIP3    H138036   3.230   3.704  15.181  0.0286  0.4328  1.0895
 5515TIP3    H238037   3.138   3.824  15.170  0.0134  0.4640  1.5230
 5516TIP3   OH238038   3.794   0.992   3.445 -0.1085 -0.4729 -0.0409
 5516TIP3    H138039   3.825   1.065   3.391 -2.4925 -0.2216 -1.2015
 5516TIP3    H238040   3.746   0.936   3.384 -1.6420 -0.9610  1.5214
 5517TIP3   OH238041   1.265   1.093   4.834  0.2494  0.6854  0.3015
 5517TIP3    H138042   1.228   1.169   4.878  1.9497  1.1019  1.0811
 5517TIP3    H238043   1.248   1.109   4.741 -2.2704  0.3986  0.6540
 5518TIP3   OH238044   5.334   4.247   0.344  0.4391  0.0770 -0.2120
 5518TIP3    H138045   5.281   4.176   0.380  2.1672 -1.6328 -0.8689
 5518TIP3    H238046   5.411   4.251   0.401  1.1813  0.2088 -1.1902
 5519TIP3   OH238047   3.549   2.921  15.730  0.3648 -0.5853  0.1169
 5519TIP3    H138048   3.604   2.849  15.698  1.2174  0.1422 -0.1047
 5519TIP3    H238049   3.478   2.926  15.667 -0.7065 -2.3501  1.0818
 5520TIP3   OH238050   1.484   1.427   5.280 -0.2704  0.1097  0.2540
 5520TIP3    H138051   1.517   1.447   5.367  1.1635  0.7501 -0.4147
 5520TIP3    H238052   1.516   1.498   5.224 -1.5969 -0.0017 -0.7163
 5521TIP3   OH238053   1.049   4.585   4.479  0.1753  0.1546  0.6483
 5521TIP3    H138054   1.090   4.500   4.495  0.5467 -0.0025 -0.9682
 5521TIP3    H238055   0.971   4.564   4.427 -0.7549  0.6641  1.7776
 5522TIP3   OH238056   5.766   4.706   0.778 -0.3034  0.0075 -0.3247
 5522TIP3    H138057   5.764   4.759   0.699 -0.1621  0.1778 -0.2144
 5522TIP3    H238058   5.827   4.634   0.757  1.7593  1.4244  0.4783
 5523TIP3   OH238059   1.978   2.021   4.261  0.1585 -0.1056 -0.4921
 5523TIP3    H138060   1.937   2.003   4.346  0.5396  2.2144  0.2788
 5523TIP3    H238061   1.985   2.117   4.259  2.6233 -0.2435 -1.9578
 5524TIP3   OH238062   3.568   6.267  15.851  0.6200  0.3617 -0.0822
 5524TIP3    H138063   3.477   6.260  15.823  1.0672 -0.8900 -1.3103
 5524TIP3    H238064   3.562   6.284  15.945 -0.8732 -1.5090  0.2292
 5525TIP3   OH238065   0.775   1.566   4.541  0.5606  0.3217 -0.2619
 5525TIP3    H138066   0.767   1.563   4.636  0.6272  0.5322 -0.2506
 5525TIP3    H238067   0.697   1.520   4.510  0.4591  0.3900 -0.1094
 5526TIP3   OH238068   1.149   4.532   2.002 -0.9704 -0.3702  0.3731
 5526TIP3    H138069   1.210   4.488   1.942 -2.6160 -1.4346 -0.5997
 5526TIP3    H238070   1.181   4.622   2.006  0.4535 -0.8108 -0.3698
 5527TIP3   OH238071   3.461   4.643   4.351  0.5790  0.4822 -0.0098
 5527TIP3    H138072   3.442   4.616   4.441  0.1772  1.2305  0.1388
 5527TIP3    H238073   3.448   4.564   4.299 -0.3574  0.3329  0.4365
 5528TIP3   OH238074   5.696   3.596   1.503  0.1894 -0.1976 -0.0863
 5528TIP3    H138075   5.705   3.502   1.516 -0.7657 -0.4100 -0.7967
 5528TIP3    H238076   5.744   3.615   1.422 -2.3109 -0.6910 -1.8013
 5529TIP3   OH238077   2.682   1.558  12.544  0.1003  0.8562  0.2456
 5529TIP3    H138078   2.656   1.650  12.553  1.6087  1.5697 -1.9420
 5529TIP3    H238079   2.644   1.529  12.461  0.8762 -0.0321  0.1741
 5530TIP3   OH238080   2.563   2.098   4.103  0.1605  0.1303 -0.4794
 5530TIP3    H138081   2.527   2.078   4.190  1.3016  1.7802  0.4297
 5530TIP3    H238082   2.653   2.125   4.120  0.9851 -1.1544 -2.3935
 5531TIP3   OH238083   2.415   4.396   2.382  0.6316 -0.5125 -0.6655
 5531TIP3    H138084   2.430   4.483   2.344 -1.1488 -0.2658 -0.8760
 5531TIP3    H238085   2.324   4.376   2.361 -0.2754 -0.6889  2.8343
 5532TIP3   OH238086   2.314   6.234  10.904 -0.0493  0.0076  0.3642
 5532TIP3    H138087   2.331   6.286  10.826  0.0920  1.1109  1.1168
 5532TIP3    H238088   2.262   6.160  10.872  0.9242 -0.1436 -0.9454
 5533TIP3   OH238089   2.372   5.145   3.186  0.2643 -0.0998  0.2091
 5533TIP3    H138090   2.340   5.185   3.106 -0.0307 -0.4564  0.1433
 5533TIP3    H238091   2.397   5.056   3.160  0.7688 -0.0083  0.3810
 5534TIP3   OH238092   0.899   5.099   3.226  0.1501  0.0627 -0.0042
 5534TIP3    H138093   0.895   5.004   3.233 -2.3751  0.2144  2.2113
 5534TIP3    H238094   0.986   5.122   3.258  1.0201 -1.4787 -1.1205
 5535TIP3   OH238095   6.226   1.569   2.243 -0.6162  0.4814 -0.5642
 5535TIP3    H138096   6.152   1.596   2.189 -0.5861 -0.4182 -1.0625
 5535TIP3    H238097   6.299   1.624   2.215 -0.9102  0.8642 -0.5770
 5536TIP3   OH238098   5.158   2.892  12.862  0.4732  0.1156  0.3356
 5536TIP3    H138099   5.162   2.838  12.784  0.3021  0.3455  0.1680
 5536TIP3    H238100   5.215   2.966  12.844 -1.7464  1.6692 -0.7361
 5537TIP3   OH238101   5.735   2.043  14.688  0.5600 -0.0570 -0.1409
 5537TIP3    H138102   5.721   2.013  14.599 -1.7468  3.1532 -1.0557
 5537TIP3    H238103   5.812   2.098  14.684  1.0288 -0.6771  0.1142
 5538TIP3   OH238104   4.352   4.374  14.719  0.2117  0.5086  0.4037
 5538TIP3    H138105   4.428   4.319  14.739  1.1653  0.5672 -2.5452
 5538TIP3    H238106   4.298   4.320  14.661 -1.9291  0.6041  2.1612
 5539TIP3   OH238107   6.250   1.407  15.713 -0.2198  0.1465  0.3968
 5539TIP3    H138108   6.269   1.480  15.654  0.7482  0.2090  0.7750
 5539TIP3    H238109   6.276   1.438  15.799  0.6776 -0.8188  0.4934
 5540TIP3   OH238110   2.665   5.498  11.316 -0.4524  0.1301 -0.0636
 5540TIP3    H138111   2.640   5.474  11.405 -0.4422 -0.4549 -0.2167
 5540TIP3    H238112   2.599   5.458  11.260 -0.2736  0.2194 -0.3419
 5541TIP3   OH238113   2.048   4.767   1.233  0.8622  0.1451 -0.4612
 5541TIP3    H138114   2.053   4.796   1.141 -0.3179  1.6241 -0.0899
 5541TIP3    H238115   2.134   4.728   1.249  0.7405 -1.1458 -2.5000
 5542TIP3   OH238116   2.677   6.233   5.674 -0.2000 -0.2960  0.3921
 5542TIP3    H138117   2.643   6.277   5.752 -0.5279 -0.3960  0.3103
 5542TIP3    H238118   2.607   6.172   5.648 -0.5071  0.4276 -0.5462
 5543TIP3   OH238119   2.614   6.602   4.843  0.2588  0.0868  0.1059
 5543TIP3    H138120   2.616   6.627   4.935  1.5078 -1.4804  0.5327
 5543TIP3    H238121   2.685   6.539   4.833 -0.7811 -0.8814 -1.6128
 5544TIP3   OH238122   0.638   0.439   1.527 -0.0896 -0.2066  0.0857
 5544TIP3    H138123   0.633   0.444   1.623  0.0932 -0.7763  0.1266
 5544TIP3    H238124   0.584   0.512   1.497 -0.4601 -0.2549  0.6185
 5545TIP3   OH238125   2.169   6.270   1.139 -0.1233  0.0222 -0.1777
 5545TIP3    H138126   2.110   6.241   1.208 -0.1496  0.1182 -0.1608
 5545TIP3    H238127   2.204   6.188   1.103  1.3059  0.0061  1.1585
 5546TIP3   OH238128   0.941   6.683  17.067  0.5109 -0.6028  0.1737
 5546TIP3    H138129   1.022   6.666  17.019  1.2737  3.3920 -0.3782
 5546TIP3    H238130   0.970   6.724  17.148 -0.9216 -0.2984  0.5607
 5547TIP3   OH238131   5.186   2.289  15.947 -0.0251  0.8150  0.1121
 5547TIP3    H138132   5.203   2.366  16.001 -3.4092  2.0220 -0.3168
 5547TIP3    H238133   5.152   2.324  15.865 -1.5180 -1.0960 -0.1678
 5548TIP3   OH238134   0.374   5.337  11.876 -0.8759  0.3454 -0.0238
 5548TIP3    H138135   0.396   5.338  11.969 -0.8779  1.7384 -0.0111
 5548TIP3    H238136   0.279   5.324  11.874 -1.0173  1.2464  0.2294
 5549TIP3   OH238137   3.751   3.426   2.209 -0.5853  0.0161 -0.2624
 5549TIP3    H138138   3.737   3.332   2.194  4.0137 -1.0644  0.7915
 5549TIP3    H238139   3.739   3.466   2.123 -1.2138 -1.7536 -1.0352
 5550TIP3   OH238140   4.407   5.842   5.150  0.2173 -0.1352 -0.3838
 5550TIP3    H138141   4.401   5.901   5.075 -0.7365  0.5499  0.2015
 5550TIP3    H238142   4.400   5.754   5.113 -3.1492  0.2196 -0.9401
 5551TIP3   OH238143   0.729   3.645  13.993 -0.1629  0.9622 -0.2032
 5551TIP3    H138144   0.657   3.582  13.986 -0.7109  1.3637  1.2974
 5551TIP3    H238145   0.765   3.650  13.905 -0.0235 -1.5207 -0.3543
 5552TIP3   OH238146   0.807   6.429   2.189  0.3459  0.1940 -0.5726
 5552TIP3    H138147   0.839   6.409   2.101  0.0186 -0.3704 -0.5694
 5552TIP3    H238148   0.811   6.524   2.195  3.0166  0.1099 -0.1838
 5553TIP3   OH238149   3.376   2.795  11.263 -0.1369  0.0707  0.5071
 5553TIP3    H138150   3.338   2.861  11.321  0.1424 -0.0728  0.8608
 5553TIP3    H238151   3.446   2.841  11.217 -0.9084  0.4152 -0.3644
 5554TIP3   OH238152   2.380   0.439   4.822  0.1381  0.2005  0.0724
 5554TIP3    H138153   2.333   0.368   4.778  0.7402  0.1162 -0.4433
 5554TIP3    H238154   2.347   0.438   4.912 -0.5478 -0.1193 -0.1746
 5555TIP3   OH238155   3.191   1.499   3.540  0.4908  0.0759  0.5347
 5555TIP3    H138156   3.239   1.418   3.560  0.4874  0.0050  0.2581
 5555TIP3    H238157   3.260   1.564   3.527  0.4950  0.1037  0.6862
 5556TIP3   OH238158   2.142   0.331  12.251 -0.3738 -0.0908  0.4635
 5556TIP3    H138159   2.162   0.279  12.173 -1.0291 -1.4913  1.2098
 5556TIP3    H238160   2.115   0.416  12.216  0.9205 -0.1431 -0.7707
 5557TIP3   OH238161   6.447   2.401  15.182 -0.0669  0.1710 -0.6547
 5557TIP3    H138162   6.460   2.470  15.247 -0.1319  2.2569 -2.7054
 5557TIP3    H238163   6.351   2.391  15.178 -0.1973  1.4599 -1.7130
 5558TIP3   OH238164   4.682   6.409  16.199  0.2461 -0.2793 -0.5894
 5558TIP3    H138165   4.735   6.355  16.258  2.2584  1.0753 -1.0711
 5558TIP3    H238166   4.620   6.454  16.258  1.8095  0.5838  0.4627
 5559TIP3   OH238167   0.759   4.955   2.720  0.2367  0.2088  0.3014
 5559TIP3    H138168   0.757   5.047   2.743 -0.5364  0.3161 -0.1751
 5559TIP3    H238169   0.668   4.926   2.727  0.5788 -0.7130  1.2082
 5560TIP3   OH238170   3.413   0.655  14.680 -0.7037 -0.2268 -0.4304
 5560TIP3    H138171   3.386   0.589  14.743 -0.7438 -1.8650 -2.0803
 5560TIP3    H238172   3.344   0.721  14.683 -1.9420 -1.4898 -0.4892
 5561TIP3   OH238173   3.802   6.306  10.835  0.7064 -0.0282 -0.0491
 5561TIP3    H138174   3.752   6.229  10.807 -0.7351  0.6302  0.6467
 5561TIP3    H238175   3.761   6.379  10.790 -0.4966  0.8252  2.2963
 5562TIP3   OH238176   4.085   2.122   0.786 -0.1573  0.3004  0.2832
 5562TIP3    H138177   4.009   2.172   0.757 -0.1247  0.0780 -0.2048
 5562TIP3    H238178   4.151   2.138   0.717 -0.6964 -1.7432 -0.7742
 5563TIP3   OH238179   2.032   3.907  13.072  0.0453  0.3040 -0.3448
 5563TIP3    H138180   1.941   3.918  13.099 -0.0181 -0.2931 -0.2986
 5563TIP3    H238181   2.048   3.979  13.011 -0.3395  0.6343 -0.0598
 5564TIP3   OH238182   4.892   6.819   5.655 -0.0842 -0.0042  0.1153
 5564TIP3    H138183   4.803   6.832   5.622 -0.1715  1.3291  0.8054
 5564TIP3    H238184   4.938   6.899   5.632  0.6111 -0.1914  0.8068
 5565TIP3   OH238185   1.037   2.347   0.968  0.3869 -0.6297 -0.0107
 5565TIP3    H138186   0.946   2.326   0.945  0.4184  0.3477 -1.1362
 5565TIP3    H238187   1.087   2.323   0.891  0.3502  3.9334 -1.7939
 5566TIP3   OH238188   3.847   3.499   0.870 -0.1547 -0.5068 -0.1417
 5566TIP3    H138189   3.937   3.466   0.869 -0.1440 -0.4877 -1.1345
 5566TIP3    H238190   3.793   3.421   0.865 -0.1703 -0.4840 -0.3586
 5567TIP3   OH238191   5.205   6.418   6.562  0.1659 -0.0051 -0.5394
 5567TIP3    H138192   5.165   6.499   6.532 -0.0955  0.3561  0.7074
 5567TIP3    H238193   5.274   6.399   6.498 -1.7529 -0.4804 -2.5633
 5568TIP3   OH238194   5.330   4.444   3.484 -0.0322  0.1959  0.2752
 5568TIP3    H138195   5.279   4.488   3.552 -0.7744 -1.0090  0.5336
 5568TIP3    H238196   5.412   4.421   3.527 -0.1680  0.1784  0.5274
 5569TIP3   OH238197   2.287   3.946   2.157 -0.0996  0.0557  0.2632
 5569TIP3    H138198   2.378   3.951   2.126  0.2329 -0.0431  1.1737
 5569TIP3    H238199   2.292   3.894   2.237 -1.2417 -1.5494 -0.6513
 5570TIP3   OH238200   2.499   1.421  16.414 -0.9558  0.6109 -0.7669
 5570TIP3    H138201   2.489   1.327  16.399 -1.2366  0.5740 -0.3798
 5570TIP3    H238202   2.440   1.462  16.351 -1.5948  0.4858 -0.2636
 5571TIP3   OH238203   6.134   6.828  13.584  0.6564 -0.3671 -0.6849
 5571TIP3    H138204   6.149   6.916  13.618 -0.7405  1.3365 -4.0399
 5571TIP3    H238205   6.065   6.792  13.640  1.7701  0.2711  1.2010
 5572TIP3   OH238206   1.521   6.334   2.900  0.5092 -0.2163  0.8413
 5572TIP3    H138207   1.504   6.286   2.819 -0.9563  0.2247  0.8613
 5572TIP3    H238208   1.458   6.299   2.963  1.5559 -0.4748  1.7817
 5573TIP3   OH238209   0.531   1.751   2.302 -0.3728 -0.2098  0.3068
 5573TIP3    H138210   0.504   1.803   2.377  2.6208  1.1710  0.5662
 5573TIP3    H238211   0.499   1.800   2.226  1.9805  1.9461  0.5638
 5574TIP3   OH238212   2.731   4.462  17.149 -1.0738 -0.6112 -1.0339
 5574TIP3    H138213   2.740   4.502  17.063 -0.7086  0.5431 -0.4748
 5574TIP3    H238214   2.642   4.426  17.150 -2.2797  2.1488 -0.7875
 5575TIP3   OH238215   3.526   0.811  12.105 -0.5725 -0.4103 -0.3066
 5575TIP3    H138216   3.482   0.746  12.051 -1.2450 -1.0212  0.9472
 5575TIP3    H238217   3.457   0.872  12.132 -0.0522  0.5160 -0.9978
 5576TIP3   OH238218   1.699   4.913   3.745  0.3639 -0.3193 -0.1165
 5576TIP3    H138219   1.715   4.985   3.806 -0.2701  1.4540 -1.9548
 5576TIP3    H238220   1.620   4.871   3.780  0.7215 -0.1384  0.9694
 5577TIP3   OH238221   0.231   3.812  12.872  0.3610  0.6651  0.8698
 5577TIP3    H138222   0.282   3.847  12.799  0.2176 -0.0214  0.4392
 5577TIP3    H238223   0.168   3.752  12.832 -1.4824  2.2241  1.2839
 5578TIP3   OH238224   4.120   4.911  17.181  0.0608 -0.4365  0.0129
 5578TIP3    H138225   4.131   4.969  17.106  1.3000 -0.7891 -0.1136
 5578TIP3    H238226   4.210   4.889  17.207 -0.3537 -0.6822  1.3135
 5579TIP3   OH238227   5.181   4.244  13.561 -0.3152 -0.6420  0.2192
 5579TIP3    H138228   5.118   4.242  13.489  0.6260  1.5375 -0.7691
 5579TIP3    H238229   5.254   4.190  13.531 -0.6605 -1.1638  0.3104
 5580TIP3   OH238230   0.785   3.941   1.411 -0.8049  0.0895 -0.3243
 5580TIP3    H138231   0.855   3.880   1.391 -1.9693 -2.5022  2.5789
 5580TIP3    H238232   0.717   3.923   1.345 -0.3989 -0.4025 -0.6117
 5581TIP3   OH238233   6.200   4.784   5.844  0.6601  0.1513 -0.3198
 5581TIP3    H138234   6.149   4.741   5.913  0.1294 -0.4808 -1.0836
 5581TIP3    H238235   6.195   4.877   5.865 -1.4379  0.1850 -0.7418
 5582TIP3   OH238236   5.870   3.700  13.989  0.1653  0.3439  0.1346
 5582TIP3    H138237   5.886   3.660  13.904  0.3169  0.8130 -0.0647
 5582TIP3    H238238   5.937   3.768  13.996  0.8575 -0.4154  1.1197
 5583TIP3   OH238239   2.893   0.157   1.681  0.0607 -0.3832  0.0604
 5583TIP3    H138240   2.812   0.173   1.729  0.5051  0.8926  0.4247
 5583TIP3    H238241   2.913   0.241   1.640 -0.5786 -1.5297 -2.8461
 5584TIP3   OH238242   6.506   0.287  13.872 -0.3593 -0.2372 -0.4517
 5584TIP3    H138243   6.479   0.252  13.957 -2.3284  1.7115 -0.1781
 5584TIP3    H238244   6.455   0.237  13.808 -1.7836  0.8231 -0.1861
 5585TIP3   OH238245   4.499   3.558   4.477  0.3393  0.2468  0.0637
 5585TIP3    H138246   4.562   3.629   4.459 -0.1175  0.9053  0.9906
 5585TIP3    H238247   4.524   3.525   4.563  0.6215 -0.8162 -0.4160
 5586TIP3   OH238248   1.422   5.976  17.077 -0.0200  0.3517 -0.5249
 5586TIP3    H138249   1.368   5.972  17.157  0.4262 -1.8253 -0.2576
 5586TIP3    H238250   1.483   5.902  17.086  2.1313  1.8964 -1.4584
 5587TIP3   OH238251   6.551   5.065   4.116  0.6334 -0.2600  0.0227
 5587TIP3    H138252   6.580   4.980   4.149 -0.0325 -0.0284  1.2729
 5587TIP3    H238253   6.455   5.058   4.113  0.5738  0.4283  0.1171
 5588TIP3   OH238254   1.988   6.607   1.573  0.4636  0.0087 -0.1057
 5588TIP3    H138255   2.012   6.638   1.660  1.9949  2.6735 -1.3572
 5588TIP3    H238256   2.011   6.514   1.574 -0.6228 -0.3265  2.6354
 5589TIP3   OH238257   3.391   5.766  16.786 -0.1465  0.2070  0.7737
 5589TIP3    H138258   3.458   5.769  16.719  0.4902  0.6661  1.4101
 5589TIP3    H238259   3.334   5.694  16.761 -0.2737  0.7563 -0.5797
 5590TIP3   OH238260   5.809   6.049   1.791 -0.2473 -0.4159  0.1770
 5590TIP3    H138261   5.733   5.995   1.814  0.0979  0.4588  4.1067
 5590TIP3    H238262   5.771   6.131   1.760 -0.9947 -0.0282  1.9857
 5591TIP3   OH238263   0.726   1.400   1.547  0.7626 -0.0867  0.3604
 5591TIP3    H138264   0.745   1.447   1.466 -0.5966  0.2266  0.2015
 5591TIP3    H238265   0.783   1.323   1.544  2.3623  1.0584  0.1957
 5592TIP3   OH238266   6.322   2.400   5.666  0.5446  0.1404  0.1813
 5592TIP3    H138267   6.314   2.307   5.644  1.5927  0.5473 -2.3133
 5592TIP3    H238268   6.394   2.404   5.729  0.6042 -0.7141  0.1794
 5593TIP3   OH238269   2.056   4.445  16.497 -0.1883 -0.1037  0.2370
 5593TIP3    H138270   1.993   4.515  16.516 -1.3170 -0.2863 -2.3888
 5593TIP3    H238271   2.102   4.430  16.580 -0.2278  3.3888  1.0158
 5594TIP3   OH238272   1.297   0.141   5.002  0.6115  0.0960 -0.5506
 5594TIP3    H138273   1.284   0.052   4.968 -2.3109 -1.1211  3.0123
 5594TIP3    H238274   1.226   0.192   4.962  0.7273  0.1430 -0.6931
 5595TIP3   OH238275   4.352   6.253   0.029 -0.4276 -0.3548  0.1214
 5595TIP3    H138276   4.357   6.178  -0.031 -0.0884 -0.2863  0.0607
 5595TIP3    H238277   4.439   6.293   0.024 -0.6196  0.0679  0.1228
 5596TIP3   OH238278   0.742   3.173  15.941  0.0557  0.2906  0.0181
 5596TIP3    H138279   0.807   3.211  15.881  0.4401 -1.3517 -0.6703
 5596TIP3    H238280   0.794   3.116  15.998 -0.8278 -1.8410 -1.1885
 5597TIP3   OH238281   4.223   6.198   5.699  0.2183  0.7596 -0.2874
 5597TIP3    H138282   4.279   6.245   5.760 -0.1874  1.3045 -0.3286
 5597TIP3    H238283   4.139   6.190   5.745  0.5322 -0.7373  0.0960
 5598TIP3   OH238284   6.024   2.874   4.741 -0.8192  0.4957  0.7538
 5598TIP3    H138285   6.043   2.798   4.687 -2.2753  0.7004 -0.0928
 5598TIP3    H238286   5.960   2.843   4.805 -0.4073  0.6920  1.2750
 5599TIP3   OH238287   3.211   1.127   0.675  0.5812 -0.3263  0.6848
 5599TIP3    H138288   3.267   1.193   0.716 -0.8748  0.3874  1.6140
 5599TIP3    H238289   3.128   1.134   0.722 -0.3546 -1.2174 -0.7642
 5600TIP3   OH238290   4.797   3.387  12.617 -0.5604  0.0772 -0.0706
 5600TIP3    H138291   4.772   3.389  12.710 -0.0703 -0.5397  0.0864
 5600TIP3    H238292   4.769   3.300  12.587  1.6021 -0.7797  0.2021
 5601TIP3   OH238293   2.406   3.885  11.956  0.1654  0.2242 -0.4284
 5601TIP3    H138294   2.371   3.964  11.998 -0.4787  0.3646 -1.2064
 5601TIP3    H238295   2.394   3.901  11.863 -0.9673 -1.2436 -0.5548
 5602TIP3   OH238296   5.243   6.042   4.124  0.0916  0.0827  0.0885
 5602TIP3    H138297   5.323   6.012   4.167  0.2192  0.0356 -0.1793
 5602TIP3    H238298   5.266   6.129   4.090 -0.0408  0.1645  0.2108
 5603TIP3   OH238299   2.443   1.947   3.009  0.2394  0.0858 -0.2108
 5603TIP3    H138300   2.452   1.852   2.998  1.4471  0.0670  0.7265
 5603TIP3    H238301   2.418   1.958   3.101 -2.2346  0.5930 -0.8630
 5604TIP3   OH238302   1.729   0.392  12.170 -0.0746  0.0894 -0.1476
 5604TIP3    H138303   1.657   0.447  12.202 -0.1163 -0.6869  1.1634
 5604TIP3    H238304   1.807   0.446  12.183  0.1434 -0.8155  3.0736
 5605TIP3   OH238305   1.892   5.000  13.228  0.4668  0.0289 -0.9308
 5605TIP3    H138306   1.986   5.016  13.212  0.4656  0.8784 -0.1441
 5605TIP3    H238307   1.889   4.957  13.313  0.0797  1.0779 -0.3947
 5606TIP3   OH238308   6.066   5.853   4.413  0.2151  0.0409  0.7607
 5606TIP3    H138309   6.037   5.813   4.331  1.2222  0.0277  0.3940
 5606TIP3    H238310   6.151   5.891   4.392 -1.0278  3.1240  0.8925
 5607TIP3   OH238311   4.531   1.522   3.655 -0.4993  0.0022  0.2829
 5607TIP3    H138312   4.471   1.580   3.609 -0.3223 -0.7745 -0.9736
 5607TIP3    H238313   4.503   1.526   3.747 -3.7031 -1.7017 -0.4608
 5608TIP3   OH238314   6.128   5.645  15.620 -0.2907  0.8201  0.0585
 5608TIP3    H138315   6.191   5.644  15.692 -0.3520 -0.5185  0.1199
 5608TIP3    H238316   6.091   5.734  15.622 -1.5970  0.3302  2.8284
 5609TIP3   OH238317   1.773   1.392  14.265  0.3370 -0.3497  0.6040
 5609TIP3    H138318   1.697   1.448  14.247  0.9576 -0.3030 -2.3421
 5609TIP3    H238319   1.749   1.307  14.228  1.6636 -0.3342 -0.3643
 5610TIP3   OH238320   2.603   2.421  15.778 -0.3596  0.0128  0.2563
 5610TIP3    H138321   2.623   2.456  15.865  0.2611 -2.4005  1.1882
 5610TIP3    H238322   2.599   2.498  15.721  1.6111  1.5046  1.9640
 5611TIP3   OH238323   0.511   2.177   0.043  0.4781  0.2173  0.2353
 5611TIP3    H138324   0.535   2.211  -0.043  2.8475  0.1865  0.8189
 5611TIP3    H238325   0.463   2.248   0.084 -0.9959  0.1072 -1.2029
 5612TIP3   OH238326   6.425   2.349   5.930 -0.2888  0.7204 -0.4898
 5612TIP3    H138327   6.407   2.340   6.024 -1.9263 -0.9752 -0.9121
 5612TIP3    H238328   6.520   2.358   5.925  0.1885 -2.0222  1.2163
 5613TIP3   OH238329   1.004   1.793   1.616 -0.6728 -0.2184 -0.3255
 5613TIP3    H138330   0.916   1.795   1.652 -0.6282  1.1591 -0.2452
 5613TIP3    H238331   1.062   1.807   1.691 -0.3738 -1.0954 -0.3804
 5614TIP3   OH238332   4.399   4.661  17.023 -0.3427 -0.3833 -0.5557
 5614TIP3    H138333   4.340   4.732  16.996 -0.8284  0.6945  2.8255
 5614TIP3    H238334   4.341   4.588  17.043 -0.2066 -0.4617 -0.4491
 5615TIP3   OH238335   1.329   0.627  15.260  0.8325 -0.3490  0.0232
 5615TIP3    H138336   1.278   0.621  15.341  1.4317 -0.7244  0.3798
 5615TIP3    H238337   1.417   0.653  15.288  0.7487  0.6847 -0.6258
 5616TIP3   OH238338   2.989   0.796  11.642  0.1345  0.6574  0.2294
 5616TIP3    H138339   2.994   0.711  11.686  0.1382 -0.2051 -1.3372
 5616TIP3    H238340   3.002   0.860  11.711 -1.2708 -0.5677  1.6987
 5617TIP3   OH238341   3.210   0.544   5.040  0.0168 -1.0585 -0.0210
 5617TIP3    H138342   3.125   0.587   5.031  0.4494 -0.0748  0.3350
 5617TIP3    H238343   3.190   0.456   5.072 -0.8742 -0.9193 -0.1684
 5618TIP3   OH238344   0.580   2.192   2.438 -0.2446 -0.3918  0.0358
 5618TIP3    H138345   0.501   2.242   2.455  0.0384  0.1796 -0.2838
 5618TIP3    H238346   0.557   2.137   2.363 -0.6013 -0.8441  0.4758
 5619TIP3   OH238347   1.522   1.783   2.823  0.3698  0.8701  0.2565
 5619TIP3    H138348   1.594   1.720   2.829  0.4290  0.9054 -0.0635
 5619TIP3    H238349   1.466   1.762   2.897  0.3350  0.3694  0.0960
 5620TIP3   OH238350   0.031   4.239  16.197 -0.2514 -0.2807 -0.0971
 5620TIP3    H138351   0.085   4.250  16.275 -1.0455  1.1312  0.2828
 5620TIP3    H238352  -0.002   4.327  16.178  0.8786 -0.3375 -2.7350
 5621TIP3   OH238353   3.860   2.397  10.933  0.0968  0.3740  0.3504
 5621TIP3    H138354   3.927   2.403  10.865 -0.3147  1.7123  0.0369
 5621TIP3    H238355   3.777   2.409  10.887 -0.3156 -0.4968  0.8418
 5622TIP3   OH238356   1.449   1.271  12.651 -0.3160 -0.4184  0.0817
 5622TIP3    H138357   1.412   1.330  12.586  0.8011 -1.1035 -1.2299
 5622TIP3    H238358   1.448   1.321  12.733  0.3648  1.3210 -0.9205
 5623TIP3   OH238359   0.711   6.106   2.524 -0.1680 -0.0328  0.1126
 5623TIP3    H138360   0.696   6.152   2.607  2.0102 -0.2707  0.6888
 5623TIP3    H238361   0.722   6.176   2.460  0.2577  0.1855  0.4259
 5624TIP3   OH238362   0.169   3.268   3.808 -0.0760 -0.5112  0.2650
 5624TIP3    H138363   0.203   3.246   3.721 -0.0864 -0.7690  0.3248
 5624TIP3    H238364   0.131   3.186   3.840 -0.7279 -0.2394  0.2126
 5625TIP3   OH238365   1.363   6.467   2.213  0.2550  0.9117 -0.0221
 5625TIP3    H138366   1.413   6.487   2.292  0.2186 -0.0293  0.2554
 5625TIP3    H238367   1.424   6.416   2.159 -0.2123  0.2365  0.0767
 5626TIP3   OH238368   0.976   2.619   0.954 -0.8713  0.0387  0.0426
 5626TIP3    H138369   0.973   2.658   1.041  0.0877  1.2335 -0.4337
 5626TIP3    H238370   0.999   2.527   0.969 -1.4103  0.0584  1.0807
 5627TIP3   OH238371   3.398   1.829   3.172  0.2497  0.7099 -0.0883
 5627TIP3    H138372   3.472   1.854   3.117 -0.0240  1.2215 -0.2282
 5627TIP3    H238373   3.375   1.909   3.219 -1.9216  1.3466 -2.0209
 5628TIP3   OH238374   4.224   0.151  12.804  0.0096 -0.6509 -0.5000
 5628TIP3    H138375   4.227   0.144  12.900 -0.8343 -1.0507 -0.4925
 5628TIP3    H238376   4.301   0.103  12.774 -0.3806 -1.5735 -0.0609
 5629TIP3   OH238377   1.086   3.758  13.615 -0.1652 -0.2766  0.3821
 5629TIP3    H138378   1.061   3.847  13.588 -2.5537 -0.4112  1.8405
 5629TIP3    H238379   1.128   3.720  13.538 -0.3203  1.6578 -0.7255
 5630TIP3   OH238380   6.706   4.480  11.390 -0.0642 -0.2324  0.0050
 5630TIP3    H138381   6.746   4.393  11.384  0.5957  0.1060 -0.7983
 5630TIP3    H238382   6.776   4.540  11.364 -0.9341  0.4161 -0.9355
 5631TIP3   OH238383   1.029   1.060  12.375 -0.0630  0.3115 -0.8387
 5631TIP3    H138384   0.974   1.038  12.450  0.7420 -1.5975 -0.7511
 5631TIP3    H238385   0.969   1.099  12.311 -0.6941  2.3581  0.9015
 5632TIP3   OH238386   3.359   3.778   4.862  0.8586  0.4673  0.8289
 5632TIP3    H138387   3.410   3.709   4.818  0.7833  0.8199  0.1741
 5632TIP3    H238388   3.278   3.734   4.888  0.6352  0.3917  0.0532
 5633TIP3   OH238389   1.172   4.223  15.614 -0.5234  0.5270 -0.1672
 5633TIP3    H138390   1.091   4.273  15.616 -0.1717  1.1113 -0.1806
 5633TIP3    H238391   1.241   4.289  15.618 -0.0311 -0.0418  2.5713
 5634TIP3   OH238392   1.026   0.403   2.060 -0.3140 -0.0782 -0.3131
 5634TIP3    H138393   0.931   0.406   2.073 -0.2582 -0.7813  0.3407
 5634TIP3    H238394   1.063   0.419   2.147  0.1126 -2.2805 -0.0209
 5635TIP3   OH238395   5.130   5.911  13.139  0.1156 -0.9558 -0.5895
 5635TIP3    H138396   5.098   5.933  13.227 -0.9513  1.2440 -1.4237
 5635TIP3    H238397   5.092   5.826  13.121  0.5992 -1.5967  1.1682
 5636TIP3   OH238398   3.690   0.780   1.526 -0.2605 -0.1270  0.3220
 5636TIP3    H138399   3.668   0.870   1.501  0.3512  0.3486  1.4106
 5636TIP3    H238400   3.710   0.737   1.443 -1.0424  0.5966 -0.2699
 5637TIP3   OH238401   1.158   2.923   4.669 -0.3919 -0.0203  0.2562
 5637TIP3    H138402   1.250   2.912   4.692 -0.1109  0.5752 -0.5620
 5637TIP3    H238403   1.139   3.015   4.689 -0.5273  0.1297 -0.5496
 5638TIP3   OH238404   2.187   2.869   1.731  0.1608 -0.2724  0.0688
 5638TIP3    H138405   2.213   2.778   1.717  1.1328  0.1440 -1.0701
 5638TIP3    H238406   2.190   2.880   1.826 -1.3878 -1.7977  0.3379
 5639TIP3   OH238407   1.260   3.236  14.165 -0.5328 -0.0195  0.2964
 5639TIP3    H138408   1.182   3.279  14.131  0.7991  1.4772 -1.0040
 5639TIP3    H238409   1.227   3.154  14.202 -2.5612  0.0144 -1.2336
 5640TIP3   OH238410   4.679   1.344   2.253 -0.3877  0.3593  0.6073
 5640TIP3    H138411   4.703   1.252   2.242  0.3497  0.8192 -2.3851
 5640TIP3    H238412   4.592   1.351   2.214  0.2284  1.2107 -0.6664
 5641TIP3   OH238413   6.007   3.305   4.525  0.1786 -0.1327  0.4179
 5641TIP3    H138414   5.953   3.226   4.524 -0.7910  0.5082 -0.4435
 5641TIP3    H238415   6.093   3.276   4.496 -0.4776 -0.6830 -1.0623
 5642TIP3   OH238416   3.495   5.554  15.988 -0.2389 -0.6145  0.3378
 5642TIP3    H138417   3.403   5.528  15.978 -0.7446  1.1965 -0.2348
 5642TIP3    H238418   3.516   5.534  16.079 -2.2290  1.7575  1.4320
 5643TIP3   OH238419   5.651   6.632   2.922  0.2108 -0.4193 -0.8724
 5643TIP3    H138420   5.608   6.638   3.007  2.1170  1.4098  0.0441
 5643TIP3    H238421   5.716   6.562   2.934  2.0862  1.3720  0.0380
 5644TIP3   OH238422   1.810   3.307  14.620 -0.0597 -0.1373 -0.1539
 5644TIP3    H138423   1.849   3.321  14.533  1.1670  2.2230  0.6962
 5644TIP3    H238424   1.751   3.381  14.632 -0.0123 -0.2890  1.1403
 5645TIP3   OH238425   6.082   5.281   5.514 -0.2730  0.1067 -0.6248
 5645TIP3    H138426   6.176   5.300   5.524 -0.1911 -0.8242  0.7355
 5645TIP3    H238427   6.077   5.186   5.522 -1.1160 -0.0906 -2.9203
 5646TIP3   OH238428   6.626   2.631  11.143  0.4774  0.0430 -0.3674
 5646TIP3    H138429   6.542   2.661  11.109 -0.9092 -1.6202  1.3721
 5646TIP3    H238430   6.648   2.554  11.091 -0.9038 -1.6084  1.3362
 5647TIP3   OH238431   5.486   0.253   1.648  0.2457 -0.2124 -0.1683
 5647TIP3    H138432   5.419   0.304   1.694  0.2060 -0.6395  0.2456
 5647TIP3    H238433   5.437   0.206   1.580  0.6243  2.3899 -2.4009
 5648TIP3   OH238434   5.473   6.639   3.128  0.0186  0.4383 -0.3924
 5648TIP3    H138435   5.485   6.662   3.220  1.2308  1.3559 -0.7603
 5648TIP3    H238436   5.401   6.695   3.099 -0.3523  0.1635 -0.0206
 5649TIP3   OH238437   3.363   4.941   2.950 -0.1813 -1.0092  0.0642
 5649TIP3    H138438   3.452   4.907   2.952  1.6810  3.1848  0.3880
 5649TIP3    H238439   3.355   4.981   2.863 -1.0588  0.1416  0.6388
 5650TIP3   OH238440   5.158   4.713   3.926  0.2197 -0.4110 -0.3012
 5650TIP3    H138441   5.228   4.728   3.989  0.6025 -0.5320 -0.6963
 5650TIP3    H238442   5.139   4.800   3.891 -0.7016 -0.1831  0.7151
 5651TIP3   OH238443   0.297   1.695   3.298  0.0197 -0.3298 -0.0742
 5651TIP3    H138444   0.246   1.774   3.315  0.4056 -0.0813 -0.0759
 5651TIP3    H238445   0.351   1.716   3.222  0.7515 -0.2980  0.4505
 5652TIP3   OH238446   1.243   2.860   0.597  0.0103 -0.3432  0.2765
 5652TIP3    H138447   1.330   2.897   0.605 -0.5126  1.8251 -2.5846
 5652TIP3    H238448   1.221   2.868   0.504 -2.7123 -2.1201  0.6241
 5653TIP3   OH238449   1.846   6.819  16.965  0.0037  0.0548 -0.2188
 5653TIP3    H138450   1.879   6.729  16.960 -0.2928 -0.0703  0.0166
 5653TIP3    H238451   1.890   6.856  17.042  1.9997  0.9052 -1.6938
 5654TIP3   OH238452   3.453   3.762   2.665 -1.0943  0.2152 -0.0123
 5654TIP3    H138453   3.369   3.731   2.631 -0.1905 -0.6140 -1.6257
 5654TIP3    H238454   3.487   3.687   2.713  0.4500 -0.9628 -2.7170
 5655TIP3   OH238455   5.260   3.020  15.590  0.1922 -0.1672  0.3573
 5655TIP3    H138456   5.276   3.032  15.496  1.4773 -1.8215  0.3225
 5655TIP3    H238457   5.327   3.073  15.633  1.0855 -1.2004  0.2855
 5656TIP3   OH238458   2.464   5.757  16.841  0.1995  0.4189  0.2573
 5656TIP3    H138459   2.416   5.739  16.922 -0.9561  0.0947 -0.4602
 5656TIP3    H238460   2.432   5.690  16.779  0.0959  1.4373 -0.8232
 5657TIP3   OH238461   1.614   2.672  15.421 -0.0417 -0.1897  0.1807
 5657TIP3    H138462   1.645   2.649  15.334 -1.7063 -0.6037 -0.3518
 5657TIP3    H238463   1.665   2.748  15.446  1.7936 -1.1999 -0.3385
 5658TIP3   OH238464   3.409   1.822   4.746  0.0478 -0.0775 -0.3817
 5658TIP3    H138465   3.433   1.893   4.806 -0.3147  0.3519 -0.7400
 5658TIP3    H238466   3.385   1.867   4.665 -1.8415 -0.4900 -0.0957
 5659TIP3   OH238467   1.144   2.147  11.275 -0.0677 -0.1138 -0.3937
 5659TIP3    H138468   1.113   2.234  11.249 -1.8919 -0.7737 -0.5549
 5659TIP3    H238469   1.206   2.164  11.346 -3.0028  1.2196  2.0942
 5660TIP3   OH238470   5.742   5.720   1.737  0.0023  0.0940 -0.1070
 5660TIP3    H138471   5.789   5.641   1.710  0.8432 -0.1789  1.9906
 5660TIP3    H238472   5.753   5.723   1.832 -2.2190  1.3395  0.1814
 5661TIP3   OH238473   0.942   5.449   0.267  0.1425 -0.0233 -0.2344
 5661TIP3    H138474   0.917   5.357   0.273 -1.6934  0.3061 -1.7626
 5661TIP3    H238475   1.010   5.451   0.199 -0.3061 -0.1824 -0.6939
 5662TIP3   OH238476   2.121   6.600   0.534 -0.5941 -0.2628  0.0358
 5662TIP3    H138477   2.072   6.650   0.600  0.3867  0.9999 -0.1432
 5662TIP3    H238478   2.059   6.586   0.463 -0.8989  0.6836  0.1077
 5663TIP3   OH238479   6.075   0.748   1.734 -0.0475 -0.7773  0.4100
 5663TIP3    H138480   6.128   0.679   1.773 -0.7248 -1.9103 -0.6010
 5663TIP3    H238481   6.107   0.755   1.644 -0.0406  0.1879  0.4723
 5664TIP3   OH238482   3.401   5.634  14.927  0.0719 -0.1526 -0.0387
 5664TIP3    H138483   3.431   5.551  14.964 -2.0945 -1.4245 -0.9825
 5664TIP3    H238484   3.344   5.671  14.995 -0.1349 -0.1518 -0.2132
 5665TIP3   OH238485   2.228   1.513   4.137  0.2618 -0.2015  0.0258
 5665TIP3    H138486   2.219   1.445   4.204  2.0326 -0.2902  0.2325
 5665TIP3    H238487   2.151   1.568   4.148 -0.5328 -1.4114  0.7411
 5666TIP3   OH238488   6.346   5.435   3.906 -0.1309  0.0630  0.4056
 5666TIP3    H138489   6.316   5.384   3.981 -0.3454 -0.3772  0.0249
 5666TIP3    H238490   6.268   5.446   3.852  0.0796  0.1565  0.1207
 5667TIP3   OH238491   2.840   3.377  14.958  0.2412 -0.2150 -0.1942
 5667TIP3    H138492   2.911   3.423  15.003  1.6196 -0.8725 -1.5854
 5667TIP3    H238493   2.810   3.440  14.892 -1.1982  0.4318  1.0141
 5668TIP3   OH238494   0.063   6.618  11.138 -0.3220 -0.0086 -0.2136
 5668TIP3    H138495   0.018   6.699  11.160  0.4910  0.6651 -0.9814
 5668TIP3    H238496   0.025   6.591  11.054 -1.4205 -1.0704  0.5919
 5669TIP3   OH238497   3.127   3.282  15.558  0.1640  0.1291  0.4393
 5669TIP3    H138498   3.161   3.194  15.572 -0.8619 -0.4028 -0.3386
 5669TIP3    H238499   3.200   3.340  15.582  1.3062 -0.9451 -0.3253
 5670TIP3   OH238500   0.557   4.187   1.299 -0.4004 -0.0478  0.2253
 5670TIP3    H138501   0.523   4.217   1.215  1.1711 -1.7640 -1.1165
 5670TIP3    H238502   0.507   4.108   1.318  1.3822 -1.5187 -0.8232
 5671TIP3   OH238503   5.071   4.189  11.494  0.2242 -0.4498  0.2958
 5671TIP3    H138504   5.097   4.160  11.582  1.3547  1.9170  0.8312
 5671TIP3    H238505   5.136   4.152  11.435 -0.5692 -2.0977  0.3908
 5672TIP3   OH238506   2.640   0.534  14.011  0.1239 -0.0385  0.1184
 5672TIP3    H138507   2.650   0.565  13.921  0.2343 -3.5643 -1.2064
 5672TIP3    H238508   2.723   0.491  14.031 -0.4983 -0.7495  1.2727
 5673TIP3   OH238509   4.113   2.723   5.747 -0.2103 -0.4920 -0.2092
 5673TIP3    H138510   4.032   2.676   5.729 -1.3141  0.9382  0.8180
 5673TIP3    H238511   4.086   2.797   5.801  2.0229 -0.9355  1.6463
 5674TIP3   OH238512   1.224   1.729  15.286  0.0494  0.3117 -0.5339
 5674TIP3    H138513   1.289   1.782  15.332  0.8927 -0.9460 -0.2279
 5674TIP3    H238514   1.158   1.709  15.353  0.6242 -0.4590 -0.1881
 5675TIP3   OH238515   6.723   1.137  16.901 -0.9801  0.0592 -0.2597
 5675TIP3    H138516   6.733   1.086  16.821 -0.6906  0.3423 -0.4047
 5675TIP3    H238517   6.633   1.118  16.930 -0.8247 -0.6486 -0.2223
 5676TIP3   OH238518   5.570   6.113  11.782  0.1447  0.1094  0.5978
 5676TIP3    H138519   5.580   6.018  11.778  0.6920  0.1125  1.6310
 5676TIP3    H238520   5.543   6.130  11.872  1.8216  1.0767  0.9588
 5677TIP3   OH238521   0.853   2.838  12.008 -0.0938  0.0630 -0.3034
 5677TIP3    H138522   0.870   2.789  12.089  1.2208 -0.2548 -0.7362
 5677TIP3    H238523   0.859   2.772  11.939 -0.8394  0.3993 -0.7041
 5678TIP3   OH238524   4.700   5.310  16.326  0.3993  0.5388  0.3461
 5678TIP3    H138525   4.642   5.378  16.361 -1.3883  0.2415 -1.7457
 5678TIP3    H238526   4.654   5.228  16.344  1.2417  0.0997  0.5322
 5679TIP3   OH238527   4.679   6.242  13.038  0.1019 -0.0810  0.8475
 5679TIP3    H138528   4.698   6.231  12.945 -1.5781  2.6374  0.0531
 5679TIP3    H238529   4.761   6.223  13.082  0.9679 -1.3680 -1.1672
 5680TIP3   OH238530   5.939   6.090   3.214 -0.4537  0.0251 -0.0469
 5680TIP3    H138531   5.886   6.084   3.135  0.4557  1.2901 -0.7950
 5680TIP3    H238532   5.952   6.184   3.228 -0.2768 -0.1789  1.3960
 5681TIP3   OH238533   6.252   1.760  12.767 -0.6306 -0.3680 -0.2575
 5681TIP3    H138534   6.328   1.817  12.756  0.1290 -1.3060  0.0470
 5681TIP3    H238535   6.219   1.781  12.854 -0.6773 -0.0186 -0.3569
 5682TIP3   OH238536   0.809   5.382  15.566 -0.6811  0.1913  0.8029
 5682TIP3    H138537   0.743   5.340  15.511 -1.0750  1.8258 -0.0015
 5682TIP3    H238538   0.884   5.323  15.562 -0.7164  0.2450 -1.4654
 5683TIP3   OH238539   3.348   2.252  11.901  0.5958  0.2939  0.0738
 5683TIP3    H138540   3.348   2.242  11.996  1.6758 -3.9059 -0.1806
 5683TIP3    H238541   3.283   2.188  11.871 -0.5836  2.3334 -2.0792
 5684TIP3   OH238542   4.772   1.203   2.814 -0.2313 -0.3126 -0.5621
 5684TIP3    H138543   4.792   1.294   2.794 -1.3148  0.3179  1.0553
 5684TIP3    H238544   4.769   1.199   2.909  0.3144 -2.1804 -0.5784
 5685TIP3   OH238545   5.680   1.509  15.109  0.0587 -0.4898 -0.5799
 5685TIP3    H138546   5.667   1.513  15.204  0.7224  0.1967 -0.5066
 5685TIP3    H238547   5.775   1.506  15.098  0.1902  2.5496 -1.2520
 5686TIP3   OH238548   1.414   6.208   5.369  0.0522  0.4753  0.1192
 5686TIP3    H138549   1.343   6.144   5.370  1.9404 -1.7649 -0.6850
 5686TIP3    H238550   1.467   6.187   5.446  1.7183 -0.2204 -1.1662
 5687TIP3   OH238551   6.475   4.879  16.918  0.2662  0.4669  0.2254
 5687TIP3    H138552   6.425   4.806  16.952 -1.5750  0.0744 -2.9026
 5687TIP3    H238553   6.434   4.899  16.834  2.0315  3.7363 -0.0337
 5688TIP3   OH238554   2.460   1.579  11.640  0.2939  0.1893  0.1275
 5688TIP3    H138555   2.394   1.639  11.606 -0.5816 -1.2894 -0.9196
 5688TIP3    H238556   2.531   1.582  11.576  1.4513  2.0348  1.4275
 5689TIP3   OH238557   0.311   0.355   5.589  0.0749 -0.1100  1.0578
 5689TIP3    H138558   0.328   0.371   5.496 -0.6484  3.6379  1.4457
 5689TIP3    H238559   0.395   0.367   5.632 -0.2010  1.4468  1.1957
 5690TIP3   OH238560   4.785   1.677  10.905 -0.1737 -0.0741  0.4034
 5690TIP3    H138561   4.696   1.667  10.940 -0.4359  0.2131 -0.1567
 5690TIP3    H238562   4.799   1.598  10.854  0.4661 -0.8076  1.6752
 5691TIP3   OH238563   3.603   1.266  15.145 -0.3395 -0.3736  0.1269
 5691TIP3    H138564   3.538   1.319  15.100 -0.6544 -0.8597  0.0009
 5691TIP3    H238565   3.684   1.317  15.139  0.0155 -1.0986 -2.3817
 5692TIP3   OH238566   1.096   0.020   2.912  0.0333  0.2688 -0.2167
 5692TIP3    H138567   1.056   0.071   2.982  0.8734 -0.4562  0.8187
 5692TIP3    H238568   1.103  -0.069   2.947  1.1177  0.0384 -0.9512
 5693TIP3   OH238569   3.199   3.048   3.547  0.4440  0.3672 -0.1047
 5693TIP3    H138570   3.250   3.028   3.468  0.1353 -1.9174  0.1942
 5693TIP3    H238571   3.108   3.052   3.516  0.3775  0.0087  0.0420
 5694TIP3   OH238572   2.787   0.394  16.489 -0.1848  0.2217  0.2536
 5694TIP3    H138573   2.697   0.394  16.457 -0.3735 -0.6271  0.7428
 5694TIP3    H238574   2.833   0.455  16.432 -0.9625  0.2877 -0.3165
 5695TIP3   OH238575   5.152   2.938  15.290  0.3208  0.8259  0.7966
 5695TIP3    H138576   5.060   2.927  15.266  0.1582  1.6172  1.0179
 5695TIP3    H238577   5.155   3.025  15.331  0.9891  0.4128  1.6501
 5696TIP3   OH238578   4.027   6.379   1.552 -0.1206  0.3030 -0.2562
 5696TIP3    H138579   4.072   6.424   1.623  1.1040  0.3872 -1.0538
 5696TIP3    H238580   4.093   6.321   1.515 -0.5325  0.7313 -1.7254
 5697TIP3   OH238581   1.687   6.070  15.789  0.4203 -0.3355 -0.0055
 5697TIP3    H138582   1.764   6.048  15.737 -1.1744 -0.3269 -2.5254
 5697TIP3    H238583   1.677   6.164  15.779 -0.5304 -0.4894 -0.6558
 5698TIP3   OH238584   2.632   0.380   6.033  0.3863  0.0876  0.2350
 5698TIP3    H138585   2.656   0.423   5.952 -0.8140  0.2033 -0.0814
 5698TIP3    H238586   2.702   0.403   6.095  0.5739  1.1846 -0.3645
 5699TIP3   OH238587   4.684   5.591  13.152 -0.0998  0.5966  0.2653
 5699TIP3    H138588   4.732   5.648  13.212  0.7588  0.9901 -0.7540
 5699TIP3    H238589   4.732   5.508  13.155  1.0466  1.1685 -1.1905
 5700TIP3   OH238590   4.175   5.587   4.319  0.6871  0.1181  0.2620
 5700TIP3    H138591   4.103   5.545   4.365  1.0339 -0.2076  0.5157
 5700TIP3    H238592   4.212   5.518   4.263 -0.8863  0.9505 -1.9502
 5701TIP3   OH238593   3.148   5.444   6.193  0.3874  0.0402 -0.3958
 5701TIP3    H138594   3.155   5.515   6.257 -1.7412 -0.4810  0.5044
 5701TIP3    H238595   3.176   5.366   6.242 -2.8968 -0.6612  0.6048
 5702TIP3   OH238596   4.955   5.299   3.388  0.3523 -0.3404 -0.0053
 5702TIP3    H138597   5.028   5.272   3.331  1.7253  1.4300  0.8044
 5702TIP3    H238598   4.978   5.265   3.474  0.6591  0.9130  0.4242
 5703TIP3   OH238599   1.668   6.607   5.588 -0.4925 -0.5170 -0.1665
 5703TIP3    H138600   1.581   6.626   5.551 -0.1863 -1.7272 -1.6241
 5703TIP3    H238601   1.725   6.601   5.511  1.0866  1.0958  0.8085
 5704TIP3   OH238602   5.019   5.289  15.240  0.4957 -0.1244 -0.1305
 5704TIP3    H138603   4.989   5.255  15.324  1.1859 -2.2501 -0.6968
 5704TIP3    H238604   5.091   5.232  15.214  0.4706  0.6215 -2.0660
 5705TIP3   OH238605   4.177   0.163   4.246 -1.1522  0.0692 -0.2459
 5705TIP3    H138606   4.100   0.208   4.281  0.0515  0.6036  1.8653
 5705TIP3    H238607   4.246   0.230   4.244  0.2920 -1.2804  1.6158
 5706TIP3   OH238608   2.416   0.882  16.606 -0.1104  0.0769 -0.1097
 5706TIP3    H138609   2.496   0.845  16.569 -0.4136 -1.4298  0.6088
 5706TIP3    H238610   2.376   0.808  16.653 -1.5206  0.9949  0.1966
 5707TIP3   OH238611   1.025   3.581  10.650  0.7449  0.0400  0.3867
 5707TIP3    H138612   1.065   3.563  10.565  1.1203  0.2354  0.5195
 5707TIP3    H238613   1.053   3.670  10.671  1.0631 -0.1932  0.9468
 5708TIP3   OH238614   6.236   5.540   3.409 -0.0759 -0.0296 -0.1780
 5708TIP3    H138615   6.290   5.466   3.439  1.5364  0.8069 -0.9225
 5708TIP3    H238616   6.272   5.616   3.454  0.7826  0.8697 -2.2690
 5709TIP3   OH238617   0.102   6.223  12.462 -0.0153  0.2512  0.1049
 5709TIP3    H138618   0.148   6.257  12.385 -0.0094  2.4800  1.0208
 5709TIP3    H238619   0.169   6.177  12.512 -0.1063 -1.5844 -1.3638
 5710TIP3   OH238620   4.144   4.958   2.139  0.1323  0.0963 -0.2985
 5710TIP3    H138621   4.232   4.940   2.106  0.1142  0.2960 -0.4543
 5710TIP3    H238622   4.112   4.873   2.170  1.3523  0.4314  2.0966
 5711TIP3   OH238623   4.514   4.636  13.645  0.6435  0.1011  0.8257
 5711TIP3    H138624   4.558   4.604  13.724  1.5380  0.5820  0.5369
 5711TIP3    H238625   4.583   4.677  13.594  0.4939 -2.0136 -1.2139
 5712TIP3   OH238626   4.432   1.583   2.063 -0.3309  0.7667 -0.4905
 5712TIP3    H138627   4.337   1.570   2.056 -0.4393 -0.6067  2.4159
 5712TIP3    H238628   4.469   1.496   2.049  0.4608  1.1328 -0.7272
 5713TIP3   OH238629   1.210   4.904  12.169 -0.0194  0.5567  0.0101
 5713TIP3    H138630   1.278   4.875  12.230 -0.1670  0.5098  0.1522
 5713TIP3    H238631   1.181   4.823  12.126 -1.7358  0.1797  1.7224
 5714TIP3   OH238632   4.888   4.653  16.107 -0.6342  0.4779  0.2818
 5714TIP3    H138633   4.946   4.719  16.069 -0.4675  0.9707  1.3644
 5714TIP3    H238634   4.944   4.604  16.168 -0.9141 -0.2401 -0.0268
 5715TIP3   OH238635   3.626   6.046  13.820 -0.3084 -0.3751 -0.3059
 5715TIP3    H138636   3.536   6.069  13.798 -0.0740  1.1135  0.1456
 5715TIP3    H238637   3.637   6.076  13.910  0.8044 -0.0089 -0.5474
 5716TIP3   OH238638   0.605   2.014   1.545 -0.6897  0.0929 -0.0206
 5716TIP3    H138639   0.574   2.076   1.611 -0.9305  1.6037 -1.4819
 5716TIP3    H238640   0.548   2.029   1.469  0.0633 -1.0329 -0.8493
 5717TIP3   OH238641   5.969   0.665  14.926 -0.0037 -0.8440 -0.2915
 5717TIP3    H138642   5.897   0.635  14.982  0.0708  1.6017  1.2093
 5717TIP3    H238643   6.048   0.646  14.976  0.0977  0.7468  0.1908
 5718TIP3   OH238644   5.384   6.312   2.735  0.3252  0.6211 -0.4618
 5718TIP3    H138645   5.423   6.382   2.682 -0.9667  0.2426 -1.9706
 5718TIP3    H238646   5.371   6.351   2.821  1.0682  1.7362 -0.8373
 5719TIP3   OH238647   6.328   1.656  15.884 -0.7639 -0.2448 -0.5420
 5719TIP3    H138648   6.294   1.682  15.970 -1.2894 -0.6247 -0.6268
 5719TIP3    H238649   6.250   1.634  15.834 -0.7298  2.7533 -2.1060
 5720TIP3   OH238650   4.537   5.663   6.556  0.1449 -0.5610  0.2280
 5720TIP3    H138651   4.602   5.593   6.551  0.4090 -0.2405 -0.9708
 5720TIP3    H238652   4.588   5.741   6.578 -0.1290 -0.6870  1.3957
 5721TIP3   OH238653   0.911   0.171   5.825  0.1264 -0.4572 -0.1035
 5721TIP3    H138654   0.883   0.159   5.734 -2.0577 -0.6301  0.5411
 5721TIP3    H238655   0.876   0.095   5.871 -0.4475  0.5862  1.2313
 5722TIP3   OH238656   2.593   0.875  13.741  0.0549 -0.0898  0.0651
 5722TIP3    H138657   2.531   0.861  13.813 -2.1185 -0.3930 -1.7713
 5722TIP3    H238658   2.629   0.788  13.723  0.3133 -0.0791  0.5098
 5723TIP3   OH238659   6.454   6.545  14.060 -0.4030  0.8385 -0.2967
 5723TIP3    H138660   6.535   6.513  14.020 -0.6774 -1.0698  0.5896
 5723TIP3    H238661   6.390   6.476  14.043 -1.7199  2.0667 -0.4894
 5724TIP3   OH238662   6.733   2.533  13.930 -0.0472 -0.2655 -0.1184
 5724TIP3    H138663   6.804   2.597  13.940 -0.4756  0.1581  0.2542
 5724TIP3    H238664   6.695   2.526  14.017 -1.4874  0.7110 -0.6356
 5725TIP3   OH238665   6.797   0.525   1.568 -0.0305 -0.1912  0.3305
 5725TIP3    H138666   6.767   0.478   1.645  0.5662 -0.2013  0.5599
 5725TIP3    H238667   6.727   0.588   1.550 -0.8844 -1.2078 -0.0376
 5726TIP3   OH238668   6.763   1.055   3.501 -0.0405 -0.4617 -0.0908
 5726TIP3    H138669   6.776   1.144   3.467  0.3430 -0.5789 -0.2673
 5726TIP3    H238670   6.850   1.029   3.533 -0.0897 -0.8617 -0.2670
 5727TIP3   OH238671   2.640   5.486  16.166 -0.6461  0.3185 -0.1022
 5727TIP3    H138672   2.552   5.452  16.150 -0.3945 -0.4080  0.0232
 5727TIP3    H238673   2.673   5.509  16.079 -1.1459  1.0824 -0.0993
 5728TIP3   OH238674   5.710   1.287  16.127  0.4191  0.4010  0.2003
 5728TIP3    H138675   5.772   1.215  16.145 -0.5422 -0.4023  0.3917
 5728TIP3    H238676   5.678   1.270  16.039 -0.7120 -0.1167  0.6863
 5729TIP3   OH238677   3.778   4.948  13.090 -0.5641 -0.1386 -0.0704
 5729TIP3    H138678   3.808   4.960  13.000 -0.2319  0.1869  0.0782
 5729TIP3    H238679   3.698   4.896  13.083 -0.4248 -0.2904 -0.5367
 5730TIP3   OH238680   6.255   4.072   0.795 -0.4429 -0.2110 -0.2075
 5730TIP3    H138681   6.162   4.062   0.775 -0.6296  0.1787  0.4335
 5730TIP3    H238682   6.270   4.166   0.797 -0.2312 -0.2489  0.5164
 5731TIP3   OH238683   0.039   2.065  16.721 -0.5793  0.2305 -0.2326
 5731TIP3    H138684   0.115   2.120  16.738 -0.4017 -0.2005  0.3784
 5731TIP3    H238685   0.059   1.981  16.763 -0.0659 -0.9334 -2.6121
 5732TIP3   OH238686   3.986   5.729  16.299 -0.3239  0.5836 -0.8063
 5732TIP3    H138687   3.990   5.673  16.377  0.6956  1.2295 -0.3664
 5732TIP3    H238688   3.895   5.757  16.294 -0.2874  1.0294  0.5416
 5733TIP3   OH238689   2.017   4.483   5.486  0.2318 -0.1524 -0.2903
 5733TIP3    H138690   2.055   4.396   5.501  1.0989  0.3474  0.5060
 5733TIP3    H238691   2.066   4.541   5.544 -0.7412  0.7774 -0.3674
 5734TIP3   OH238692   4.883   2.900   4.963  0.6742  0.0031  0.0987
 5734TIP3    H138693   4.810   2.922   4.906  0.1928  1.0157  1.0736
 5734TIP3    H238694   4.878   2.963   5.035  1.9572 -0.4942  0.6618
 5735TIP3   OH238695   5.356   1.887  13.877 -0.3983  0.3196 -0.2052
 5735TIP3    H138696   5.450   1.879  13.891 -0.2813 -1.0302 -1.5421
 5735TIP3    H238697   5.348   1.933  13.794 -1.0183  3.4893  1.4554
 5736TIP3   OH238698   4.283   5.450   5.561 -0.4108  0.3680  0.1437
 5736TIP3    H138699   4.234   5.528   5.537 -1.5379 -0.5103 -0.4778
 5736TIP3    H238700   4.217   5.387   5.590  0.3925 -0.6612 -0.2025
 5737TIP3   OH238701   0.765   2.953   0.841  0.1090 -0.2256  0.1530
 5737TIP3    H138702   0.773   3.031   0.785 -2.0778 -0.2131 -0.2362
 5737TIP3    H238703   0.727   2.886   0.783  1.7436 -1.5390  0.5450
 5738TIP3   OH238704   5.303   5.776  15.063  0.1147  0.3657 -0.5538
 5738TIP3    H138705   5.270   5.703  15.115 -0.9747 -0.2345 -2.0388
 5738TIP3    H238706   5.274   5.854  15.110  0.6895 -0.1372  0.6711
 5739TIP3   OH238707   1.912   0.665  13.905  0.1713  0.2865  0.1759
 5739TIP3    H138708   1.829   0.625  13.930 -0.2055  0.3395 -0.9487
 5739TIP3    H238709   1.936   0.720  13.980  0.5329 -1.7343  1.6154
 5740TIP3   OH238710   0.674   4.645   5.368 -0.5353 -0.2044  0.0377
 5740TIP3    H138711   0.720   4.693   5.437 -1.9150  0.7269  0.3529
 5740TIP3    H238712   0.609   4.707   5.335 -1.0998 -1.2405 -0.8773
 5741TIP3   OH238713   4.046   0.567  15.053 -0.3155  0.7013 -0.0844
 5741TIP3    H138714   4.078   0.654  15.032 -0.3942  1.2977  2.0087
 5741TIP3    H238715   4.114   0.530  15.110 -0.3003 -0.6166 -0.9026
 5742TIP3   OH238716   2.569   6.258   3.760 -0.2318  0.2471 -0.4508
 5742TIP3    H138717   2.539   6.248   3.850 -0.0241 -0.2805 -0.4337
 5742TIP3    H238718   2.642   6.320   3.765  0.2253 -0.3043 -0.1555
 5743TIP3   OH238719   2.382   3.617   2.459  0.9313 -0.7524  0.6600
 5743TIP3    H138720   2.386   3.533   2.412  1.9222 -0.3028 -0.1043
 5743TIP3    H238721   2.470   3.653   2.450  0.3688  0.6327  0.4910
 5744TIP3   OH238722   5.920   3.257   5.272  0.4469 -0.5123  0.3364
 5744TIP3    H138723   5.839   3.228   5.315  0.7860 -1.5357  0.3160
 5744TIP3    H238724   5.894   3.336   5.225 -0.9792 -1.7328 -1.0535
 5745TIP3   OH238725   5.933   4.654   2.542  0.1612 -0.2529 -0.0859
 5745TIP3    H138726   6.008   4.713   2.546  0.0689  0.0780 -2.1578
 5745TIP3    H238727   5.951   4.597   2.467 -1.0828 -0.9750  0.1346
 5746TIP3   OH238728   2.955   6.179   1.602 -0.1541  0.2114 -0.1110
 5746TIP3    H138729   3.004   6.232   1.539  0.9543 -1.3796 -0.6460
 5746TIP3    H238730   3.014   6.107   1.623 -1.7419 -1.0141  0.2998
 5747TIP3   OH238731   6.315   4.166   0.009  0.0707 -0.3680 -0.2306
 5747TIP3    H138732   6.376   4.113  -0.043  0.7194  1.0300 -0.9662
 5747TIP3    H238733   6.308   4.119   0.092  3.6452  0.2913  0.6181
 5748TIP3   OH238734   4.036   0.144   6.357 -0.2731 -0.4574 -0.7624
 5748TIP3    H138735   4.105   0.081   6.339  0.5397 -0.3258  1.5800
 5748TIP3    H238736   3.988   0.107   6.431 -0.7320  0.9559 -0.3268
 5749TIP3   OH238737   5.061   2.523   3.311 -0.0114 -0.1917 -0.0159
 5749TIP3    H138738   5.138   2.468   3.299  0.5963  0.6294  0.0265
 5749TIP3    H238739   5.003   2.501   3.238  0.7034 -0.0794 -0.6155
 5750TIP3   OH238740   3.628   6.826   4.759  0.3494  0.3328  0.0527
 5750TIP3    H138741   3.663   6.890   4.820  1.7021 -0.5851  0.2939
 5750TIP3    H238742   3.703   6.770   4.738 -0.8723 -1.4630  0.2483
 5751TIP3   OH238743   5.365   1.047  10.848  0.2355  0.0627 -0.0837
 5751TIP3    H138744   5.459   1.041  10.862  0.0939 -0.6515  0.6089
 5751TIP3    H238745   5.333   0.958  10.860 -0.6312  0.4305  0.4410
 5752TIP3   OH238746   4.684   3.900  17.086  0.0368 -1.1342  0.5326
 5752TIP3    H138747   4.701   3.935  17.174  0.1752 -2.3883  1.0263
 5752TIP3    H238748   4.770   3.899  17.044  0.0057 -0.7360  0.4554
 5753TIP3   OH238749   6.647   3.745  10.675  0.6391 -0.1815 -0.6978
 5753TIP3    H138750   6.623   3.725  10.584  0.4540  2.0623 -1.1997
 5753TIP3    H238751   6.743   3.749  10.674  0.8630 -3.1359 -0.0467
 5754TIP3   OH238752   3.838   3.572  14.661 -0.6323  0.4015 -0.1200
 5754TIP3    H138753   3.828   3.628  14.738 -1.2812  0.2120 -0.0574
 5754TIP3    H238754   3.877   3.629  14.594  0.5518  0.3924  0.5362
 5755TIP3   OH238755   2.751   1.986  12.808 -0.1395 -0.0278  0.3714
 5755TIP3    H138756   2.830   2.028  12.841  0.8668 -0.5793 -1.1894
 5755TIP3    H238757   2.693   2.058  12.783 -0.0923  0.3807  1.4192
 5756TIP3   OH238758   4.580   1.993  10.302  0.5709 -0.0069  0.7800
 5756TIP3    H138759   4.581   1.899  10.322  0.5997  0.3413  2.6376
 5756TIP3    H238760   4.660   2.009  10.253  1.1644 -0.7665  1.4775
 5757TIP3   OH238761   0.001   5.711   5.588  0.0267  0.4951 -0.2560
 5757TIP3    H138762   0.092   5.682   5.589 -0.3221 -0.6592 -0.4661
 5757TIP3    H238763   0.000   5.785   5.528  0.7292  0.1625 -0.6858
 5758TIP3   OH238764   1.276   3.272  15.082 -0.2645  0.1487 -0.2296
 5758TIP3    H138765   1.196   3.280  15.134  0.9211  1.3833  1.5096
 5758TIP3    H238766   1.312   3.187  15.105 -1.3727 -0.7263 -1.5512
 5759TIP3   OH238767   6.103   1.701  14.821 -0.2850  1.0609 -0.2522
 5759TIP3    H138768   6.061   1.669  14.901  0.2435 -0.5943 -0.5972
 5759TIP3    H238769   6.032   1.741  14.772 -0.8987  0.8217  0.4135
 5760TIP3   OH238770   2.429   5.665   2.618  0.4063 -0.1759 -0.2605
 5760TIP3    H138771   2.451   5.608   2.544 -0.5175 -0.3115 -0.4367
 5760TIP3    H238772   2.353   5.714   2.589  0.0078 -0.2583  0.6183
 5761TIP3   OH238773   0.025   2.276  13.917 -0.0980  0.2138  0.6854
 5761TIP3    H138774   0.016   2.364  13.882 -0.4358  0.3992  1.2283
 5761TIP3    H238775   0.073   2.287  13.999  1.3482 -0.2967 -0.0378
 5762TIP3   OH238776   4.036   2.351  11.591 -0.0603 -0.6441 -0.4150
 5762TIP3    H138777   4.003   2.348  11.681 -0.1741  0.1850 -0.4254
 5762TIP3    H238778   4.092   2.273  11.584  2.8473  1.0821  1.5301
 5763TIP3   OH238779   5.452   2.059  11.440 -0.5204 -0.3877 -0.4901
 5763TIP3    H138780   5.398   2.048  11.362 -0.7152 -0.7648 -0.3060
 5763TIP3    H238781   5.439   1.978  11.490 -0.0041 -0.3638 -0.3100
 5764TIP3   OH238782   5.082   0.945   5.557  0.1228  0.0211 -0.6064
 5764TIP3    H138783   5.039   0.862   5.537 -0.7331 -0.4562  2.6160
 5764TIP3    H238784   5.018   1.012   5.531 -0.3782 -0.4598 -0.6344
 5765TIP3   OH238785   4.206   3.912   2.709  0.1281 -0.1344 -0.0501
 5765TIP3    H138786   4.176   4.002   2.693  0.8784  0.1136 -0.0780
 5765TIP3    H238787   4.247   3.917   2.795 -2.1333 -1.0240  1.1820
 5766TIP3   OH238788   3.428   6.699  16.056 -0.3901 -0.3293 -0.2177
 5766TIP3    H138789   3.357   6.659  16.006  0.2005 -1.1015 -0.4764
 5766TIP3    H238790   3.469   6.625  16.101 -0.4013  0.2514  0.7583
 5767TIP3   OH238791   2.826   1.856   2.572  0.0557  0.2539  0.7004
 5767TIP3    H138792   2.883   1.779   2.575  0.1145  0.3146  1.5119
 5767TIP3    H238793   2.848   1.904   2.652  0.5180  1.4713 -0.1269
 5768TIP3   OH238794   4.202   6.510   5.583  0.6838  0.3969  0.1106
 5768TIP3    H138795   4.227   6.429   5.538 -0.0431  0.0572  0.3039
 5768TIP3    H238796   4.284   6.543   5.621  1.5608  1.2482 -2.3025
 5769TIP3   OH238797   5.999   0.100   0.930  0.3343 -0.5331  0.2053
 5769TIP3    H138798   5.932   0.153   0.888 -1.2513 -1.4534  1.4838
 5769TIP3    H238799   6.010   0.139   1.016 -0.0318 -1.5775  0.7405
 5770TIP3   OH238800   0.700   4.116   0.642 -0.2650  0.3767  0.1066
 5770TIP3    H138801   0.640   4.159   0.582 -0.3598  0.1285  0.0222
 5770TIP3    H238802   0.787   4.146   0.615 -0.2660 -0.1188 -0.4728
 5771TIP3   OH238803   5.166   5.215   3.238  0.4666 -0.1150 -0.3143
 5771TIP3    H138804   5.185   5.256   3.154  1.4194  0.3724  0.1165
 5771TIP3    H238805   5.237   5.153   3.252  0.1455 -0.4218 -0.0156
 5772TIP3   OH238806   4.243   3.073  10.524 -0.2739  0.6941  0.1642
 5772TIP3    H138807   4.180   3.008  10.555  1.7187 -0.7128  1.5290
 5772TIP3    H238808   4.207   3.157  10.552 -2.6413  0.2069 -1.1374
 5773TIP3   OH238809   6.733   5.026  12.298 -0.5361 -0.5347  0.2143
 5773TIP3    H138810   6.687   5.002  12.378 -0.3670 -0.2089  0.4126
 5773TIP3    H238811   6.779   5.107  12.321 -1.7834  0.4777 -0.6834
 5774TIP3   OH238812   0.765   0.590  16.201 -0.1167 -0.0720  0.9626
 5774TIP3    H138813   0.850   0.584  16.244  0.4728  1.0961  0.0205
 5774TIP3    H238814   0.704   0.614  16.272  0.7019  1.0863  1.3081
 5775TIP3   OH238815   3.689   6.532   4.888 -0.4022 -0.4527 -0.6699
 5775TIP3    H138816   3.619   6.475   4.922 -0.2724 -0.0222  0.3412
 5775TIP3    H238817   3.653   6.620   4.896  1.3045  0.0866  2.6785
 5776TIP3   OH238818   5.609   5.660   3.348 -0.5158 -0.2583  0.0751
 5776TIP3    H138819   5.569   5.745   3.329  0.9797 -0.0495 -2.6303
 5776TIP3    H238820   5.602   5.651   3.443 -3.8276  1.2505  0.1259
 5777TIP3   OH238821   1.936   3.966  13.976  1.0218 -0.4218 -0.1913
 5777TIP3    H138822   1.871   4.031  13.950  2.0531  0.5526 -0.4320
 5777TIP3    H238823   1.947   3.910  13.899  0.1433 -0.8807  0.0102
 5778TIP3   OH238824   0.936   5.557   1.100  0.2347  0.2639  0.2287
 5778TIP3    H138825   0.951   5.478   1.049  1.0623  0.8237 -0.4351
 5778TIP3    H238826   0.897   5.527   1.182  2.2954 -1.0162  0.8097
 5779TIP3   OH238827   0.442   4.024  14.942  0.0018  0.2905 -0.2706
 5779TIP3    H138828   0.481   3.963  14.880 -0.6940 -0.7931  0.3339
 5779TIP3    H238829   0.511   4.040  15.007  0.2058  0.2222 -0.4696
 5780TIP3   OH238830   0.321   2.811   2.328  0.9889  0.0090 -0.2285
 5780TIP3    H138831   0.399   2.756   2.316  0.8149 -0.4572  0.6574
 5780TIP3    H238832   0.344   2.870   2.400  0.2402 -0.7172  0.6383
 5781TIP3   OH238833   0.104   1.557   2.694  0.1270  0.0054  0.6650
 5781TIP3    H138834   0.069   1.542   2.606  0.3455  0.5490  0.4807
 5781TIP3    H238835   0.041   1.515   2.753  0.8313 -1.8258  0.1767
 5782TIP3   OH238836   5.002   6.345   4.727  0.2093 -0.0491  0.5248
 5782TIP3    H138837   4.916   6.305   4.735 -0.4287  0.8964 -1.0593
 5782TIP3    H238838   5.047   6.292   4.662  0.9221 -0.6588  1.4944
 5783TIP3   OH238839   4.897   0.152   4.464 -0.0971  0.0834  0.1579
 5783TIP3    H138840   4.884   0.057   4.460 -0.4651  0.0462  1.5128
 5783TIP3    H238841   4.980   0.167   4.419  1.4547 -1.2499  2.3743
 5784TIP3   OH238842   1.775   1.142   5.668 -0.1670  0.4059  0.2345
 5784TIP3    H138843   1.841   1.210   5.681  0.8441 -0.0785 -1.9136
 5784TIP3    H238844   1.817   1.062   5.697  0.6852 -0.0754 -2.1204
 5785TIP3   OH238845   5.718   0.615  15.436  0.8276  0.8078 -0.3681
 5785TIP3    H138846   5.752   0.655  15.516 -0.5758  0.5198  0.4082
 5785TIP3    H238847   5.630   0.652  15.426 -1.4600 -3.4377  1.5640
 5786TIP3   OH238848   6.195   3.331   3.702 -0.5713 -0.0009 -0.2312
 5786TIP3    H138849   6.196   3.239   3.727  0.2189  0.3127  1.0212
 5786TIP3    H238850   6.128   3.338   3.634 -0.9874 -1.3985  0.0141
 5787TIP3   OH238851   5.292   3.486  16.103 -0.6357 -0.4181  0.1846
 5787TIP3    H138852   5.336   3.402  16.117 -0.2349 -0.8910 -3.0866
 5787TIP3    H238853   5.331   3.521  16.023 -0.6987  3.0490  1.4792
 5788TIP3   OH238854   0.477   0.467   5.402  0.1764 -0.8761  0.6274
 5788TIP3    H138855   0.506   0.557   5.383 -0.5482 -1.1924 -2.6911
 5788TIP3    H238856   0.558   0.419   5.421  0.6018  0.3837  2.1655
 5789TIP3   OH238857   5.522   6.122  13.537 -0.4361  0.5738  0.0822
 5789TIP3    H138858   5.473   6.110  13.618  0.7606  1.2987  0.9493
 5789TIP3    H238859   5.503   6.211  13.510 -1.4821  0.0735 -0.9153
 5790TIP3   OH238860   1.026   3.554  12.856  0.3056 -0.1695 -0.0081
 5790TIP3    H138861   0.957   3.519  12.799 -1.1852  0.2248  1.4666
 5790TIP3    H238862   1.073   3.476  12.887  1.1934 -0.3873 -1.7687
 5791TIP3   OH238863   1.635   6.709   1.240  0.1782  0.1799  0.0174
 5791TIP3    H138864   1.664   6.721   1.149  0.0988  1.0689  0.0965
 5791TIP3    H238865   1.632   6.798   1.275  0.1832 -0.1586  0.8869
 5792TIP3   OH238866   2.002   4.327  12.677 -0.2393 -0.0971  0.2105
 5792TIP3    H138867   2.062   4.263  12.716  0.5746  1.5339  1.8141
 5792TIP3    H238868   2.060   4.392  12.638 -1.0086  0.4343 -0.0474
 5793TIP3   OH238869   1.395   3.684  15.438 -0.0321  0.1872 -0.2076
 5793TIP3    H138870   1.360   3.773  15.447 -0.7229  0.1292 -1.9244
 5793TIP3    H238871   1.489   3.693  15.455 -0.1173  1.2368 -0.2391
 5794TIP3   OH238872   0.440   4.264  14.418  0.0976 -0.7910 -0.0610
 5794TIP3    H138873   0.442   4.210  14.497  0.0643  0.0460  0.5155
 5794TIP3    H238874   0.524   4.245  14.375 -0.6483 -2.6659 -0.8151
 5795TIP3   OH238875   3.099   4.526   3.835  0.7677 -0.0376 -0.0962
 5795TIP3    H138876   3.104   4.560   3.745 -1.1386 -1.0197 -0.6441
 5795TIP3    H238877   3.036   4.584   3.878  0.7267 -0.3167  0.2195
 5796TIP3   OH238878   6.297   6.473  14.948  0.2413  0.2875 -0.1546
 5796TIP3    H138879   6.204   6.483  14.968  0.2509  1.1925 -0.5445
 5796TIP3    H238880   6.303   6.484  14.853  0.7537  0.2750 -0.1277
 5797TIP3   OH238881   4.578   0.281  13.051  0.1448  0.5178 -0.3392
 5797TIP3    H138882   4.494   0.237  13.067 -0.2928  1.1984 -0.7328
 5797TIP3    H238883   4.620   0.283  13.137 -1.1375  1.9955  0.2941
 5798TIP3   OH238884   4.325   4.232   3.922 -0.1892 -0.0269 -0.0554
 5798TIP3    H138885   4.354   4.158   3.869  0.1756 -0.3201  0.5516
 5798TIP3    H238886   4.357   4.309   3.874  0.4289 -0.2979 -0.0876
 5799TIP3   OH238887   1.016   3.180   0.223  0.7851 -0.2571  0.0046
 5799TIP3    H138888   1.057   3.262   0.251  0.8443 -0.9097  1.9722
 5799TIP3    H238889   1.084   3.114   0.235  1.3846 -0.4195 -3.3563
 5800TIP3   OH238890   2.809   2.225  14.362  0.1550 -0.4119 -0.7435
 5800TIP3    H138891   2.903   2.208  14.358  0.4280  1.1744 -1.8830
 5800TIP3    H238892   2.799   2.312  14.325 -1.5879  0.2261  1.0722
 5801TIP3   OH238893   1.267   2.715  12.704 -0.3373 -0.0155 -0.9820
 5801TIP3    H138894   1.240   2.796  12.747 -0.7140 -0.7002  0.1007
 5801TIP3    H238895   1.225   2.646  12.754  1.9900 -1.0477 -0.3104
 5802TIP3   OH238896   0.056   4.765   0.865  0.2712 -0.6004 -0.0434
 5802TIP3    H138897   0.149   4.784   0.856  0.3829 -1.9491 -2.5518
 5802TIP3    H238898   0.012   4.849   0.854  1.1312 -0.0211  0.7757
 5803TIP3   OH238899   0.980   6.396   0.097  0.3262  0.1662 -0.1695
 5803TIP3    H138900   1.045   6.327   0.080 -0.6655 -0.4663 -1.6985
 5803TIP3    H238901   0.925   6.360   0.167 -0.5785 -0.9471 -1.3938
 5804TIP3   OH238902   2.730   0.432  15.402 -0.8413  0.7704 -0.1711
 5804TIP3    H138903   2.646   0.396  15.432 -0.8688  0.6069 -0.4361
 5804TIP3    H238904   2.776   0.358  15.364 -1.2148  1.1524 -1.4156
 5805TIP3   OH238905   2.258   0.459   5.074  0.0454 -0.0359  0.2056
 5805TIP3    H138906   2.292   0.422   5.155 -0.1204 -2.5714 -0.7879
 5805TIP3    H238907   2.217   0.541   5.100 -1.3525 -1.4839  2.9567
 5806TIP3   OH238908   5.540   5.047   2.924  0.4220 -0.0987 -0.1449
 5806TIP3    H138909   5.534   5.126   2.871  1.5348 -0.0922 -0.2948
 5806TIP3    H238910   5.611   4.996   2.882 -0.4885 -1.3265 -0.2584
 5807TIP3   OH238911   2.539   1.730  16.429  0.0500 -0.1556 -0.0676
 5807TIP3    H138912   2.492   1.648  16.414  1.0451 -0.8460  0.4623
 5807TIP3    H238913   2.627   1.714  16.395  0.4567  0.4363  0.6741
 5808TIP3   OH238914   2.453   3.224  17.158 -0.2872  0.0187  0.2274
 5808TIP3    H138915   2.434   3.315  17.136 -1.7156 -0.4839 -0.8055
 5808TIP3    H238916   2.371   3.178  17.140  0.0892 -1.3182  1.7158
 5809TIP3   OH238917   4.526   5.002  11.204  0.8178  0.6039  0.3271
 5809TIP3    H138918   4.576   5.043  11.134  2.0380  0.0091  0.8200
 5809TIP3    H238919   4.576   4.924  11.227 -0.0099  0.3300  1.2905
 5810TIP3   OH238920   2.752   1.105  15.882  0.7132 -0.8038 -0.0470
 5810TIP3    H138921   2.683   1.169  15.904  1.1865 -0.7704  1.4476
 5810TIP3    H238922   2.711   1.047  15.819  0.0735  0.6199 -1.0089
 5811TIP3   OH238923   3.932   4.096  10.942  0.0947 -0.7555  0.4008
 5811TIP3    H138924   3.965   4.097  11.032 -0.7463  0.0822  0.7258
 5811TIP3    H238925   3.989   4.157  10.895  0.0021 -0.5231  0.5845
 5812TIP3   OH238926   6.500   5.336  12.276 -0.2021 -0.2531 -0.1656
 5812TIP3    H138927   6.531   5.426  12.286 -0.7954 -0.0556 -0.0939
 5812TIP3    H238928   6.457   5.335  12.190 -0.3181 -0.4336 -0.1059
 5813TIP3   OH238929   1.753   4.431  13.716 -0.3273 -0.1279  0.4134
 5813TIP3    H138930   1.693   4.465  13.782 -2.8228 -0.0211 -1.7006
 5813TIP3    H238931   1.754   4.498  13.648  0.8546 -0.9043 -0.3670
 5814TIP3   OH238932   6.781   2.366   1.538 -0.0547  0.0592  0.6020
 5814TIP3    H138933   6.712   2.302   1.520  1.5408 -1.0215 -2.1685
 5814TIP3    H238934   6.861   2.315   1.546  1.1789  1.5988 -1.0680
 5815TIP3   OH238935   4.238   5.628   2.391  0.1322  0.7866 -0.0466
 5815TIP3    H138936   4.166   5.669   2.439  1.2537  1.6882  0.9273
 5815TIP3    H238937   4.208   5.538   2.375 -2.1039  1.7164 -1.6128
 5816TIP3   OH238938   5.426   0.145  13.922 -0.3547  0.0432 -0.0711
 5816TIP3    H138939   5.391   0.182  14.002  2.2117  0.5905  0.9025
 5816TIP3    H238940   5.355   0.152  13.858 -2.1009  0.5510  1.8567
 5817TIP3   OH238941   0.974   3.381   2.358  0.0084  0.0077 -0.5799
 5817TIP3    H138942   0.965   3.392   2.263  2.4713 -0.8545 -0.9831
 5817TIP3    H238943   1.022   3.300   2.369  2.0327  1.3424  1.2690
 5818TIP3   OH238944   0.786   3.093   5.185 -0.2486 -0.4937  0.7592
 5818TIP3    H138945   0.805   3.052   5.100  0.3610  2.5163 -0.7345
 5818TIP3    H238946   0.728   3.032   5.229  1.0101 -3.1385 -0.9479
 5819TIP3   OH238947   2.171   4.569   4.568 -0.0484 -0.9717  0.5077
 5819TIP3    H138948   2.136   4.599   4.484 -0.0998 -0.0928  0.8352
 5819TIP3    H238949   2.134   4.629   4.633  0.9536 -0.8824  1.0160
 5820TIP3   OH238950   2.807   1.285   3.871  0.0967  0.0084  0.2879
 5820TIP3    H138951   2.847   1.289   3.958  1.3749  1.1478 -0.3006
 5820TIP3    H238952   2.877   1.250   3.815 -0.3092  0.4017 -0.4722
 5821TIP3   OH238953   2.964   6.476  14.507 -0.3836  0.4092 -0.1063
 5821TIP3    H138954   2.960   6.401  14.448  1.3741  1.1367 -1.2573
 5821TIP3    H238955   2.968   6.552  14.448 -2.2783  1.4678  1.0192
 5822TIP3   OH238956   0.232   4.543   1.860 -0.0649  0.4694  0.2780
 5822TIP3    H138957   0.245   4.470   1.800  1.3734  0.0235  1.0855
 5822TIP3    H238958   0.186   4.609   1.808  3.3852  1.1830 -2.1840
 5823TIP3   OH238959   5.965   5.897  15.505  0.4472  0.4927  0.1546
 5823TIP3    H138960   5.904   5.971  15.495 -1.2093 -0.8427 -0.0218
 5823TIP3    H238961   6.000   5.906  15.593 -0.9549  0.6210  0.7168
 5824TIP3   OH238962   5.317   1.096   1.134  0.5049 -0.1093  0.9253
 5824TIP3    H138963   5.406   1.077   1.165  1.2209  1.9463  0.3307
 5824TIP3    H238964   5.283   1.012   1.105  2.8312 -0.7418 -0.2260
 5825TIP3   OH238965   3.519   0.499   3.485 -0.4869  0.0404 -0.2155
 5825TIP3    H138966   3.538   0.447   3.564 -0.3917  0.3925 -0.0055
 5825TIP3    H238967   3.457   0.445   3.436  0.1926 -0.6239 -0.3701
 5826TIP3   OH238968   3.394   0.522   2.040 -0.3573  0.1819  0.1488
 5826TIP3    H138969   3.343   0.565   2.109  1.1019  2.8899 -0.3511
 5826TIP3    H238970   3.339   0.448   2.013 -2.6936  1.2888  1.5613
 5827TIP3   OH238971   1.124   6.127  16.363  0.3150  0.1620  0.4206
 5827TIP3    H138972   1.103   6.220  16.377 -2.5050 -0.2535 -0.4360
 5827TIP3    H238973   1.044   6.081  16.384  0.7043 -1.8177 -1.9644
 5828TIP3   OH238974   2.911   5.169  16.378  0.4242 -0.5390  0.1505
 5828TIP3    H138975   2.992   5.220  16.383 -0.4055  0.7041  2.2326
 5828TIP3    H238976   2.899   5.152  16.285  2.2155  0.6283 -0.3495
 5829TIP3   OH238977   3.092   1.220   1.289  0.3681 -0.2952  0.2548
 5829TIP3    H138978   3.053   1.180   1.211 -1.9285 -0.4749  1.3880
 5829TIP3    H238979   3.145   1.151   1.327  1.2337 -0.3186 -0.9232
 5830TIP3   OH238980   0.849   0.109  15.754  0.3595 -0.3557 -1.0705
 5830TIP3    H138981   0.913   0.173  15.784  0.0397  0.0036 -1.1396
 5830TIP3    H238982   0.808   0.076  15.834 -0.4704  0.5773 -1.0847
 5831TIP3   OH238983   2.530   3.706   1.276 -0.0965 -0.1569  0.0591
 5831TIP3    H138984   2.525   3.628   1.220  0.7560  1.2788 -2.1468
 5831TIP3    H238985   2.442   3.742   1.275 -0.1293 -0.2419 -0.2137
 5832TIP3   OH238986   4.472   6.419  13.105  0.3159  0.1621  0.2808
 5832TIP3    H138987   4.393   6.392  13.058  0.4497  1.1987 -0.5773
 5832TIP3    H238988   4.537   6.353  13.080  0.4208  0.7573 -1.1572
 5833TIP3   OH238989   1.338   3.131  16.837 -0.2075 -0.3393  0.0919
 5833TIP3    H138990   1.268   3.158  16.896 -0.8555 -2.6053  0.4618
 5833TIP3    H238991   1.407   3.100  16.896  0.3002  0.0244 -0.3070
 5834TIP3   OH238992   5.090   4.423   4.005  0.5617  0.0964 -0.2931
 5834TIP3    H138993   5.081   4.511   3.970 -0.1429 -0.2840 -1.0996
 5834TIP3    H238994   5.178   4.395   3.980  0.2748  0.0470 -1.2670
 5835TIP3   OH238995   5.639   6.818   3.838 -0.3447  0.0504 -0.4062
 5835TIP3    H138996   5.652   6.888   3.774  0.0482 -0.1629 -0.5629
 5835TIP3    H238997   5.726   6.802   3.874 -0.5002 -0.0928 -0.0944
 5836TIP3   OH238998   4.112   3.576  13.009  0.1123  0.3151 -0.0980
 5836TIP3    H138999   4.048   3.514  13.043  0.9570 -0.7419 -0.4037
 5836TIP3    H239000   4.189   3.523  12.989  0.9427  1.4946 -0.1348
 5837TIP3   OH239001   1.095   0.199   1.361  0.0133  0.5370 -0.6302
 5837TIP3    H139002   1.102   0.105   1.378  3.1821  0.7022 -0.4696
 5837TIP3    H239003   1.098   0.240   1.447 -1.9908  0.8282 -0.6549
 5838TIP3   OH239004   4.049   5.032   2.418 -0.1878  0.1039  0.3107
 5838TIP3    H139005   4.041   4.996   2.330  0.1177 -1.3796  0.8604
 5838TIP3    H239006   3.972   5.088   2.428 -0.2683  0.2240 -0.8595
 5839TIP3   OH239007   3.768   4.515  14.104  0.0638  1.0161  0.2070
 5839TIP3    H139008   3.755   4.549  14.015 -0.1234  0.7302  0.1216
 5839TIP3    H239009   3.812   4.431  14.090 -2.7617 -0.5962  0.1677
 5840TIP3   OH239010   4.690   0.849   4.833  0.4963  0.3808 -0.4670
 5840TIP3    H139011   4.763   0.863   4.772  0.9177  0.7550  0.1140
 5840TIP3    H239012   4.706   0.762   4.869  0.7994  0.5714 -0.1437
 5841TIP3   OH239013   3.387   2.657   1.498  0.1688  0.8078 -0.8053
 5841TIP3    H139014   3.319   2.711   1.457  0.6333  1.6598 -0.4796
 5841TIP3    H239015   3.441   2.627   1.425  1.1509  2.5375 -0.8458
 5842TIP3   OH239016   5.384   0.157  12.061 -0.3142 -0.1337  0.7095
 5842TIP3    H139017   5.464   0.198  12.028 -0.3575 -1.0035 -0.5290
 5842TIP3    H239018   5.321   0.229  12.066 -0.1485  0.1239 -0.6453
 5843TIP3   OH239019   3.138   5.624   5.160 -0.1732  0.7864  0.6576
 5843TIP3    H139020   3.082   5.548   5.176  0.1139  0.1539 -1.1507
 5843TIP3    H239021   3.202   5.623   5.231 -0.4268 -0.4156  0.8818
 5844TIP3   OH239022   0.058   5.754   5.863 -0.0836 -0.0802  0.4697
 5844TIP3    H139023  -0.013   5.714   5.913 -1.1560  0.1728 -0.7916
 5844TIP3    H239024   0.034   5.739   5.771  2.3412 -1.4525 -0.0190
 5845TIP3   OH239025   0.176   4.412   5.626  0.1201  0.3531  0.2267
 5845TIP3    H139026   0.240   4.428   5.557  0.6023  0.5945  0.7230
 5845TIP3    H239027   0.222   4.432   5.707  0.1544 -1.7805  0.7717
 5846TIP3   OH239028   1.299   2.913  17.129  0.1404 -0.0756  0.0789
 5846TIP3    H139029   1.217   2.958  17.110 -0.6581 -1.8589 -0.8699
 5846TIP3    H239030   1.302   2.908  17.225  0.0046  1.4798  0.1882
 5847TIP3   OH239031   0.289   5.058   5.765 -0.4304  0.6402 -0.0306
 5847TIP3    H139032   0.291   4.968   5.733  0.7320  0.6120  0.0553
 5847TIP3    H239033   0.313   5.111   5.688 -0.1525  0.7868  0.1556
 5848TIP3   OH239034   0.250   3.093   5.199  0.2782 -0.2319 -0.3035
 5848TIP3    H139035   0.319   3.043   5.155  1.0520  1.4745 -1.1516
 5848TIP3    H239036   0.217   3.034   5.267  2.6478 -1.0959  0.2114
 5849TIP3   OH239037   2.087   4.189  11.871  0.1854 -0.3047  0.6204
 5849TIP3    H139038   2.095   4.151  11.783 -0.0283 -1.2942  1.0162
 5849TIP3    H239039   2.023   4.132  11.916 -3.0448  2.5849  0.1109
 5850TIP3   OH239040   4.273   6.258   3.595  0.0433  0.1990  0.7588
 5850TIP3    H139041   4.312   6.228   3.677 -0.0211 -1.2131  0.2916
 5850TIP3    H239042   4.312   6.202   3.528 -1.6365 -0.2169  0.0988
 5851TIP3   OH239043   4.191   3.638  13.416  0.1313 -0.1599 -0.5247
 5851TIP3    H139044   4.217   3.699  13.348  0.8258 -0.4184 -0.4962
 5851TIP3    H239045   4.208   3.684  13.498  1.3134 -0.6331 -0.4863
 5852TIP3   OH239046   6.685   5.175   4.685 -0.4375 -0.5177 -0.3897
 5852TIP3    H139047   6.628   5.138   4.753  0.4960  0.6365  1.0682
 5852TIP3    H239048   6.773   5.171   4.723  0.0852  0.3183 -1.4679
 5853TIP3   OH239049   6.594   5.332  11.836  0.1534  0.8043 -0.4220
 5853TIP3    H139050   6.657   5.365  11.899 -0.5344 -0.1344  0.7888
 5853TIP3    H239051   6.537   5.274  11.886 -0.4919  0.1176 -1.8790
 5854TIP3   OH239052   5.979   4.297   4.813 -0.9969 -0.2828 -0.4768
 5854TIP3    H139053   6.027   4.216   4.830 -0.3862 -0.0852 -1.1980
 5854TIP3    H239054   6.000   4.319   4.722 -1.2156  0.6359 -0.3188
 5855TIP3   OH239055   3.045   1.260  14.105  0.3555  0.4901 -0.0260
 5855TIP3    H139056   3.045   1.273  14.200 -3.3503 -0.7582  0.3132
 5855TIP3    H239057   3.039   1.166  14.093  2.2684  0.5042 -1.6232
 5856TIP3   OH239058   4.471   1.822   5.611  0.2793  0.4676 -0.2927
 5856TIP3    H139059   4.470   1.748   5.550 -0.3254 -1.3191  1.7448
 5856TIP3    H239060   4.380   1.853   5.613  0.7073  1.9863 -1.8697
 5857TIP3   OH239061   3.235   1.727   0.126 -0.0008  0.2337  0.1474
 5857TIP3    H139062   3.289   1.701   0.052  0.7123  2.2955 -0.1218
 5857TIP3    H239063   3.168   1.659   0.132  1.3396 -1.2433 -0.8564
 5858TIP3   OH239064   1.276   1.045  13.985  0.7345 -0.2719 -0.2715
 5858TIP3    H139065   1.211   1.039  14.055  0.8968 -0.3851 -0.1322
 5858TIP3    H239066   1.349   1.093  14.024  0.8456 -0.3806 -0.3472
 5859TIP3   OH239067   2.277   3.671  16.425 -0.1996 -0.6478 -0.3531
 5859TIP3    H139068   2.225   3.717  16.490 -1.1764 -1.7566 -0.2935
 5859TIP3    H239069   2.367   3.677  16.456 -0.6332 -1.0806  1.0683
 5860TIP3   OH239070   2.057   6.751   5.323  0.0165  0.4833  0.4260
 5860TIP3    H139071   2.043   6.663   5.287 -0.7477  0.4970  0.6577
 5860TIP3    H239072   2.107   6.736   5.403  0.0827  0.2798  0.3490
 5861TIP3   OH239073   6.399   0.565   5.190 -0.3160  0.7061  0.2441
 5861TIP3    H139074   6.491   0.577   5.168 -0.5115  0.6184 -0.6647
 5861TIP3    H239075   6.396   0.482   5.239  0.1021  0.7742  0.3837
 5862TIP3   OH239076   2.111   2.850   2.880  0.1284 -0.3409  0.5354
 5862TIP3    H139077   2.102   2.873   2.972 -0.4505 -0.8264  0.6041
 5862TIP3    H239078   2.083   2.928   2.833  0.2686 -0.1478  0.7685
 5863TIP3   OH239079   1.647   2.662  14.564 -0.3106  0.4622 -0.0337
 5863TIP3    H139080   1.584   2.731  14.547  0.1613  1.4617  1.9741
 5863TIP3    H239081   1.694   2.652  14.482 -1.3396  1.5224 -0.7824
 5864TIP3   OH239082   2.437   5.847   0.769 -0.6032 -0.9230 -0.3097
 5864TIP3    H139083   2.508   5.911   0.768 -1.7608  0.4113 -0.9471
 5864TIP3    H239084   2.452   5.796   0.849  0.7402 -0.3010 -0.1387
 5865TIP3   OH239085   6.497   2.782  11.447 -0.5499  0.4306 -0.8085
 5865TIP3    H139086   6.505   2.687  11.452 -1.0401  0.4437  0.3993
 5865TIP3    H239087   6.579   2.815  11.483 -1.1274  0.4647  0.5245
 5866TIP3   OH239088   3.670   4.035  16.015 -0.4203 -0.0984 -0.1910
 5866TIP3    H139089   3.665   4.014  15.921  0.5885 -2.0602  0.1517
 5866TIP3    H239090   3.740   3.980  16.048  1.2642  2.6895  1.2116
 5867TIP3   OH239091   6.007   5.724   5.474  0.2006  0.0102  0.0738
 5867TIP3    H139092   6.097   5.747   5.451  0.4105  0.5988  1.3936
 5867TIP3    H239093   6.007   5.717   5.569 -1.1558  0.0530  0.1049
 5868TIP3   OH239094   3.206   4.423  16.415 -0.5236  0.1381 -0.0730
 5868TIP3    H139095   3.168   4.505  16.446 -1.3162 -0.3127  0.1622
 5868TIP3    H239096   3.299   4.428  16.441 -0.7506  0.5990  0.6715
 5869TIP3   OH239097   0.760   4.573  11.777  0.1477 -0.1139  0.1395
 5869TIP3    H139098   0.759   4.662  11.813  0.5929 -0.1904  0.3518
 5869TIP3    H239099   0.787   4.518  11.851  1.2152 -0.2589 -0.3312
 5870TIP3   OH239100   6.265   0.176   5.045  0.1813 -0.0730 -0.9744
 5870TIP3    H139101   6.277   0.194   5.138  1.9205  0.5705 -1.2942
 5870TIP3    H239102   6.284   0.259   5.001 -0.5053 -0.3965 -1.9169
 5871TIP3   OH239103   1.818   6.453   3.075  0.4095 -0.0522 -0.2959
 5871TIP3    H139104   1.892   6.412   3.029  1.0430  0.9423 -0.2010
 5871TIP3    H239105   1.828   6.424   3.165 -0.2920 -1.2505 -0.5787
 5872TIP3   OH239106   1.208   2.517   4.006 -0.6033  0.6261 -0.3584
 5872TIP3    H139107   1.113   2.531   4.016 -0.6016  0.6034 -0.3080
 5872TIP3    H239108   1.222   2.512   3.912 -0.4915  1.7481 -0.4124
 5873TIP3   OH239109   1.433   6.118   6.213  0.3856  0.3529  0.6286
 5873TIP3    H139110   1.360   6.067   6.178  0.8403  0.3676 -0.3835
 5873TIP3    H239111   1.397   6.161   6.291 -0.3310 -0.5853  0.8356
 5874TIP3   OH239112   6.723   2.213  11.141  0.7066  0.2051  0.3239
 5874TIP3    H139113   6.686   2.140  11.091 -1.4168  0.0983  1.8992
 5874TIP3    H239114   6.737   2.282  11.076 -0.7155 -0.3641 -0.6381
 5875TIP3   OH239115   3.546   1.627  15.955 -0.9094 -0.0279 -0.5115
 5875TIP3    H139116   3.594   1.653  15.876  0.0598  0.5836  0.2477
 5875TIP3    H239117   3.571   1.693  16.020 -1.5475 -0.6277  0.3562
 5876TIP3   OH239118   3.326   1.016   1.440  0.1154  0.3577 -0.2326
 5876TIP3    H139119   3.350   0.935   1.485  2.2064  0.1319 -1.6098
 5876TIP3    H239120   3.286   1.071   1.508  0.2640 -1.1508  1.1235
 5877TIP3   OH239121   2.669   6.723  14.017  0.1547  0.5406 -0.0445
 5877TIP3    H139122   2.610   6.760  14.083  2.2015 -0.7339  2.6868
 5877TIP3    H239123   2.638   6.760  13.934 -1.9165  3.0727  1.6977
 5878TIP3   OH239124   6.038   5.033  11.686  0.0916  0.1630 -0.0148
 5878TIP3    H139125   5.945   5.055  11.678 -0.2798 -1.5374 -0.8675
 5878TIP3    H239126   6.079   5.075  11.610 -0.2692 -0.4449 -0.5527
 5879TIP3   OH239127   5.718   1.038  13.309 -0.2647  0.6596  0.1159
 5879TIP3    H139128   5.661   1.091  13.365 -0.0848  2.0834 -0.9865
 5879TIP3    H239129   5.658   0.987  13.254 -0.4642  1.0938 -0.0726
 5880TIP3   OH239130   0.761   1.914  10.251 -0.2697 -0.1758 -0.5735
 5880TIP3    H139131   0.796   1.990  10.298 -0.3984  0.5391 -1.5751
 5880TIP3    H239132   0.804   1.917  10.165 -0.4860 -1.0841 -0.7242
 5881TIP3   OH239133   4.698   5.326  16.671 -0.2459  0.5569  0.1621
 5881TIP3    H139134   4.787   5.349  16.645 -0.5216  0.1791 -1.1500
 5881TIP3    H239135   4.708   5.252  16.730  0.2847  0.3237 -0.2199
 5882TIP3   OH239136   3.700   6.815   1.517  0.1308  0.2187  0.2561
 5882TIP3    H139137   3.789   6.846   1.533  0.0999 -0.4648  1.8697
 5882TIP3    H239138   3.645   6.892   1.530  0.2952  0.1334  1.5755
 5883TIP3   OH239139   1.682   6.130   2.663  0.1692 -0.2311  0.0637
 5883TIP3    H139140   1.593   6.141   2.627  0.3792 -1.6997 -1.0065
 5883TIP3    H239141   1.670   6.077   2.741  0.1799 -1.3465 -0.6703
 5884TIP3   OH239142   3.799   2.040  11.984  0.2724 -0.1727  0.6272
 5884TIP3    H139143   3.815   2.134  11.987 -0.3430 -0.0495  0.1942
 5884TIP3    H239144   3.886   2.001  11.991  0.8003  0.4750 -1.3845
 5885TIP3   OH239145   4.564   4.197  14.766 -0.3864  0.4717 -0.0087
 5885TIP3    H139146   4.562   4.158  14.853 -1.4098 -0.4191 -0.4080
 5885TIP3    H239147   4.524   4.131  14.709  1.2122  0.5928 -1.3454
 5886TIP3   OH239148   1.405   3.429   5.784 -0.6526 -0.4995  0.2044
 5886TIP3    H139149   1.404   3.422   5.880  0.2650 -0.8835  0.1997
 5886TIP3    H239150   1.317   3.402   5.757 -1.2863  0.6939  0.9951
 5887TIP3   OH239151   1.438   2.086  11.502 -0.3896 -0.1264 -0.0002
 5887TIP3    H139152   1.371   2.154  11.504  0.6687  0.9477  1.7488
 5887TIP3    H239153   1.520   2.134  11.496  0.3389 -1.2994  0.3456
 5888TIP3   OH239154   4.292   0.653  15.348  0.7334 -0.3451  0.0724
 5888TIP3    H139155   4.214   0.696  15.383  0.2468 -1.3083  0.1774
 5888TIP3    H239156   4.262   0.568  15.316  1.4248 -0.0596 -1.4546
 5889TIP3   OH239157   3.696   4.148  11.288 -0.2828  0.5041 -0.2674
 5889TIP3    H139158   3.787   4.176  11.277 -0.1418  0.5160  0.8322
 5889TIP3    H239159   3.701   4.074  11.349 -1.0934  1.1546  0.6074
 5890TIP3   OH239160   3.016   4.283   0.237 -0.2363  0.4916 -0.3398
 5890TIP3    H139161   2.978   4.195   0.242 -0.3153  0.5183 -0.4708
 5890TIP3    H239162   3.028   4.309   0.329  0.2777  0.1329 -0.3035
 5891TIP3   OH239163   1.930   5.040   3.356 -0.0171  0.3919 -0.2301
 5891TIP3    H139164   1.872   5.029   3.281 -1.3000 -0.5765  0.8679
 5891TIP3    H239165   1.998   4.974   3.343 -0.8676 -0.5447  0.0341
 5892TIP3   OH239166   2.059   2.586  13.700 -0.5270  0.5102 -0.4126
 5892TIP3    H139167   1.974   2.545  13.715 -0.0030 -0.2561  0.5815
 5892TIP3    H239168   2.122   2.518  13.722  0.3563  1.0758 -1.1215
 5893TIP3   OH239169   0.036   6.349  16.794 -0.3568 -0.4193  0.3566
 5893TIP3    H139170  -0.054   6.318  16.804 -0.7115  0.8923  1.5837
 5893TIP3    H239171   0.032   6.411  16.721  0.1725 -2.4617 -1.4981
 5894TIP3   OH239172   0.697   1.726   2.753  0.0081  0.2169  0.1659
 5894TIP3    H139173   0.603   1.712   2.743 -0.6608  1.0347  3.8171
 5894TIP3    H239174   0.713   1.811   2.712 -0.6765 -0.1487 -0.9194
 5895TIP3   OH239175   3.366   3.382   3.467 -0.3309  0.6099 -0.0072
 5895TIP3    H139176   3.310   3.393   3.544  0.5915  1.1177  0.6177
 5895TIP3    H239177   3.386   3.471   3.438 -0.8138  0.4181 -0.9538
 5896TIP3   OH239178   2.165   3.830  16.185  0.3880  0.8478  0.4017
 5896TIP3    H139179   2.198   3.740  16.184 -1.2013  0.2386 -0.8947
 5896TIP3    H239180   2.124   3.840  16.271  0.6885  0.3845  0.6016
 5897TIP3   OH239181   6.681   0.985   0.357  0.0022 -0.0201 -0.3119
 5897TIP3    H139182   6.654   0.911   0.412 -0.8627 -0.7803 -1.6968
 5897TIP3    H239183   6.601   1.034   0.340  0.2392  0.1721 -0.9315
 5898TIP3   OH239184   4.290   1.446   0.618  0.4559 -0.2176 -0.2085
 5898TIP3    H139185   4.378   1.458   0.653  1.0789  0.3541 -1.8878
 5898TIP3    H239186   4.266   1.357   0.644  1.8529 -0.6687 -0.3970
 5899TIP3   OH239187   5.290   3.149  13.031  0.0198 -0.3480 -0.1517
 5899TIP3    H139188   5.300   3.235  13.073  1.2553 -0.3873 -0.3174
 5899TIP3    H239189   5.345   3.155  12.952 -0.8889 -0.8676 -0.8465
 5900TIP3   OH239190   4.493   0.632   1.122 -0.6850  0.4533  0.0423
 5900TIP3    H139191   4.402   0.645   1.094 -0.2398 -1.4026 -2.7338
 5900TIP3    H239192   4.539   0.710   1.091 -0.5883 -0.6577 -3.0064
 5901TIP3   OH239193   3.281   1.170  12.453 -0.4525  0.0053  0.0430
 5901TIP3    H139194   3.320   1.187  12.538  0.3645 -1.5138  0.0120
 5901TIP3    H239195   3.290   1.075  12.441  0.2212  0.2888 -2.0849
 5902TIP3   OH239196   4.067   5.652   3.509  0.2296  0.8002  0.1192
 5902TIP3    H139197   3.995   5.604   3.468 -1.4844  1.9765  1.6135
 5902TIP3    H239198   4.128   5.668   3.438 -0.3417 -1.3506 -0.9427
 5903TIP3   OH239199   2.854   4.143   1.128 -0.0546  0.1068 -0.1481
 5903TIP3    H139200   2.786   4.210   1.128 -1.1278 -0.9352 -0.6635
 5903TIP3    H239201   2.816   4.071   1.179  0.7749 -0.3814 -0.2083
 5904TIP3   OH239202   4.332   0.182   3.048 -0.3399  0.0717  0.3539
 5904TIP3    H139203   4.250   0.187   3.097  0.3104 -0.5575  1.5535
 5904TIP3    H239204   4.307   0.154   2.960 -1.2913 -1.3900  1.0707
 5905TIP3   OH239205   6.537   3.655   0.192  0.2214 -0.6573  0.3839
 5905TIP3    H139206   6.514   3.645   0.099 -0.2090 -0.5245  0.4706
 5905TIP3    H239207   6.631   3.670   0.192  0.2274 -0.6688 -0.0338
 5906TIP3   OH239208   1.391   0.182  14.764 -0.0380  0.0205 -0.0607
 5906TIP3    H139209   1.377   0.088  14.768 -1.6304  0.2507  0.6652
 5906TIP3    H239210   1.303   0.220  14.768  0.5646  1.5406 -0.3066
 5907TIP3   OH239211   5.459   4.959  12.682 -0.6371  0.2197  0.0712
 5907TIP3    H139212   5.407   4.880  12.665 -1.5522  0.6486  0.7733
 5907TIP3    H239213   5.457   4.968  12.777 -0.3593  0.9809  0.0070
 5908TIP3   OH239214   1.547   3.714   2.697 -0.5390 -0.2893  0.0520
 5908TIP3    H139215   1.515   3.626   2.719  0.8443 -0.5974  0.9507
 5908TIP3    H239216   1.642   3.709   2.710  0.3746 -0.1171 -4.8113
 5909TIP3   OH239217   4.210   1.463  13.142  0.5928 -0.5214 -0.4332
 5909TIP3    H139218   4.189   1.371  13.161  1.2848 -0.6694 -0.3625
 5909TIP3    H239219   4.190   1.474  13.049 -2.1064  0.0058  0.1127
 5910TIP3   OH239220   3.777   5.679  11.101 -0.1621  0.1619  0.3247
 5910TIP3    H139221   3.855   5.665  11.155  0.9955  2.5214 -0.5787
 5910TIP3    H239222   3.780   5.610  11.035  0.6738 -0.3096  0.8487
 5911TIP3   OH239223   6.695   2.965   4.725  0.6014 -0.0591 -0.1831
 5911TIP3    H139224   6.608   2.983   4.761  0.6424  3.7044 -1.5807
 5911TIP3    H239225   6.755   2.981   4.798  0.2782 -0.3724  0.1580
 5912TIP3   OH239226   5.718   2.118  11.496 -0.1071  0.1811  0.6166
 5912TIP3    H139227   5.732   2.211  11.478 -2.8003  0.4855 -0.3579
 5912TIP3    H239228   5.625   2.104  11.478 -0.3266 -2.2213  2.9760
 5913TIP3   OH239229   0.998   3.775   4.406  0.2913 -0.3549 -0.1451
 5913TIP3    H139230   1.049   3.762   4.326  0.8314 -1.9795  0.4131
 5913TIP3    H239231   1.006   3.692   4.453  0.5865  0.7762  1.9264
 5914TIP3   OH239232   5.131   4.868  13.420  0.0487 -0.0902  0.1500
 5914TIP3    H139233   5.121   4.892  13.328  2.6795 -0.8514 -0.4251
 5914TIP3    H239234   5.063   4.803  13.435  0.1898 -0.6974 -1.5716
 5915TIP3   OH239235   1.044   1.993  15.578  0.6179 -0.1910 -0.0599
 5915TIP3    H139236   1.114   1.978  15.642  0.7562 -0.5902 -0.3048
 5915TIP3    H239237   1.072   2.072  15.531  1.0342 -0.4964 -0.3315
 5916TIP3   OH239238   5.441   1.232  13.531  0.0562 -0.7615  0.1411
 5916TIP3    H139239   5.504   1.165  13.557 -0.0518  0.0022  2.6457
 5916TIP3    H239240   5.391   1.249  13.611 -1.6835  0.4136 -1.1463
 5917TIP3   OH239241   4.817   1.302  13.487 -0.0256 -0.1255  0.4452
 5917TIP3    H139242   4.772   1.335  13.409 -0.3887  0.3353  0.8405
 5917TIP3    H239243   4.910   1.317  13.469  0.0989 -2.1019 -0.8529
 5918TIP3   OH239244   5.668   0.938   5.351 -0.1694 -0.0114  0.3976
 5918TIP3    H139245   5.713   0.928   5.267 -0.9765  2.0240 -0.3327
 5918TIP3    H239246   5.596   0.998   5.333 -1.4169 -0.8646  2.1917
 5919TIP3   OH239247   1.241   0.498  12.361 -0.0795 -0.3511 -0.4507
 5919TIP3    H139248   1.163   0.515  12.308  0.2556  0.5385 -0.6825
 5919TIP3    H239249   1.244   0.403  12.370 -1.4641 -0.3819 -0.0144
 5920TIP3   OH239250   0.233   1.981   4.702  0.2602  0.4823  0.4546
 5920TIP3    H139251   0.269   1.911   4.758 -0.7686 -1.0134 -0.6623
 5920TIP3    H239252   0.222   2.055   4.762  1.8459 -0.1081  1.5888
 5921TIP3   OH239253   5.917   1.177  12.181  0.1390  0.0792  0.5619
 5921TIP3    H139254   5.933   1.252  12.237  0.3869  1.5627 -1.3868
 5921TIP3    H239255   5.912   1.102  12.241  1.2422  1.4369  2.4431
 5922TIP3   OH239256   6.815   2.131  15.531 -0.3949  0.3084  0.3472
 5922TIP3    H139257   6.795   2.042  15.503  0.9565  0.3900 -1.0769
 5922TIP3    H239258   6.753   2.186  15.484 -0.4155  0.1950  0.2420
 5923TIP3   OH239259   3.009   3.050   1.648  0.0437 -0.0979 -0.8125
 5923TIP3    H139260   2.926   3.007   1.669  0.5079 -0.8940 -0.5633
 5923TIP3    H239261   2.989   3.144   1.651 -0.6074 -0.2493  0.2883
 5924TIP3   OH239262   0.921   1.690  16.667  0.4064 -0.3780 -0.0942
 5924TIP3    H139263   0.892   1.775  16.635  0.1237 -0.2799  0.4164
 5924TIP3    H239264   0.995   1.710  16.724  0.7378 -0.5294 -0.4679
 5925TIP3   OH239265   4.069   4.082   0.261 -0.5738 -0.0200  0.3567
 5925TIP3    H139266   4.028   4.040   0.186 -1.5320 -0.9742  1.3786
 5925TIP3    H239267   4.154   4.039   0.270  0.2382  1.2088 -1.1129
 5926TIP3   OH239268   2.477   0.519  13.168 -0.0050 -0.4872 -0.3241
 5926TIP3    H139269   2.540   0.591  13.165  0.0677 -0.4635  0.9602
 5926TIP3    H239270   2.493   0.469  13.088  0.8459  0.1795 -0.5816
 5927TIP3   OH239271   2.322   6.584  14.484  0.1706  0.4337 -0.5368
 5927TIP3    H139272   2.412   6.560  14.462  0.4628  2.2339 -1.5396
 5927TIP3    H239273   2.331   6.649  14.553 -0.1152  2.5996 -2.3936
 5928TIP3   OH239274   0.291   0.445   4.281 -0.4981 -0.2148 -0.1734
 5928TIP3    H139275   0.375   0.400   4.295 -0.7577 -0.3866  0.9714
 5928TIP3    H239276   0.311   0.537   4.297 -0.9690 -0.4988  2.4585
 5929TIP3   OH239277   2.398   5.137  15.935  0.8379  0.2231 -0.4921
 5929TIP3    H139278   2.379   5.079  15.861  2.9281  0.4807 -1.3125
 5929TIP3    H239279   2.471   5.095  15.980 -1.5123 -0.8764  2.6195
 5930TIP3   OH239280   0.950   2.847  14.722 -0.0890  0.0574 -0.0456
 5930TIP3    H139281   0.891   2.907  14.766  0.2143  0.2808  0.0577
 5930TIP3    H239282   0.911   2.760  14.736  0.3262  0.0563  1.1944
 5931TIP3   OH239283   1.268   0.722  14.474  0.0351 -0.3119  0.6144
 5931TIP3    H139284   1.180   0.714  14.437 -0.2689 -1.2174  1.4831
 5931TIP3    H239285   1.255   0.770  14.556  0.6229  1.1594 -0.1104
 5932TIP3   OH239286   5.778   1.990  16.473  0.2362 -0.4102 -0.6693
 5932TIP3    H139287   5.720   2.050  16.426 -1.4959 -0.0437  1.7186
 5932TIP3    H239288   5.758   1.904  16.437 -1.2872 -0.1846 -0.4281
 5933TIP3   OH239289   3.976   3.642  16.087  0.7330  0.0016 -0.0912
 5933TIP3    H139290   4.051   3.638  16.028  0.3442  0.5083 -0.6326
 5933TIP3    H239291   3.928   3.720  16.060 -2.1278 -2.3098 -2.3697
 5934TIP3   OH239292   0.466   6.794   4.613  0.2948 -0.4543  0.0185
 5934TIP3    H139293   0.540   6.740   4.640 -0.2232 -0.4212  1.5835
 5934TIP3    H239294   0.479   6.877   4.658  0.5367  0.4097 -1.5664
 5935TIP3   OH239295   3.451   6.624   4.528  0.5893  0.7597  0.1606
 5935TIP3    H139296   3.372   6.655   4.573  0.1410 -0.7648  0.4727
 5935TIP3    H239297   3.493   6.565   4.591  1.5525  0.9301 -0.3085
 5936TIP3   OH239298   6.224   6.590   5.142  0.0176  0.1029 -0.0898
 5936TIP3    H139299   6.197   6.611   5.052 -1.0240 -0.9426 -0.0466
 5936TIP3    H239300   6.278   6.512   5.133 -1.0299 -0.6743  0.2946
 5937TIP3   OH239301   5.726   4.908   2.796 -0.3006 -0.9454 -0.5249
 5937TIP3    H139302   5.703   4.839   2.733  0.5441 -2.9040  1.1985
 5937TIP3    H239303   5.768   4.861   2.868 -1.8253  1.0990  1.8324
 5938TIP3   OH239304   6.203   6.598   4.700 -0.3742  0.0539  0.3768
 5938TIP3    H139305   6.278   6.596   4.641  0.5842  1.2344  1.5150
 5938TIP3    H239306   6.131   6.631   4.646 -0.1831 -1.3207 -0.7861
 5939TIP3   OH239307   4.034   1.413  15.507  0.2497 -0.5834 -0.0687
 5939TIP3    H139308   4.044   1.495  15.458  0.2301 -0.3470  0.3195
 5939TIP3    H239309   3.940   1.405  15.523  0.1121 -1.3010 -1.1526
 5940TIP3   OH239310   3.609   0.925  16.111  0.1534  0.3055 -0.0409
 5940TIP3    H139311   3.524   0.885  16.092  1.1640 -1.1169 -1.7970
 5940TIP3    H239312   3.594   1.019  16.098 -0.9451  0.0002 -1.2103
 5941TIP3   OH239313   0.885   1.152   0.528 -0.6770 -0.1732  0.2450
 5941TIP3    H139314   0.795   1.133   0.556 -0.7276  0.2037  0.3426
 5941TIP3    H239315   0.878   1.167   0.434 -0.9106  1.0124  0.4377
 5942TIP3   OH239316   5.914   4.352   2.901  0.0070 -0.1783 -0.7578
 5942TIP3    H139317   6.005   4.348   2.873  0.2264  0.9503 -0.2596
 5942TIP3    H239318   5.886   4.260   2.906  0.0114 -0.5092 -4.3785
 5943TIP3   OH239319   2.843   0.834  13.981 -0.0316 -0.2515  0.1422
 5943TIP3    H139320   2.813   0.748  14.012  1.3878 -1.8617 -2.5802
 5943TIP3    H239321   2.929   0.816  13.942  0.8565  2.6820  0.5240
 5944TIP3   OH239322   0.864   6.263  11.516  0.5456  0.2985 -0.2645
 5944TIP3    H139323   0.859   6.292  11.425  0.9940  0.6487 -0.1833
 5944TIP3    H239324   0.774   6.247  11.541  0.3768  0.6516 -0.6291
 5945TIP3   OH239325   3.184   2.820  11.698 -0.1603 -1.0489 -0.3585
 5945TIP3    H139326   3.169   2.881  11.770 -0.9317  0.8601 -2.0400
 5945TIP3    H239327   3.102   2.771  11.691 -1.3898  1.0501 -1.9201
 5946TIP3   OH239328   2.692   6.560   6.647  0.7026  0.6241  0.4860
 5946TIP3    H139329   2.656   6.522   6.727  0.9223  0.8975  0.7206
 5946TIP3    H239330   2.646   6.644   6.638 -0.6391 -0.2100 -0.6800
 5947TIP3   OH239331   4.762   5.515  16.903 -0.5471  0.2778  0.3051
 5947TIP3    H139332   4.807   5.451  16.848  0.5536  1.5857 -0.4097
 5947TIP3    H239333   4.681   5.472  16.929 -0.3614 -0.9911 -1.0405
 5948TIP3   OH239334   0.634   5.856  13.689  0.8411  0.1253  0.4213
 5948TIP3    H139335   0.618   5.767  13.717  0.9031 -0.0989 -0.2277
 5948TIP3    H239336   0.679   5.898  13.762  0.0971 -0.1401  1.0367
 5949TIP3   OH239337   1.717   4.115   1.843 -0.0144 -0.5291 -0.2542
 5949TIP3    H139338   1.744   4.031   1.805 -1.6607 -1.5808  0.7240
 5949TIP3    H239339   1.779   4.130   1.914  2.9443  1.3371 -2.9477
 5950TIP3   OH239340   5.236   2.094   5.260  0.2008 -0.0242 -0.0338
 5950TIP3    H139341   5.273   2.111   5.174 -0.0109 -0.7266 -0.2658
 5950TIP3    H239342   5.284   2.153   5.319 -0.7003  1.5647 -0.8338
 5951TIP3   OH239343   6.499   3.192   3.410  0.8638  0.2930 -0.9513
 5951TIP3    H139344   6.497   3.212   3.504  0.3251 -0.1045 -0.8733
 5951TIP3    H239345   6.570   3.128   3.401  0.4708 -0.1851 -0.7045
 5952TIP3   OH239346   2.530   3.418  15.385 -0.4450  0.6191 -0.2313
 5952TIP3    H139347   2.541   3.483  15.315  1.1813  0.6900  0.0423
 5952TIP3    H239348   2.538   3.334  15.341 -0.9195  0.6372 -0.3503
 5953TIP3   OH239349   4.627   1.957   0.434  0.0989 -0.1277 -0.0155
 5953TIP3    H139350   4.644   2.017   0.506 -2.1714 -0.9959  1.3481
 5953TIP3    H239351   4.650   2.007   0.355  1.1794  1.3938  1.2096
 5954TIP3   OH239352   5.764   6.813  13.036  0.0837 -0.0546  0.5539
 5954TIP3    H139353   5.776   6.889  12.980 -2.7002 -0.4462 -0.6922
 5954TIP3    H239354   5.724   6.848  13.116  1.8306  0.1604  1.3941
 5955TIP3   OH239355   4.165   6.034   3.969  0.4669  0.1711  0.4581
 5955TIP3    H139356   4.109   6.057   3.894  1.3522  1.8943  0.2737
 5955TIP3    H239357   4.221   5.964   3.936 -0.4850 -0.4788  0.1561
 5956TIP3   OH239358   6.757   6.124  13.069 -0.4802  0.3718  0.3300
 5956TIP3    H139359   6.682   6.168  13.029  1.5847  1.1110 -3.1206
 5956TIP3    H239360   6.759   6.037  13.028  0.3132  0.2279  0.6546
 5957TIP3   OH239361   1.338   6.451  13.196  0.0802  0.1236  0.2968
 5957TIP3    H139362   1.266   6.489  13.246 -0.5025  1.4851 -1.4520
 5957TIP3    H239363   1.302   6.370  13.159 -0.6655  0.8881 -0.7124
 5958TIP3   OH239364   4.936   5.306  16.464  0.0151  1.2168 -0.2517
 5958TIP3    H139365   4.842   5.325  16.454  0.0182  1.8318  0.7484
 5958TIP3    H239366   4.967   5.293  16.374 -1.2989 -0.3947 -0.5280
 5959TIP3   OH239367   3.430   6.386   1.830 -0.0933  0.8625 -0.5977
 5959TIP3    H139368   3.352   6.435   1.858 -0.2526  0.5276 -0.4434
 5959TIP3    H239369   3.413   6.365   1.739 -0.9833 -0.7004 -0.1091
 5960TIP3   OH239370   2.023   5.730  14.701  0.2696  0.0518 -0.5854
 5960TIP3    H139371   1.982   5.672  14.637  0.3927 -0.2713 -0.3668
 5960TIP3    H239372   2.116   5.706  14.700  0.5627  1.1061 -1.4352
 5961TIP3   OH239373   3.010   2.601   5.986 -0.7448 -0.0492  0.5104
 5961TIP3    H139374   3.028   2.518   5.942  1.5893  0.0555  1.1576
 5961TIP3    H239375   3.086   2.656   5.966 -0.8167  0.8756  2.5512
 5962TIP3   OH239376   1.556   5.612  14.590 -0.0885  0.1796 -0.2877
 5962TIP3    H139377   1.626   5.676  14.574 -0.0774 -0.1744 -1.8045
 5962TIP3    H239378   1.497   5.656  14.651  0.6879  1.0648 -0.1467
 5963TIP3   OH239379   4.142   4.689   2.626  0.4865 -0.1804 -0.1221
 5963TIP3    H139380   4.230   4.696   2.589  0.2398 -1.6937 -1.0764
 5963TIP3    H239381   4.092   4.642   2.560 -0.3815 -1.5918  1.4737
 5964TIP3   OH239382   2.209   6.703   5.937 -0.5373 -0.2085  0.1400
 5964TIP3    H139383   2.248   6.727   6.021  0.3713  0.7594 -0.5319
 5964TIP3    H239384   2.134   6.762   5.927 -0.4146 -0.0589  0.0993
 5965TIP3   OH239385   0.842   0.046  16.848  0.5036 -0.1854 -0.3636
 5965TIP3    H139386   0.883  -0.013  16.911 -0.4067 -1.4038 -0.8708
 5965TIP3    H239387   0.850   0.001  16.764 -1.7971 -0.4766 -0.4920
 5966TIP3   OH239388   1.441   5.665   3.685 -0.2213 -0.6262 -1.1945
 5966TIP3    H139389   1.491   5.588   3.711 -1.0522 -1.2455 -1.4268
 5966TIP3    H239390   1.376   5.677   3.754  0.7701  0.7090 -0.4288
 5967TIP3   OH239391   0.699   4.062  16.112  0.5968  0.3767  0.2427
 5967TIP3    H139392   0.730   4.130  16.052  0.4749  0.7447  0.5899
 5967TIP3    H239393   0.773   4.002  16.121  0.8204  0.6413  0.1891
 5968TIP3   OH239394   6.480   6.827  14.547  0.1882  0.8457  0.0740
 5968TIP3    H139395   6.401   6.879  14.537 -1.6771 -1.7872  0.1130
 5968TIP3    H239396   6.474   6.759  14.480  0.8308 -1.2190  1.9760
 5969TIP3   OH239397   5.411   4.617   5.344  0.3819  0.1495  0.7134
 5969TIP3    H139398   5.386   4.680   5.412  0.8588 -0.3639  1.3737
 5969TIP3    H239399   5.333   4.564   5.332  0.4077  0.0073  1.1335
 5970TIP3   OH239400   2.578   4.430  15.273 -0.0266 -0.9192 -0.5531
 5970TIP3    H139401   2.642   4.364  15.299  2.2106  1.2389 -0.1983
 5970TIP3    H239402   2.588   4.501  15.337 -1.6880  0.1644 -1.4010
 5971TIP3   OH239403   5.012   0.914  14.128  0.4458 -0.3858 -0.0878
 5971TIP3    H139404   5.038   0.899  14.218  2.2067 -0.4171 -0.5734
 5971TIP3    H239405   4.973   1.002  14.129 -1.5078 -1.1933  1.0420
 5972TIP3   OH239406   0.701   5.441  12.136  0.2750 -0.5964 -0.0447
 5972TIP3    H139407   0.666   5.398  12.215  0.6954 -0.4157  0.2424
 5972TIP3    H239408   0.704   5.534  12.159  0.4616 -0.5511 -0.2520
 5973TIP3   OH239409   0.287   5.724  10.729 -0.6021 -0.6469 -0.8624
 5973TIP3    H139410   0.335   5.778  10.667  1.3832 -1.3643 -0.0398
 5973TIP3    H239411   0.294   5.635  10.694  0.6924 -1.0892  0.3984
 5974TIP3   OH239412   4.567   3.996  11.461 -0.5319  0.4185 -0.0384
 5974TIP3    H139413   4.515   4.072  11.433 -0.1158  1.4141  1.7412
 5974TIP3    H239414   4.652   4.032  11.484 -0.1858 -0.6578  0.4429
 5975TIP3   OH239415   2.732   2.171  12.082 -0.3012  0.0023 -0.2111
 5975TIP3    H139416   2.694   2.087  12.109  0.3841  0.7820  3.7429
 5975TIP3    H239417   2.811   2.147  12.033 -0.9946 -1.6337 -0.5814
 5976TIP3   OH239418   1.562   4.072  12.048  0.4221  0.5659  0.4348
 5976TIP3    H139419   1.624   3.999  12.049  2.3746  2.1289  0.5353
 5976TIP3    H239420   1.487   4.041  12.099  1.0598 -1.4375  0.2344
 5977TIP3   OH239421   2.818   4.863   3.046 -0.2494 -0.8379 -0.5096
 5977TIP3    H139422   2.872   4.939   3.024  0.2586 -0.5483  1.5794
 5977TIP3    H239423   2.728   4.893   3.035 -0.0412 -0.2230 -0.5575
 5978TIP3   OH239424   3.370   3.877  15.905 -0.0629  0.1365  0.0240
 5978TIP3    H139425   3.330   3.816  15.966 -2.6015  0.6314 -0.9934
 5978TIP3    H239426   3.383   3.957  15.956 -0.5918  0.0260  0.3370
 5979TIP3   OH239427   6.135   6.655  16.019 -0.0247  0.4677 -0.1856
 5979TIP3    H139428   6.178   6.676  15.936  0.1237 -0.2161 -0.2936
 5979TIP3    H239429   6.108   6.739  16.054  0.1731  0.7930 -0.7888
 5980TIP3   OH239430   0.421   4.092  13.095 -0.0443 -0.2556 -0.2436
 5980TIP3    H139431   0.450   4.086  13.186 -0.0220  0.6902 -0.1702
 5980TIP3    H239432   0.330   4.064  13.097  0.4695 -2.0204 -0.2588
 5981TIP3   OH239433   2.168   5.054  13.221  0.6462  0.6847  0.5047
 5981TIP3    H139434   2.243   5.036  13.278  0.6638 -1.2726 -0.0532
 5981TIP3    H239435   2.192   5.014  13.138 -0.7762  0.5504  0.1409
 5982TIP3   OH239436   0.046   6.069  15.555  0.0758  0.2799 -0.1440
 5982TIP3    H139437   0.019   6.016  15.631 -0.4970  1.0675  0.2140
 5982TIP3    H239438   0.009   6.156  15.572 -0.7380  0.2679 -1.7071
 5983TIP3   OH239439   5.165   0.470   4.491  0.1442  0.1555  0.0811
 5983TIP3    H139440   5.132   0.538   4.432  0.7494  0.4183  0.0399
 5983TIP3    H239441   5.125   0.491   4.576  0.7742  0.9172  0.2054
 5984TIP3   OH239442   0.439   2.627   6.128 -0.3813 -0.1738 -0.1446
 5984TIP3    H139443   0.406   2.687   6.060 -1.8769 -1.2750 -0.4436
 5984TIP3    H239444   0.360   2.587   6.165  0.5645 -2.4482 -0.4161
 5985TIP3   OH239445   4.587   4.739  12.165  0.3073  0.8484  0.2930
 5985TIP3    H139446   4.623   4.825  12.187  0.8528  0.3398  1.5214
 5985TIP3    H239447   4.611   4.684  12.239  1.0907 -0.7017 -1.0641
 5986TIP3   OH239448   4.377   3.304  14.043  0.1758  0.7230  0.4506
 5986TIP3    H139449   4.431   3.229  14.018 -0.4271 -0.3177  2.0849
 5986TIP3    H239450   4.420   3.379  14.002  0.8617 -0.4807 -1.1502
 5987TIP3   OH239451   3.948   1.429  14.387 -0.6305  0.7296 -0.3729
 5987TIP3    H139452   3.938   1.419  14.482 -0.3137 -0.2389 -0.4279
 5987TIP3    H239453   3.913   1.348  14.350  2.3181 -0.4618 -0.8500
 5988TIP3   OH239454   3.821   5.123  16.411  0.3369  0.3055 -0.4114
 5988TIP3    H139455   3.833   5.075  16.493 -1.3289 -0.8197 -0.7563
 5988TIP3    H239456   3.768   5.199  16.435  0.8927  0.6562 -0.2661
 5989TIP3   OH239457   5.989   1.730   6.021 -0.5491 -0.1042 -0.3546
 5989TIP3    H139458   5.937   1.797   5.977 -1.1973 -0.8851 -0.8169
 5989TIP3    H239459   5.935   1.703   6.095 -0.0567  0.2544  0.1393
 5990TIP3   OH239460   0.663   0.906  14.404  0.6035  0.0242 -0.3039
 5990TIP3    H139461   0.634   0.964  14.333  1.0866  1.7257  0.8341
 5990TIP3    H239462   0.727   0.958  14.453  1.2486 -1.5839  0.6217
 5991TIP3   OH239463   3.077   5.188  10.973 -0.0572  0.3184 -0.4086
 5991TIP3    H139464   3.065   5.189  10.878 -1.4863 -0.8691 -0.2727
 5991TIP3    H239465   3.085   5.096  10.996 -1.5702  0.4450  0.8085
 5992TIP3   OH239466   1.463   0.247   4.755 -0.1215 -0.4449  0.0193
 5992TIP3    H139467   1.390   0.278   4.807  0.1086 -0.4210  0.3332
 5992TIP3    H239468   1.462   0.301   4.676 -0.0997 -0.0571  0.2799
 5993TIP3   OH239469   0.052   2.626  11.179  0.3642 -0.1962 -0.5819
 5993TIP3    H139470  -0.020   2.599  11.235 -0.1880  2.0738 -0.1061
 5993TIP3    H239471   0.019   2.613  11.090 -0.5710  0.5978 -0.3676
 5994TIP3   OH239472   5.578   5.753   5.762  0.0650  0.0969  0.4541
 5994TIP3    H139473   5.640   5.769   5.691 -0.8570  0.8183 -0.2193
 5994TIP3    H239474   5.535   5.671   5.738 -0.9650  0.8563 -0.3814
 5995TIP3   OH239475   6.147   1.271  14.715 -0.0488 -0.4129 -0.0051
 5995TIP3    H139476   6.222   1.315  14.753 -1.6067  1.9040  0.6136
 5995TIP3    H239477   6.146   1.300  14.624 -1.4853  1.6122  0.5755
 5996TIP3   OH239478   5.257   1.966   2.933 -0.6047 -0.5180 -0.2092
 5996TIP3    H139479   5.191   2.003   2.991  0.6881  0.0534  0.9729
 5996TIP3    H239480   5.288   2.041   2.882 -0.6378 -0.7071 -0.5033
 5997TIP3   OH239481   3.534   2.594  16.678 -0.5730 -0.5481  0.8414
 5997TIP3    H139482   3.620   2.618  16.644 -1.1852 -0.0530 -0.4180
 5997TIP3    H239483   3.536   2.498  16.682 -0.0928 -0.5569  0.4665
 5998TIP3   OH239484   4.690   6.557  16.563  0.4837 -0.2419  0.0635
 5998TIP3    H139485   4.758   6.534  16.627 -0.4587  1.1267  1.6386
 5998TIP3    H239486   4.664   6.646  16.587 -1.7351 -0.6527 -0.5982
 5999TIP3   OH239487   0.639   4.837   6.464 -0.3716  0.0042 -0.4238
 5999TIP3    H139488   0.723   4.840   6.417 -0.8291  1.0023 -1.2104
 5999TIP3    H239489   0.582   4.896   6.415 -1.4288 -0.3691  0.3275
 6000TIP3   OH239490   5.055   3.071   4.184 -0.4433  0.3062 -0.0186
 6000TIP3    H139491   5.036   3.162   4.206 -1.1564 -0.1543  1.3904
 6000TIP3    H239492   4.969   3.031   4.171 -0.2753 -0.7081  1.7580
 6001TIP3   OH239493   1.756   6.808   4.276 -1.0616 -0.4566 -0.1078
 6001TIP3    H139494   1.726   6.758   4.351 -1.4957  0.8649  0.6230
 6001TIP3    H239495   1.715   6.894   4.285  0.1340  0.2523 -0.9897
 6002TIP3   OH239496   2.387   0.562   4.169 -0.3330  0.1827  0.6682
 6002TIP3    H139497   2.373   0.518   4.085  2.0097 -0.4288  0.5339
 6002TIP3    H239498   2.334   0.642   4.162  0.5696  0.6809 -1.8512
 6003TIP3   OH239499   5.639   2.504   3.814 -0.3979 -0.0044 -0.2082
 6003TIP3    H139500   5.587   2.570   3.768 -1.7522 -0.7705  0.1709
 6003TIP3    H239501   5.730   2.536   3.807 -0.7893  0.8825 -1.6872
 6004TIP3   OH239502   4.020   0.446   0.020  0.2494  0.3269  0.0982
 6004TIP3    H139503   4.050   0.405   0.101  1.7571  0.7881 -0.1864
 6004TIP3    H239504   3.975   0.526   0.049 -2.2119 -1.1518  0.6201
 6005TIP3   OH239505   3.421   0.357  15.129 -0.1714 -0.2798  0.1565
 6005TIP3    H139506   3.410   0.446  15.095  3.1811 -0.7097 -2.5801
 6005TIP3    H239507   3.498   0.362  15.185  1.4780 -1.7400 -1.8299
 6006TIP3   OH239508   1.231   6.359  17.015  0.1260  0.2853 -0.1664
 6006TIP3    H139509   1.241   6.318  17.101  0.5783  1.0374  0.1503
 6006TIP3    H239510   1.200   6.289  16.958  2.6868 -0.9940 -0.0995
 6007TIP3   OH239511   4.426   5.679  13.989  0.3492  0.6418 -0.0711
 6007TIP3    H139512   4.483   5.636  13.926 -0.5123  0.9836 -1.0984
 6007TIP3    H239513   4.465   5.766  14.001  1.3936  0.0634  1.0860
 6008TIP3   OH239514   1.360   5.808   6.010  0.5379  0.0165  0.1886
 6008TIP3    H139515   1.444   5.853   6.004 -0.6220  2.1839 -1.7926
 6008TIP3    H239516   1.295   5.879   6.009 -1.3987 -1.5989 -2.2398
 6009TIP3   OH239517   4.649   0.291  14.372  0.3368 -0.4176  0.0347
 6009TIP3    H139518   4.579   0.331  14.321  0.2860  0.9932  1.1296
 6009TIP3    H239519   4.678   0.216  14.320  1.6472  2.0176 -3.0629
 6010TIP3   OH239520   5.292   2.194  15.472  0.7464 -0.2858  0.3158
 6010TIP3    H139521   5.217   2.167  15.419  0.5313 -1.3061  1.1177
 6010TIP3    H239522   5.339   2.257  15.417 -0.8431  0.5855 -0.0859
 6011TIP3   OH239523   5.834   0.967   3.151  0.3612 -0.1834  0.1969
 6011TIP3    H139524   5.849   0.883   3.195 -2.0537 -0.3594  0.8572
 6011TIP3    H239525   5.914   1.017   3.167  1.0182 -1.5880  1.6266
 6012TIP3   OH239526   6.310   6.046   4.357  0.4554 -0.0757  0.1757
 6012TIP3    H139527   6.303   6.057   4.263  0.5778  0.5153  0.2330
 6012TIP3    H239528   6.398   6.077   4.378  0.0428  0.8328  0.6273
 6013TIP3   OH239529   2.788   1.628   1.194  0.1998 -0.1765 -0.1137
 6013TIP3    H139530   2.737   1.683   1.133 -0.6009 -0.5197  0.2305
 6013TIP3    H239531   2.725   1.604   1.262  1.0734  0.1818  0.8499
 6014TIP3   OH239532   5.761   0.877   6.209  0.4851 -0.4018  0.1652
 6014TIP3    H139533   5.759   0.928   6.290 -1.6342 -0.9123  0.4928
 6014TIP3    H239534   5.720   0.934   6.144  0.3796 -0.7413 -0.0657
 6015TIP3   OH239535   6.232   3.190   4.427 -0.0011 -0.3680 -0.0198
 6015TIP3    H139536   6.229   3.155   4.338  1.2717 -0.8322  0.1054
 6015TIP3    H239537   6.325   3.193   4.449 -0.3417 -2.0626  1.9972
 6016TIP3   OH239538   0.712   6.158  12.179  0.2423  0.5466  0.0082
 6016TIP3    H139539   0.628   6.156  12.224  0.2515  1.1596  0.0650
 6016TIP3    H239540   0.762   6.226  12.224  1.2693 -0.7001  0.8337
 6017TIP3   OH239541   5.955   2.854   1.825 -0.5429 -0.4488  0.1411
 6017TIP3    H139542   5.975   2.846   1.732 -1.8740 -0.3123 -0.1869
 6017TIP3    H239543   5.894   2.782   1.842  0.0864 -0.7751  1.0267
 6018TIP3   OH239544   0.289   1.527  15.870  0.2121 -0.2545  0.6626
 6018TIP3    H139545   0.336   1.479  15.802 -1.5084 -1.4462  0.2326
 6018TIP3    H239546   0.283   1.617  15.838 -1.2507 -0.9557 -1.2214
 6019TIP3   OH239547   0.274   6.320  15.674  0.0918 -0.0009  0.1628
 6019TIP3    H139548   0.287   6.232  15.708 -0.1392 -0.0010  0.2482
 6019TIP3    H239549   0.363   6.353  15.658  0.1703 -0.3094 -0.0321
 6020TIP3   OH239550   5.238   3.865  16.756 -0.2115 -0.1628 -0.6486
 6020TIP3    H139551   5.160   3.835  16.709 -0.5579  1.0333 -0.8592
 6020TIP3    H239552   5.312   3.835  16.702 -0.5259 -0.9523 -0.6534
 6021TIP3   OH239553   0.655   3.871   4.940  0.4183 -0.7990 -0.7460
 6021TIP3    H139554   0.702   3.913   5.012  2.0573 -2.2135 -0.9105
 6021TIP3    H239555   0.589   3.935   4.914 -0.2121 -0.1966  1.9467
 6022TIP3   OH239556   5.300   3.126  14.274 -0.1727 -0.2547  0.0102
 6022TIP3    H139557   5.379   3.119  14.221 -1.7712 -0.8046 -2.4611
 6022TIP3    H239558   5.230   3.092  14.218 -2.4297  1.6557  1.4811
 6023TIP3   OH239559   6.767   6.376  14.903 -0.0797  0.3664  0.3732
 6023TIP3    H139560   6.782   6.287  14.869  0.7146 -0.1480  1.9517
 6023TIP3    H239561   6.680   6.373  14.942 -0.3621  0.5072 -0.2418
 6024TIP3   OH239562   5.389   6.624  15.218  0.0309  0.1872 -0.4112
 6024TIP3    H139563   5.458   6.629  15.152 -0.1871  1.8921 -0.5468
 6024TIP3    H239564   5.332   6.554  15.188  0.7478 -0.0607 -1.2237
 6025TIP3   OH239565   1.915   2.400  13.487 -0.1242 -0.1408 -0.2543
 6025TIP3    H139566   1.838   2.383  13.433 -0.7023  0.2639  0.4293
 6025TIP3    H239567   1.942   2.489  13.464 -1.8721  1.0327  1.8637
 6026TIP3   OH239568   6.221   0.345  15.743  0.3991 -0.4830 -0.0381
 6026TIP3    H139569   6.292   0.353  15.806 -0.1178  0.2782  0.4663
 6026TIP3    H239570   6.245   0.405  15.672 -0.0750  0.3468  0.4774
 6027TIP3   OH239571   1.747   4.060   4.712 -0.7122 -0.1817 -0.3725
 6027TIP3    H139572   1.685   4.016   4.770 -1.1251 -1.5888 -1.8080
 6027TIP3    H239573   1.737   4.015   4.628  0.3215  1.3608 -1.3706
 6028TIP3   OH239574   2.556   6.517  16.247 -0.7697  0.2302  0.0973
 6028TIP3    H139575   2.526   6.578  16.315  1.4368  1.2594  0.2719
 6028TIP3    H239576   2.542   6.564  16.165  1.4840  1.3726  0.2664
 6029TIP3   OH239577   2.294   3.917   5.142  0.0119  0.6293  0.2602
 6029TIP3    H139578   2.310   3.826   5.167  0.2998  1.2076  2.3809
 6029TIP3    H239579   2.338   3.927   5.057  1.1747 -0.8410  0.6458
 6030TIP3   OH239580   0.054   4.658  13.266 -0.2864 -0.3971  0.4813
 6030TIP3    H139581   0.116   4.722  13.231 -0.5726 -1.2133 -1.7174
 6030TIP3    H239582  -0.009   4.709  13.317 -2.9497  1.9170 -4.4342
 6031TIP3   OH239583   2.972   4.192   0.852 -0.2827 -0.3984 -0.5523
 6031TIP3    H139584   2.983   4.121   0.788  0.5272 -2.1084  1.3456
 6031TIP3    H239585   2.993   4.151   0.936  0.4926  2.2130  0.6133
 6032TIP3   OH239586   3.561   1.190   6.469 -0.4931 -0.1056 -0.0505
 6032TIP3    H139587   3.477   1.145   6.458 -0.3697 -0.1257 -1.0286
 6032TIP3    H239588   3.587   1.171   6.559 -1.4006 -0.3316  0.1756
 6033TIP3   OH239589   4.484   4.445  12.538 -0.2946 -0.2385 -0.5225
 6033TIP3    H139590   4.472   4.364  12.488 -1.3943 -1.5095  1.6239
 6033TIP3    H239591   4.493   4.415  12.629 -1.0340  2.0681  0.3715
 6034TIP3   OH239592   1.206   2.229   2.557 -0.5716 -0.4262 -0.6376
 6034TIP3    H139593   1.236   2.184   2.477  1.5545 -1.0136  0.4137
 6034TIP3    H239594   1.243   2.317   2.550 -0.1103 -0.5796 -0.1706
 6035TIP3   OH239595   4.283   1.670  14.589 -0.0474 -0.2638  0.2619
 6035TIP3    H139596   4.256   1.583  14.560  0.7969 -0.3828 -0.2089
 6035TIP3    H239597   4.203   1.722  14.588 -0.1511 -0.3837 -1.8577
 6036TIP3   OH239598   0.979   3.158   5.382 -0.1769  0.0953 -0.0051
 6036TIP3    H139599   0.911   3.155   5.315 -1.3245  0.7939  1.0957
 6036TIP3    H239600   0.998   3.251   5.393  1.1461 -0.0904 -0.4474
 6037TIP3   OH239601   5.456   5.144  16.090  0.2844  0.0742  0.2351
 6037TIP3    H139602   5.530   5.095  16.125  1.2862 -0.2090 -2.0761
 6037TIP3    H239603   5.461   5.229  16.134  0.4875 -0.7610  1.8924
 6038TIP3   OH239604   0.715   3.876  13.235  0.2046  0.1889 -0.3965
 6038TIP3    H139605   0.743   3.896  13.146  0.9451 -0.5410 -0.3352
 6038TIP3    H239606   0.621   3.857  13.227 -0.0247  1.4160 -0.7983
 6039TIP3   OH239607   0.691   6.613  16.870 -0.1785  0.4831  0.6267
 6039TIP3    H139608   0.676   6.643  16.960 -0.5793 -0.4869  0.9076
 6039TIP3    H239609   0.643   6.530  16.865  0.8762 -0.1137 -0.0861
 6040TIP3   OH239610   1.458   0.523  14.650  0.4639  0.6615 -0.5861
 6040TIP3    H139611   1.407   0.443  14.635  1.3365  0.1223 -0.7096
 6040TIP3    H239612   1.501   0.539  14.566  2.4849 -0.3156  0.1945
 6041TIP3   OH239613   5.381   1.140   0.814 -0.2672  0.1060 -0.1644
 6041TIP3    H139614   5.383   1.047   0.789 -0.3676 -0.4537  1.7485
 6041TIP3    H239615   5.473   1.162   0.830 -0.2968  0.1829 -0.1033
 6042TIP3   OH239616   0.348   6.473  12.396 -0.0619  0.2541 -0.4590
 6042TIP3    H139617   0.398   6.394  12.419 -3.0125 -1.9121 -0.9470
 6042TIP3    H239618   0.397   6.512  12.324  0.8464 -1.8868 -1.0900
 6043TIP3   OH239619   1.732   2.162   2.559  0.4048 -0.1061 -0.5747
 6043TIP3    H139620   1.661   2.163   2.623  0.1217 -0.5929 -0.8695
 6043TIP3    H239621   1.701   2.219   2.489  1.3890  1.7102  0.4018
 6044TIP3   OH239622   3.298   3.868   0.362  0.2944 -0.3433 -0.3746
 6044TIP3    H139623   3.330   3.798   0.419 -1.4532 -2.1167 -1.4451
 6044TIP3    H239624   3.368   3.934   0.363  1.6084 -1.6629  1.4022
 6045TIP3   OH239625   4.006   0.983  14.259  0.0560  0.3242  0.3027
 6045TIP3    H139626   4.095   0.984  14.295 -0.5596  0.5652  1.8532
 6045TIP3    H239627   3.961   0.914  14.307 -0.0857 -1.2225 -1.8840
 6046TIP3   OH239628   6.337   2.285   4.877  0.3792  0.0536  0.1347
 6046TIP3    H139629   6.417   2.233   4.877  0.7626  0.6313 -0.3171
 6046TIP3    H239630   6.367   2.376   4.875 -0.2949  0.2718 -0.6032
 6047TIP3   OH239631   2.417   1.647   4.387  0.3513  0.3319 -0.5925
 6047TIP3    H139632   2.328   1.681   4.379 -0.5277 -1.8709 -1.0100
 6047TIP3    H239633   2.407   1.552   4.381  2.3612 -0.2425  2.5913
 6048TIP3   OH239634   4.851   6.491   0.392  0.5058 -0.2020 -0.1276
 6048TIP3    H139635   4.909   6.497   0.316  0.0475 -1.1144 -0.5574
 6048TIP3    H239636   4.763   6.506   0.357  0.2250 -1.2068  0.1144
 6049TIP3   OH239637   6.063   5.677  13.258  0.0576  0.6661  0.3663
 6049TIP3    H139638   6.139   5.735  13.263  0.0206  0.7988 -0.3640
 6049TIP3    H239639   6.059   5.652  13.165 -0.6947  0.5342  0.4301
 6050TIP3   OH239640   3.350   2.539  14.406  0.4647  0.1675 -0.0902
 6050TIP3    H139641   3.434   2.495  14.399  1.0809  1.2972 -0.0756
 6050TIP3    H239642   3.362   2.621  14.357  0.2562  1.5888  2.1041
 6051TIP3   OH239643   3.379   0.546   1.125  0.4088  0.4440  0.5397
 6051TIP3    H139644   3.387   0.489   1.201  2.7392 -0.9471 -0.6157
 6051TIP3    H239645   3.391   0.488   1.050  2.2523  2.2732 -0.7135
 6052TIP3   OH239646   0.035   5.455  15.313  0.3775 -0.4168  0.3636
 6052TIP3    H139647  -0.050   5.420  15.286 -0.2758  0.7886  0.7653
 6052TIP3    H239648   0.013   5.525  15.375  1.4434  2.2806 -2.0440
 6053TIP3   OH239649   3.289   6.813   0.747  0.0659 -0.2055 -0.0422
 6053TIP3    H139650   3.263   6.888   0.800  0.9515 -0.2183  0.4287
 6053TIP3    H239651   3.364   6.775   0.794 -0.5709 -1.5896 -0.0792
 6054TIP3   OH239652   2.561   1.607   3.872  0.1571 -0.2594 -0.1714
 6054TIP3    H139653   2.483   1.632   3.823  2.0571  1.7748 -2.4263
 6054TIP3    H239654   2.558   1.661   3.951 -0.3871  0.2728 -0.5485
 6055TIP3   OH239655   0.055   1.080   0.647  0.1332  0.2013 -0.3087
 6055TIP3    H139656   0.089   0.992   0.632  3.0080  1.3192 -0.9909
 6055TIP3    H239657   0.090   1.132   0.575 -0.7097  2.1063  0.5783
 6056TIP3   OH239658   4.307   4.109  11.659 -0.1049 -0.3288  0.0574
 6056TIP3    H139659   4.295   4.110  11.565  1.8663  2.5945 -0.2984
 6056TIP3    H239660   4.307   4.201  11.685  0.4181 -0.9866  2.7528
 6057TIP3   OH239661   4.048   4.039   3.282 -0.4957  0.4671  0.4323
 6057TIP3    H139662   4.039   3.994   3.198  2.7634 -2.2426  1.3448
 6057TIP3    H239663   3.994   3.988   3.342 -0.8983  0.9560  0.4953
 6058TIP3   OH239664   3.766   1.210   4.127 -0.4117 -0.7310 -0.1571
 6058TIP3    H139665   3.697   1.147   4.109 -0.7064 -0.4154 -0.1475
 6058TIP3    H239666   3.720   1.293   4.141 -0.0105 -0.4578 -0.4446
 6059TIP3   OH239667   4.648   4.457  14.391 -0.1779  0.5069  0.0094
 6059TIP3    H139668   4.713   4.421  14.331 -1.4598 -1.7198 -0.1781
 6059TIP3    H239669   4.696   4.472  14.473  1.1211  1.5353 -0.9187
 6060TIP3   OH239670   5.610   4.182  13.108  0.3392 -0.7943  0.4708
 6060TIP3    H139671   5.515   4.184  13.096  0.5003  0.3378 -0.9280
 6060TIP3    H239672   5.639   4.108  13.054  0.1901 -1.8128  1.7324
 6061TIP3   OH239673   2.449   3.472  14.761  0.1568 -0.2666  0.2665
 6061TIP3    H139674   2.446   3.526  14.682  2.3409 -0.3745  0.0471
 6061TIP3    H239675   2.481   3.387  14.731 -1.6579 -1.2243  0.8758
 6062TIP3   OH239676   3.651   6.094  10.710  0.8422 -0.4897 -0.2492
 6062TIP3    H139677   3.682   6.036  10.639  0.8045 -0.6936 -0.1002
 6062TIP3    H239678   3.561   6.115  10.686  1.2045  0.4036 -0.8755
 6063TIP3   OH239679   6.365   1.845  13.797 -0.2920  0.2410 -0.0356
 6063TIP3    H139680   6.305   1.895  13.852 -0.6293  0.4672 -0.6069
 6063TIP3    H239681   6.449   1.890  13.808 -0.2789  0.0843  0.5517
 6064TIP3   OH239682   1.380   5.546  13.842  0.0722 -0.0231 -0.1422
 6064TIP3    H139683   1.449   5.610  13.826 -1.2852  1.3005 -0.9270
 6064TIP3    H239684   1.299   5.596  13.833 -0.9936 -1.4134  1.2820
 6065TIP3   OH239685   5.778   4.259   0.534 -0.8048 -0.0046 -0.6900
 6065TIP3    H139686   5.850   4.211   0.492  0.1689  1.1409 -0.3846
 6065TIP3    H239687   5.765   4.336   0.478 -1.6908 -0.1094 -0.6409
 6066TIP3   OH239688   6.720   5.895  12.943  0.1094  0.5886 -0.5661
 6066TIP3    H139689   6.653   5.855  12.887 -0.0903  1.8656 -1.2927
 6066TIP3    H239690   6.793   5.834  12.940 -1.5885 -1.7723  1.7065
 6067TIP3   OH239691   4.660   5.586  15.245 -0.3606 -0.1946  0.0179
 6067TIP3    H139692   4.667   5.666  15.192 -0.9253  0.3691  0.7750
 6067TIP3    H239693   4.578   5.546  15.217 -0.9338  0.3875  0.8329
 6068TIP3   OH239694   3.606   2.282   1.305 -0.1691 -0.2424  0.6279
 6068TIP3    H139695   3.588   2.208   1.363 -1.5969  0.3539  0.9817
 6068TIP3    H239696   3.693   2.312   1.330 -0.1345 -0.9560  1.3988
 6069TIP3   OH239697   3.580   1.432   0.647  0.3165 -0.9613  0.2946
 6069TIP3    H139698   3.516   1.421   0.576 -0.1248 -0.5598  0.6202
 6069TIP3    H239699   3.639   1.500   0.615  0.6753 -1.4409 -0.0708
 6070TIP3   OH239700   0.964   0.396  14.041 -0.1996 -0.5990 -0.0440
 6070TIP3    H139701   0.908   0.418  14.115  3.5417  1.1874  2.5708
 6070TIP3    H239702   1.021   0.326  14.074  1.0390 -0.3125 -1.4628
 6071TIP3   OH239703   5.071   1.934  11.532 -0.3626  0.2228  0.3152
 6071TIP3    H139704   5.004   1.870  11.509  0.4967 -0.6972  0.3084
 6071TIP3    H239705   5.093   1.914  11.623 -0.1636  0.5794  0.3480
 6072TIP3   OH239706   6.261   3.025   2.504  0.5856 -0.1784  0.5669
 6072TIP3    H139707   6.258   3.112   2.544  1.0748  0.5136 -0.8375
 6072TIP3    H239708   6.321   2.975   2.559  0.8240  0.5796  1.0026
 6073TIP3   OH239709   3.467   5.491  15.357  0.9854  0.7126  0.3908
 6073TIP3    H139710   3.435   5.435  15.428  0.4068 -0.3413 -0.6641
 6073TIP3    H239711   3.515   5.432  15.299  1.0638  1.4605 -0.3284
 6074TIP3   OH239712   1.729   0.704  12.479 -0.0321 -0.2645  0.0502
 6074TIP3    H139713   1.818   0.710  12.446  1.5720  0.6179  3.9836
 6074TIP3    H239714   1.684   0.779  12.441  1.4310  0.3106 -0.5979
 6075TIP3   OH239715   6.657   3.322  11.191  0.5401  1.0532  0.3634
 6075TIP3    H139716   6.613   3.284  11.115  2.8705  1.5655 -1.3210
 6075TIP3    H239717   6.602   3.397  11.215 -0.0442  1.0965 -1.0250
 6076TIP3   OH239718   3.030   2.786   5.366  0.1303 -0.8189  0.0367
 6076TIP3    H139719   3.109   2.775   5.314 -0.7763  0.6882 -1.7767
 6076TIP3    H239720   3.062   2.822   5.450  1.3379  0.7165 -1.0060
 6077TIP3   OH239721   5.531   5.311  14.141  0.4094  0.2770 -0.1932
 6077TIP3    H139722   5.532   5.310  14.045  1.0823  1.6586 -0.2392
 6077TIP3    H239723   5.612   5.266  14.166 -0.2106 -0.8893 -0.2303
 6078TIP3   OH239724   4.202   3.369   4.517 -0.7465 -0.0384  0.1600
 6078TIP3    H139725   4.189   3.288   4.566  0.0872 -0.2548  0.0354
 6078TIP3    H239726   4.285   3.357   4.471 -0.8915  0.6623 -0.3084
 6079TIP3   OH239727   3.513   0.183   5.381 -0.1690  0.0108 -0.1773
 6079TIP3    H139728   3.457   0.141   5.315 -0.2044  0.0321 -0.1604
 6079TIP3    H239729   3.477   0.153   5.465  0.8994 -1.3879 -0.1791
 6080TIP3   OH239730   2.995   4.056   5.554  0.3247  0.1538  0.4462
 6080TIP3    H139731   3.005   4.027   5.645 -0.1558 -1.3465  0.0473
 6080TIP3    H239732   3.037   3.987   5.502 -1.0128  0.0663 -0.5606
 6081TIP3   OH239733   2.283   2.345  14.843  0.4896 -0.1411 -0.1161
 6081TIP3    H139734   2.290   2.249  14.842 -1.2289 -0.3366 -2.3982
 6081TIP3    H239735   2.368   2.376  14.814  1.0513 -0.9607  0.6008
 6082TIP3   OH239736   3.887   1.119  16.088  0.0547  0.2969  0.2308
 6082TIP3    H139737   3.889   1.109  16.183  1.4816 -0.4164  0.1415
 6082TIP3    H239738   3.793   1.125  16.067 -0.3523 -0.9376  1.5394
 6083TIP3   OH239739   3.210   4.200  13.561 -0.0624 -0.0181  0.2150
 6083TIP3    H139740   3.215   4.177  13.653 -1.1155  1.1067  0.5776
 6083TIP3    H239741   3.153   4.277  13.558  1.3326  1.0268 -1.1909
 6084TIP3   OH239742   6.220   6.172  13.394  0.0318  0.2404 -0.4187
 6084TIP3    H139743   6.252   6.087  13.427 -1.1757  0.1533  0.6162
 6084TIP3    H239744   6.222   6.229  13.470 -1.5981  0.4073 -0.4715
 6085TIP3   OH239745   6.041   4.638  13.129 -0.3643 -0.3497  0.0089
 6085TIP3    H139746   6.038   4.610  13.037  0.6620 -0.1328 -0.0983
 6085TIP3    H239747   6.060   4.731  13.124  2.1591 -0.7755  0.4595
 6086TIP3   OH239748   4.762   3.275   5.027 -0.4703 -0.2676  0.0279
 6086TIP3    H139749   4.731   3.363   5.049  0.2875 -0.1883  0.8501
 6086TIP3    H239750   4.692   3.217   5.056 -0.7123  0.0275  0.0408
 6087TIP3   OH239751   6.785   3.796  17.067 -0.3134  0.5869 -0.3343
 6087TIP3    H139752   6.792   3.818  17.160 -1.9103  1.1559 -0.3042
 6087TIP3    H239753   6.706   3.842  17.038  0.0279  0.2303 -1.9212
 6088TIP3   OH239754   5.628   2.310   5.468 -0.0019  0.3605 -0.2727
 6088TIP3    H139755   5.636   2.403   5.450 -1.6148  1.0652  2.2252
 6088TIP3    H239756   5.719   2.278   5.467  0.5511  1.8331 -1.4844
 6089TIP3   OH239757   3.493   4.419   4.199  0.4228  0.6566  0.7415
 6089TIP3    H139758   3.560   4.381   4.142 -0.0576  2.7082 -1.3867
 6089TIP3    H239759   3.417   4.431   4.142 -0.2263  2.4636  1.8994
 6090TIP3   OH239760   0.490   3.250   3.009 -0.4884 -0.6750 -0.5517
 6090TIP3    H139761   0.445   3.268   2.927 -0.5360 -1.1527 -0.6291
 6090TIP3    H239762   0.427   3.202   3.062 -0.3530 -0.6345 -0.3497
 6091TIP3   OH239763   6.185   5.694  16.222  0.2902 -0.7211  0.3243
 6091TIP3    H139764   6.262   5.658  16.267  0.1717  0.8485  1.8789
 6091TIP3    H239765   6.198   5.788  16.223 -1.0233 -0.4923 -0.6362
 6092TIP3   OH239766   3.032   1.581   4.052  0.6122  0.2142  0.3471
 6092TIP3    H139767   3.031   1.549   3.961  2.5648  1.1635 -0.0739
 6092TIP3    H239768   2.959   1.642   4.056  1.0092  0.8226 -0.8900
 6093TIP3   OH239769   4.357   0.810  11.246  0.2396 -0.2595  0.2734
 6093TIP3    H139770   4.312   0.764  11.318  0.0081 -0.5779 -0.0679
 6093TIP3    H239771   4.401   0.883  11.288 -0.4800 -0.0285  0.6392
 6094TIP3   OH239772   4.273   1.839   3.232 -0.2269 -0.0184  0.0236
 6094TIP3    H139773   4.227   1.816   3.151 -0.3777  0.1253  0.0690
 6094TIP3    H239774   4.237   1.779   3.297 -0.7210  0.4267  0.1728
 6095TIP3   OH239775   3.093   3.410  13.689 -0.4690 -0.4177 -0.1436
 6095TIP3    H139776   3.076   3.318  13.707 -2.0703 -0.0263  0.5164
 6095TIP3    H239777   3.066   3.455  13.769  2.2047  0.4861  0.3588
 6096TIP3   OH239778   0.915   5.028   5.977  0.0273  0.1520 -0.0498
 6096TIP3    H139779   0.890   5.109   6.021  0.2098 -0.2614  0.8411
 6096TIP3    H239780   0.836   4.973   5.981  0.0048  0.1584 -0.3628
 6097TIP3   OH239781   5.478   5.461  12.866  0.2817 -0.0676 -0.5936
 6097TIP3    H139782   5.426   5.396  12.913  0.3262 -0.1256 -0.6246
 6097TIP3    H239783   5.567   5.428  12.870  0.2424 -0.2225 -0.9780
 6098TIP3   OH239784   5.025   5.844  14.072 -0.2679 -0.2046  0.1714
 6098TIP3    H139785   5.018   5.929  14.027  1.4820 -0.5149 -0.7804
 6098TIP3    H239786   5.092   5.858  14.138 -0.4828 -0.6599  0.4880
 6099TIP3   OH239787   5.281   5.629   5.475  0.7900  0.0864 -0.4453
 6099TIP3    H139788   5.285   5.590   5.563 -0.7063  0.0296 -0.3839
 6099TIP3    H239789   5.328   5.712   5.485  1.5012 -0.3650  0.1459
 6100TIP3   OH239790   5.495   6.733  12.871  0.5390  0.3217  0.0927
 6100TIP3    H139791   5.556   6.767  12.936  1.6979 -0.5024 -0.5292
 6100TIP3    H239792   5.449   6.810  12.838  2.1568  1.1298 -0.3559
 6101TIP3   OH239793   5.758   2.133   1.771 -0.4430 -0.4898  0.4104
 6101TIP3    H139794   5.676   2.109   1.815 -1.6811 -0.7726 -1.8803
 6101TIP3    H239795   5.745   2.224   1.745  0.6769 -0.0118  1.4163
 6102TIP3   OH239796   0.484   1.139  17.156  0.5790  0.9900  0.5040
 6102TIP3    H139797   0.528   1.068  17.201  0.4739  0.7064  0.1629
 6102TIP3    H239798   0.406   1.157  17.209  0.9933  1.3534  0.9936
 6103TIP3   OH239799   2.770   0.887   5.876 -0.2064 -0.1634  0.0722
 6103TIP3    H139800   2.747   0.805   5.919  1.2569 -1.1421 -0.9536
 6103TIP3    H239801   2.857   0.908   5.909 -0.7037  1.2279  0.6257
 6104TIP3   OH239802   6.798   3.371   1.274  0.5580  0.2497 -0.4461
 6104TIP3    H139803   6.711   3.396   1.243 -0.4186 -0.5950  1.4559
 6104TIP3    H239804   6.845   3.344   1.194 -1.9044 -2.1200 -1.2466
 6105TIP3   OH239805   1.303   4.137   5.209  0.2084 -0.9257 -0.2470
 6105TIP3    H139806   1.355   4.211   5.178 -1.9576  0.6699 -0.3527
 6105TIP3    H239807   1.367   4.074   5.242  2.2768 -0.1051 -2.4253
 6106TIP3   OH239808   1.522   6.370  17.113 -0.7720 -0.6121 -0.2260
 6106TIP3    H139809   1.589   6.438  17.105  0.3236 -1.2195  2.6279
 6106TIP3    H239810   1.458   6.391  17.045  1.0812  1.4103 -1.4769
 6107TIP3   OH239811   3.360   5.026  15.260 -0.7186  0.6411 -0.0602
 6107TIP3    H139812   3.414   4.951  15.235  2.4323  3.4623 -2.7175
 6107TIP3    H239813   3.274   5.008  15.222 -0.2931 -1.8103 -0.0388
 6108TIP3   OH239814   6.330   6.320  15.962  0.7216 -0.2511 -0.3474
 6108TIP3    H139815   6.252   6.345  15.912  0.8093  2.1764  0.5921
 6108TIP3    H239816   6.355   6.234  15.927 -2.9962 -1.6925  0.1049
 6109TIP3   OH239817   3.655   4.331   0.833  0.0652 -0.0142 -0.0335
 6109TIP3    H139818   3.640   4.304   0.742 -0.3458  0.9215 -0.2560
 6109TIP3    H239819   3.702   4.415   0.825  1.1252 -0.5244  0.6345
 6110TIP3   OH239820   1.853   4.935   1.534 -0.6168  0.0083  0.5597
 6110TIP3    H139821   1.891   5.016   1.500 -1.7617  0.5307  0.4969
 6110TIP3    H239822   1.862   4.942   1.629 -0.8792  0.2918  0.5634
 6111TIP3   OH239823   2.147   6.391  16.798 -0.6342 -0.6566  0.1746
 6111TIP3    H139824   2.087   6.456  16.835  0.7376  1.3084 -0.9201
 6111TIP3    H239825   2.129   6.392  16.704  0.9875 -0.1096 -0.1609
 6112TIP3   OH239826   6.744   1.263   2.313  0.5355 -0.3565  0.2214
 6112TIP3    H139827   6.650   1.276   2.327  0.5365  2.0196 -1.3227
 6112TIP3    H239828   6.759   1.170   2.331 -2.7171 -1.5917 -2.3837
 6113TIP3   OH239829   0.929   0.168   0.400 -0.3414 -0.7942 -0.4018
 6113TIP3    H139830   0.989   0.093   0.397  3.0574  1.5751  1.9143
 6113TIP3    H239831   0.877   0.154   0.479 -0.3470 -1.0700 -0.4516
 6114TIP3   OH239832   3.801   1.027   0.294  0.0592 -0.0200 -0.2565
 6114TIP3    H139833   3.876   0.974   0.322  1.6879  0.7481 -2.8031
 6114TIP3    H239834   3.787   1.089   0.366  2.9903  0.8777 -0.3306
 6115TIP3   OH239835   2.653   5.893  16.124  0.3263  0.2128 -0.1827
 6115TIP3    H139836   2.645   5.871  16.031  1.3157 -1.3448  0.0708
 6115TIP3    H239837   2.579   5.849  16.166  1.5862 -1.6789  0.1484
 6116TIP3   OH239838   3.974   4.991  15.836  0.4407  0.1312  0.1452
 6116TIP3    H139839   4.001   5.074  15.876  1.6684 -0.3647  0.3771
 6116TIP3    H239840   4.022   4.924  15.884 -0.7030 -0.7460  0.0906
 6117TIP3   OH239841   4.142   1.924   0.507  0.4027 -0.4514  0.2949
 6117TIP3    H139842   4.123   1.874   0.428  0.5833 -0.2229  0.1069
 6117TIP3    H239843   4.178   1.859   0.568  1.0188 -0.4753 -0.0901
 6118TIP3   OH239844   1.782   0.921   2.181  0.0073 -0.0785  0.0266
 6118TIP3    H139845   1.734   0.932   2.099 -0.5558 -1.3132  0.1704
 6118TIP3    H239846   1.867   0.963   2.165 -1.4905  3.4416  0.2097
 6119TIP3   OH239847   3.190   5.184  14.978  0.1042 -0.0564  0.1428
 6119TIP3    H139848   3.241   5.105  14.999  0.4538 -0.0490 -0.6550
 6119TIP3    H239849   3.171   5.224  15.063  1.1443 -0.2411  0.4689
 6120TIP3   OH239850   2.440   4.224   3.790  0.1617  0.6415  0.2299
 6120TIP3    H139851   2.487   4.306   3.807  1.1749  0.4224 -1.3644
 6120TIP3    H239852   2.399   4.237   3.705 -2.0574  0.5074  1.2183
 6121TIP3   OH239853   6.447   4.743  12.318 -0.0874 -0.0049 -0.2767
 6121TIP3    H139854   6.514   4.730  12.251  0.5687  0.6453  0.2395
 6121TIP3    H239855   6.370   4.773  12.270  0.5453  0.9970 -0.6839
 6122TIP3   OH239856   3.061   1.053   5.576 -0.0044 -0.2102 -0.4314
 6122TIP3    H139857   3.100   1.140   5.575 -1.2057  0.3581 -0.0450
 6122TIP3    H239858   3.123   0.998   5.529  1.3367  0.5972  0.3253
 6123TIP3   OH239859   0.805   2.755   2.710  0.5763  0.4301 -0.0188
 6123TIP3    H139860   0.842   2.715   2.790 -2.1279  1.5424  1.9218
 6123TIP3    H239861   0.765   2.836   2.740 -1.1469  0.5648 -2.4128
 6124TIP3   OH239862   0.700   4.214  15.861 -0.2684 -0.0289  0.2604
 6124TIP3    H139863   0.636   4.150  15.830 -0.0753 -0.8267  1.4413
 6124TIP3    H239864   0.744   4.244  15.782 -1.8260  0.2535 -0.5327
 6125TIP3   OH239865   6.385   6.397  12.821 -0.2605 -0.0784 -0.2095
 6125TIP3    H139866   6.300   6.417  12.781 -1.8561 -1.3800  2.2758
 6125TIP3    H239867   6.429   6.482  12.827 -2.1396  0.9216  0.0303
 6126TIP3   OH239868   6.678   0.002  12.322  0.3857  0.5721  0.3425
 6126TIP3    H139869   6.620   0.072  12.293  0.4635 -0.3453 -2.3275
 6126TIP3    H239870   6.707   0.029  12.409 -3.8386  1.1604  1.7913
 6127TIP3   OH239871   6.795   1.504   3.236  0.3036  0.7935 -0.6268
 6127TIP3    H139872   6.871   1.517   3.180 -0.5682  1.3090 -1.7258
 6127TIP3    H239873   6.725   1.477   3.176 -0.7087  1.5590  0.1714
 6128TIP3   OH239874   0.554   4.140  13.946  0.6992 -0.1506  0.1528
 6128TIP3    H139875   0.564   4.191  13.866 -1.3377  0.2014  0.0685
 6128TIP3    H239876   0.570   4.050  13.920  1.6579  0.1407 -0.2849
 6129TIP3   OH239877   3.603   4.729  17.006 -0.0024  0.3539  0.1572
 6129TIP3    H139878   3.536   4.663  17.025  0.1591 -0.7484 -2.5766
 6129TIP3    H239879   3.678   4.677  16.974  1.2069  1.7161  0.6878
 6130TIP3   OH239880   0.109   5.199  16.939 -0.3251  0.0578  0.3295
 6130TIP3    H139881   0.184   5.156  16.981 -1.8675 -0.5210  2.6750
 6130TIP3    H239882   0.104   5.285  16.981 -1.0455  0.0335  0.3058
 6131TIP3   OH239883   5.141   5.660  16.264  0.0931 -0.6337  0.0398
 6131TIP3    H139884   5.137   5.749  16.302 -0.8686 -0.5054 -0.3564
 6131TIP3    H239885   5.220   5.661  16.210  0.5872 -0.3061  0.7506
 6132TIP3   OH239886   1.121   0.810   6.551 -0.3063  0.0640  0.0709
 6132TIP3    H139887   1.042   0.772   6.590 -0.7876  1.3833  0.4501
 6132TIP3    H239888   1.132   0.893   6.597  0.1925  0.8004 -1.3122
 6133TIP3   OH239889   1.136   0.416  13.358 -0.3758  0.6953  0.1333
 6133TIP3    H139890   1.184   0.333  13.356  0.3753  1.1083  0.5450
 6133TIP3    H239891   1.085   0.416  13.277 -0.2258 -0.0694  0.0273
 6134TIP3   OH239892   0.366   3.861   0.536 -0.4631  0.1322  0.7561
 6134TIP3    H139893   0.330   3.791   0.591  0.4405 -1.6584 -0.7972
 6134TIP3    H239894   0.406   3.922   0.597 -0.5308 -1.1471  2.1347
 6135TIP3   OH239895   3.925   1.272   0.692  0.0120  0.4305 -0.1876
 6135TIP3    H139896   3.917   1.300   0.783 -3.0504  1.5046 -0.6911
 6135TIP3    H239897   3.964   1.348   0.648 -0.2420  0.6105 -0.1016
 6136TIP3   OH239898   6.521   1.253  11.420 -0.4780  0.5992  0.2184
 6136TIP3    H139899   6.539   1.214  11.335  0.2713  1.2852  0.0525
 6136TIP3    H239900   6.555   1.190  11.483 -1.8048 -0.3142  0.0614
 6137TIP3   OH239901   5.133   0.207   4.354  0.1654 -0.0887  0.1698
 6137TIP3    H139902   5.207   0.218   4.295 -1.2743  1.7027 -1.4288
 6137TIP3    H239903   5.117   0.294   4.389  1.2091 -1.1428  3.6779
 6138TIP3   OH239904   0.536   0.889  12.397 -0.1443  0.0061 -0.6094
 6138TIP3    H139905   0.610   0.894  12.457 -0.7845  0.2327  0.1929
 6138TIP3    H239906   0.528   0.795  12.377  0.7889  0.0602 -1.2797
 6139TIP3   OH239907   5.481   4.091   6.369 -0.0091 -0.1566  0.1221
 6139TIP3    H139908   5.483   4.171   6.317  1.0948  0.9522  1.7715
 6139TIP3    H239909   5.448   4.119   6.454  1.1632 -1.2681  0.9868
 6140TIP3   OH239910   2.936   2.579   3.956  0.1692  0.1218 -0.0706
 6140TIP3    H139911   3.006   2.607   4.015 -0.5052  0.0089  0.8096
 6140TIP3    H239912   2.981   2.553   3.876  1.1661 -0.2655  0.5959
 6141TIP3   OH239913   4.063   4.999   2.957  0.4574 -0.1542 -1.1032
 6141TIP3    H139914   4.074   4.905   2.969 -3.3958 -0.7441 -0.8923
 6141TIP3    H239915   4.063   5.011   2.862  2.0558 -0.1191 -1.1294
 6142TIP3   OH239916   2.074   2.015  16.409  0.1333  0.1942 -0.1032
 6142TIP3    H139917   2.142   2.062  16.362  0.2919  0.2054  0.1399
 6142TIP3    H239918   1.999   2.075  16.409  0.2993  0.4028  0.1087
 6143TIP3   OH239919   6.763   2.952  11.218  0.4125 -0.3982  0.2282
 6143TIP3    H139920   6.711   2.990  11.148 -1.5293 -0.4878  1.5496
 6143TIP3    H239921   6.812   2.881  11.176 -1.7354 -1.3548 -0.8332
 6144TIP3   OH239922   0.378   5.426   1.015  0.3209 -0.1926 -0.3018
 6144TIP3    H139923   0.437   5.415   1.090  0.9087 -0.3140 -0.7786
 6144TIP3    H239924   0.312   5.488   1.046  0.8311  0.1284  0.1598
 6145TIP3   OH239925   6.755   3.107   0.188 -0.5483  0.1886 -0.6544
 6145TIP3    H139926   6.741   3.021   0.148  0.2999 -0.9414  1.3521
 6145TIP3    H239927   6.832   3.143   0.143  0.1695 -0.8933 -0.3239
 6146TIP3   OH239928   1.744   1.625   1.580 -0.3163 -0.2316 -0.0591
 6146TIP3    H139929   1.765   1.573   1.503  2.0149  0.7114 -0.1436
 6146TIP3    H239930   1.736   1.715   1.547  2.9618  0.5760  0.9537
 6147TIP3   OH239931   4.291   1.878  10.887  0.1683 -0.5330  0.9853
 6147TIP3    H139932   4.247   1.884  10.802  0.7529  1.9230  0.7759
 6147TIP3    H239933   4.286   1.785  10.910 -0.0628 -1.2757 -1.6836
 6148TIP3   OH239934   2.373   0.538  11.141 -0.1329 -0.3102  0.1685
 6148TIP3    H139935   2.374   0.577  11.054 -1.0489 -0.8626 -0.0989
 6148TIP3    H239936   2.447   0.478  11.142 -1.3126 -1.8415 -0.9582
 6149TIP3   OH239937   5.975   5.363   1.024 -0.1971 -0.4546  0.6106
 6149TIP3    H139938   5.946   5.448   0.991 -0.2891 -0.0045  1.7849
 6149TIP3    H239939   5.933   5.299   0.967 -1.9127  0.2356  1.0196
 6150TIP3   OH239940   5.802   6.541  12.530 -0.2031 -0.0824  0.1272
 6150TIP3    H139941   5.771   6.594  12.603 -0.5629 -0.7891  0.4939
 6150TIP3    H239942   5.824   6.457  12.569 -0.5232 -0.5120 -0.6087
 6151TIP3   OH239943   2.692   4.142  15.593 -0.0188  0.1620  0.3180
 6151TIP3    H139944   2.747   4.178  15.663  1.7693 -0.6146 -0.6263
 6151TIP3    H239945   2.707   4.048  15.596 -1.6817 -0.1355  0.3035
 6152TIP3   OH239946   0.985   4.766   6.762  0.2439  0.1835  0.2592
 6152TIP3    H139947   1.073   4.759   6.726 -0.7354  1.9740 -2.8452
 6152TIP3    H239948   0.931   4.712   6.704 -1.0679  1.1248  0.5652
 6153TIP3   OH239949   1.829   2.333   1.604 -0.0605 -0.0137  0.0099
 6153TIP3    H139950   1.747   2.340   1.554  0.2048  0.6924 -0.3419
 6153TIP3    H239951   1.802   2.301   1.690 -0.5444 -1.1496 -0.5400
 6154TIP3   OH239952   1.779   4.957   3.136  0.6305 -0.2300 -1.0020
 6154TIP3    H139953   1.808   4.951   3.045 -0.1280 -0.2156 -1.2520
 6154TIP3    H239954   1.740   4.872   3.154  1.2701 -0.4198 -0.5137
 6155TIP3   OH239955   1.237   1.045  12.215 -0.1098  0.6277  0.2853
 6155TIP3    H139956   1.170   1.026  12.281  0.1113 -0.2449  0.2666
 6155TIP3    H239957   1.311   1.080  12.265  0.7827 -1.7752  0.7865
 6156TIP3   OH239958   4.336   0.487  14.558 -0.3637  0.8936  0.2097
 6156TIP3    H139959   4.410   0.531  14.517  0.7316  0.8681  2.0517
 6156TIP3    H239960   4.375   0.410  14.601 -1.7274 -0.0441 -0.1576
 6157TIP3   OH239961   5.264   4.742  11.842  0.0529 -0.2524 -0.3166
 6157TIP3    H139962   5.320   4.732  11.765  0.4532 -2.6996  0.2036
 6157TIP3    H239963   5.300   4.680  11.906 -1.4019  0.3411  1.1510
 6158TIP3   OH239964   1.712   0.065   0.459 -0.6772 -0.0556  0.1868
 6158TIP3    H139965   1.692  -0.026   0.440  2.2491 -0.6285 -0.5190
 6158TIP3    H239966   1.662   0.085   0.538 -1.3412 -2.2636  0.3714
 6159TIP3   OH239967   3.892   3.655  12.418  0.3556  0.6158 -0.4072
 6159TIP3    H139968   3.828   3.649  12.348 -0.7625 -2.4766  0.7151
 6159TIP3    H239969   3.873   3.580  12.475  2.8854  1.4613  1.7727
 6160TIP3   OH239970   1.397   3.893   5.577  0.2986 -0.6681 -0.6676
 6160TIP3    H139971   1.481   3.911   5.617 -0.3723  0.2253  0.3803
 6160TIP3    H239972   1.403   3.801   5.549  1.0593 -1.0977  0.8049
 6161TIP3   OH239973   0.269   1.870   0.494 -0.0336 -0.1072 -0.1493
 6161TIP3    H139974   0.279   1.965   0.496 -1.1693  0.0433 -0.6423
 6161TIP3    H239975   0.184   1.856   0.451 -0.1767 -1.3201  0.4895
 6162TIP3   OH239976   4.289   1.797   3.876 -0.6137  0.5650 -0.0654
 6162TIP3    H139977   4.316   1.889   3.880  0.9234  0.1224  0.6395
 6162TIP3    H239978   4.223   1.788   3.945 -0.1698  0.9612  0.4130
 6163TIP3   OH239979   2.606   3.453   3.000 -0.2537 -0.2164  0.0329
 6163TIP3    H139980   2.542   3.405   2.948 -0.2805  0.9335 -1.0589
 6163TIP3    H239981   2.613   3.538   2.956  1.2709  0.0446  0.7232
 6164TIP3   OH239982   1.022   5.032   5.720 -0.3406 -0.0599  0.3602
 6164TIP3    H139983   1.030   5.009   5.813  1.1753 -1.3068 -0.0300
 6164TIP3    H239984   1.100   4.993   5.679 -0.9401  0.5241 -1.4288
 6165TIP3   OH239985   6.110   4.235  16.831 -0.0650  0.5462  0.2394
 6165TIP3    H139986   6.202   4.216  16.845 -0.3275 -1.2586 -0.3095
 6165TIP3    H239987   6.076   4.254  16.919  0.2356 -1.6533  0.8817
 6166TIP3   OH239988   3.693   5.191   1.223  0.2517 -0.3667 -0.7658
 6166TIP3    H139989   3.598   5.203   1.232  0.2078 -1.0495 -0.2322
 6166TIP3    H239990   3.728   5.280   1.225 -0.3297 -0.1339 -0.3297
 6167TIP3   OH239991   5.183   3.879  17.115  0.0883  0.8220  0.0854
 6167TIP3    H139992   5.209   3.878  17.207 -1.3338 -1.3700  0.5402
 6167TIP3    H239993   5.264   3.857  17.067  0.4617  0.2336  0.9578
 6168TIP3   OH239994   2.784   2.895   1.704  0.4583  0.0579 -0.3887
 6168TIP3    H139995   2.688   2.894   1.697  0.4688 -1.4712 -0.7154
 6168TIP3    H239996   2.801   2.899   1.798  0.1147  1.8152 -0.3712
 6169TIP3   OH239997   5.079   2.810   6.228 -0.1194 -0.5205  0.5589
 6169TIP3    H139998   5.136   2.771   6.295 -1.9347  0.1674  2.6503
 6169TIP3    H239999   5.082   2.904   6.246 -1.7648 -0.4568  0.6808
 6170TIP3   OH240000   2.108   0.837   5.636 -0.0065 -0.1088  0.0957
 6170TIP3    H140001   2.023   0.873   5.664 -0.4999 -0.2310 -1.1782
 6170TIP3    H240002   2.094   0.743   5.633 -0.6654 -0.0285 -2.5002
 6171TIP3   OH240003   5.528   0.008   5.443 -0.1099  0.5603 -0.0117
 6171TIP3    H140004   5.500   0.041   5.528 -1.2454  0.2949 -0.2614
 6171TIP3    H240005   5.463   0.042   5.381 -1.1290 -1.7643 -0.3284
 6172TIP3   OH240006   6.267   6.779  15.477 -0.4299  0.4032 -0.2237
 6172TIP3    H140007   6.188   6.830  15.494 -0.0970  0.7521  0.3053
 6172TIP3    H240008   6.337   6.844  15.471 -0.1488  0.0792 -0.4633
 6173TIP3   OH240009   1.116   3.391   5.913  0.1394  0.2143 -0.2431
 6173TIP3    H140010   1.199   3.404   5.960  0.4400  1.2876 -1.0417
 6173TIP3    H240011   1.073   3.320   5.961  1.7689 -0.7829 -0.1507
 6174TIP3   OH240012   5.728   2.817  16.595 -0.3874  0.2876  0.2240
 6174TIP3    H140013   5.749   2.910  16.601  0.5357  0.1170 -0.1833
 6174TIP3    H240014   5.643   2.809  16.638 -0.3902  1.2860  0.4335
 6175TIP3   OH240015   1.542   2.719  12.309  0.4235 -0.3176  0.4798
 6175TIP3    H140016   1.572   2.667  12.234 -0.1558  0.7240 -0.5013
 6175TIP3    H240017   1.621   2.763  12.341  0.6304 -0.5734  0.3250
 6176TIP3   OH240018   2.287   6.594   2.460 -0.1492 -0.0047 -0.0850
 6176TIP3    H140019   2.232   6.536   2.408 -0.1377 -1.0092  0.9720
 6176TIP3    H240020   2.370   6.548   2.469  0.5187  1.0177 -0.7589
 6177TIP3   OH240021   2.636   4.987   1.050 -0.4142 -0.3308  0.5657
 6177TIP3    H140022   2.644   4.929   0.974 -1.9536 -0.3409  0.3811
 6177TIP3    H240023   2.551   5.028   1.040  0.2500  1.2901  1.1923
 6178TIP3   OH240024   1.148   0.617   5.843  0.1940  0.8048 -0.0930
 6178TIP3    H140025   1.199   0.696   5.826 -0.5370  1.5186  0.8832
 6178TIP3    H240026   1.148   0.569   5.760  1.1919  1.5089 -0.5147
 6179TIP3   OH240027   5.667   0.775  16.858  0.1723  0.0128  0.5286
 6179TIP3    H140028   5.646   0.682  16.858 -1.7591  0.3862  1.9868
 6179TIP3    H240029   5.582   0.819  16.861  1.0140  1.8617 -0.8466
 6180TIP3   OH240030   3.608   6.368  15.595 -0.5314  0.2209 -0.6089
 6180TIP3    H140031   3.612   6.317  15.676  1.3980  0.7602 -0.3053
 6180TIP3    H240032   3.591   6.303  15.527  2.5653 -1.0924 -0.3258
 6181TIP3   OH240033   3.068   5.394  13.396  0.6552  0.8097 -0.4949
 6181TIP3    H140034   2.974   5.410  13.393 -0.1728 -2.5826  2.1154
 6181TIP3    H240035   3.098   5.441  13.474  0.4576 -0.6667  0.4974
 6182TIP3   OH240036   1.706   6.678   1.581  0.1305  0.0619  0.3430
 6182TIP3    H140037   1.794   6.661   1.546  0.1946  2.7086 -1.0720
 6182TIP3    H240038   1.722   6.705   1.671  0.8765  1.0780 -0.0741
 6183TIP3   OH240039   0.508   5.360   1.792 -0.0053  0.2474  0.9935
 6183TIP3    H140040   0.563   5.288   1.760 -1.8278 -0.9828  0.4914
 6183TIP3    H240041   0.500   5.419   1.717 -0.4304 -0.2384  0.6540
 6184TIP3   OH240042   3.501   2.563   4.846 -0.0371  0.4070 -0.0572
 6184TIP3    H140043   3.427   2.545   4.789 -1.0628  1.0530  1.0300
 6184TIP3    H240044   3.491   2.655   4.871 -0.6552 -0.2885  2.5651
 6185TIP3   OH240045   1.056   4.128  15.023  0.1876  0.1484 -0.2823
 6185TIP3    H140046   1.004   4.207  15.034  0.6977  0.4418  0.0997
 6185TIP3    H240047   1.126   4.154  14.963  1.6662  0.6603  1.5547
 6186TIP3   OH240048   6.344   5.058   4.594  0.4327  0.7719  0.2368
 6186TIP3    H140049   6.385   5.135   4.634  3.1978 -1.1022  1.3310
 6186TIP3    H240050   6.417   5.007   4.561 -1.1184 -2.1350  0.9883
 6187TIP3   OH240051   5.983   4.341   4.163 -0.5919  0.2388  0.1087
 6187TIP3    H140052   5.973   4.301   4.249  1.1177  1.6892  1.0390
 6187TIP3    H240053   6.013   4.270   4.106  0.9776 -0.1614  1.3838
 6188TIP3   OH240054   1.378   3.904  16.702  0.0358 -0.2372  0.2527
 6188TIP3    H140055   1.299   3.952  16.681  0.1123  0.3776  1.3033
 6188TIP3    H240056   1.444   3.936  16.641  0.3647  1.8086  1.5896
 6189TIP3   OH240057   4.073   3.301  17.069 -0.8561  0.4843 -0.1315
 6189TIP3    H140058   4.047   3.391  17.052  0.2534  0.9383  0.5187
 6189TIP3    H240059   4.168   3.305  17.081 -1.0242 -0.4282  1.9744
 6190TIP3   OH240060   5.486   2.655   1.963 -0.3701  0.3497 -0.3205
 6190TIP3    H140061   5.488   2.624   2.053 -0.4067  1.3264  0.0269
 6190TIP3    H240062   5.493   2.576   1.910 -3.9427 -0.6852  0.4543
 6191TIP3   OH240063   2.955   3.522   4.593  0.4595  0.1659  0.6492
 6191TIP3    H140064   3.047   3.546   4.598  0.0103  2.4070 -0.4132
 6191TIP3    H240065   2.908   3.606   4.601 -1.5088 -0.9428  1.5238
 6192TIP3   OH240066   6.479   1.554   3.970 -0.6081  0.1951 -0.0803
 6192TIP3    H140067   6.465   1.502   3.890 -0.9446 -0.4253  0.3793
 6192TIP3    H240068   6.567   1.529   3.998 -0.6355  0.1337 -0.0495
 6193TIP3   OH240069   2.256   3.182   0.549  0.4183  0.0210  0.1709
 6193TIP3    H140070   2.310   3.205   0.473  0.0213 -2.1981 -0.8685
 6193TIP3    H240071   2.319   3.177   0.622  1.7001 -2.2077 -0.9544
 6194TIP3   OH240072   4.980   0.480   0.743  0.0159 -0.4727 -0.2213
 6194TIP3    H140073   4.965   0.549   0.808 -1.0676 -1.2984  0.4328
 6194TIP3    H240074   5.004   0.527   0.663  0.6627  0.5918  0.5709
 6195TIP3   OH240075   0.479   6.622  15.137  0.0997 -0.1284 -0.1463
 6195TIP3    H140076   0.529   6.560  15.082 -1.9849 -0.1316 -2.2026
 6195TIP3    H240077   0.534   6.699  15.142  0.6793 -0.4014 -1.7049
 6196TIP3   OH240078   3.537   1.983  12.095  0.3651  0.4057 -0.5386
 6196TIP3    H140079   3.515   1.890  12.087 -0.4442  0.6598 -1.4657
 6196TIP3    H240080   3.628   1.988  12.066  1.4251 -0.4966  2.2960
 6197TIP3   OH240081   6.692   5.351  16.036 -0.3168  0.3126 -0.1346
 6197TIP3    H140082   6.769   5.294  16.029  0.4784  1.3500 -0.1270
 6197TIP3    H240083   6.729   5.438  16.053 -1.5596  0.5698  1.4449
 6198TIP3   OH240084   2.260   5.886  13.283 -0.5910 -1.1647 -0.3924
 6198TIP3    H140085   2.211   5.919  13.359  0.3493  0.3242 -0.3812
 6198TIP3    H240086   2.328   5.831  13.322  0.5607  0.4477 -0.0065
 6199TIP3   OH240087   2.512   3.047  14.019  0.2529 -0.0037  0.1963
 6199TIP3    H140088   2.450   2.986  13.978  0.8230 -1.9481  2.0318
 6199TIP3    H240089   2.500   3.129  13.971 -1.0296 -1.3509 -1.9803
 6200TIP3   OH240090   0.570   0.895   4.023  0.4790  0.7093  0.3678
 6200TIP3    H140091   0.504   0.937   3.968  1.2097  1.2561 -0.1179
 6200TIP3    H240092   0.575   0.805   3.990 -0.3913  0.5026  0.7650
 6201TIP3   OH240093   4.388   4.072   1.549  0.2419 -0.6525 -0.7754
 6201TIP3    H140094   4.407   4.110   1.634 -1.3345 -0.2959 -0.5543
 6201TIP3    H240095   4.334   4.137   1.504 -0.5574 -1.6299 -1.2916
 6202TIP3   OH240096   4.110   3.490   5.282  0.3651  0.0922 -0.1757
 6202TIP3    H140097   4.112   3.394   5.282  1.1227  0.0654 -1.6850
 6202TIP3    H240098   4.079   3.514   5.369 -1.9738 -1.5430 -0.4819
 6203TIP3   OH240099   2.449   3.202  15.191 -0.4828  0.2010 -0.2240
 6203TIP3    H140100   2.542   3.187  15.171 -0.0102  1.6219  0.7632
 6203TIP3    H240101   2.411   3.232  15.108  0.7563  3.0193  0.1013
 6204TIP3   OH240102   6.352   0.167   0.464  0.1303  0.1716 -0.5240
 6204TIP3    H140103   6.329   0.189   0.555 -3.6383  0.4100 -1.3787
 6204TIP3    H240104   6.334   0.073   0.457  2.0378 -0.2288 -0.6783
 6205TIP3   OH240105   1.683   0.165  16.828 -0.0724 -0.3900  0.4998
 6205TIP3    H140106   1.753   0.227  16.850 -0.7127  0.3253  0.5689
 6205TIP3    H240107   1.700   0.089  16.884 -0.5588  0.6265  2.0835
 6206TIP3   OH240108   6.356   5.073  11.538 -0.1832  0.3148  0.0321
 6206TIP3    H140109   6.262   5.094  11.544  0.3000  2.3744  1.7793
 6206TIP3    H240110   6.378   5.092  11.447 -1.3793  0.1759 -0.3123
 6207TIP3   OH240111   4.881   3.945  13.049 -0.2744  0.7996  0.1073
 6207TIP3    H140112   4.893   3.908  13.137 -2.8957 -0.9329 -0.1331
 6207TIP3    H240113   4.788   3.932  13.031  0.3451  0.2452 -3.3071
 6208TIP3   OH240114   5.392   0.812  12.183 -0.0942  0.0921  0.5393
 6208TIP3    H140115   5.475   0.852  12.154  2.2223 -1.5166  4.1880
 6208TIP3    H240116   5.353   0.878  12.240 -1.2975  0.7346 -0.9553
 6209TIP3   OH240117   2.154   3.000   0.352 -0.0833 -0.5674  0.0403
 6209TIP3    H140118   2.243   2.968   0.348 -0.4478 -1.6709  0.4384
 6209TIP3    H240119   2.153   3.061   0.426 -0.0868 -2.0275  1.3036
 6210TIP3   OH240120   0.032   5.425  13.985 -0.2136 -0.2998  0.1033
 6210TIP3    H140121  -0.032   5.490  14.013  0.1462 -0.1949  0.6808
 6210TIP3    H240122  -0.001   5.342  14.020  0.0788 -0.2122  0.6003
 6211TIP3   OH240123   1.936   6.142   4.563  0.0286  0.1616 -0.1652
 6211TIP3    H140124   2.019   6.147   4.516  0.6273  2.0446  0.9780
 6211TIP3    H240125   1.893   6.226   4.546  0.1936  0.8508  2.4136
 6212TIP3   OH240126   4.823   1.812   3.734  0.3474 -0.3032 -0.0654
 6212TIP3    H140127   4.893   1.875   3.743 -2.3376  2.9170  0.2713
 6212TIP3    H240128   4.812   1.801   3.640 -0.1402  1.0534 -0.1907
 6213TIP3   OH240129   5.880   2.980   3.959  0.4508  0.3272 -0.2183
 6213TIP3    H140130   5.891   2.990   4.053 -1.0564 -2.7126  0.4180
 6213TIP3    H240131   5.944   2.913   3.934  0.4807  0.7244 -1.2941
 6214TIP3   OH240132   0.627   2.685  11.509 -0.1720 -0.3216  0.3227
 6214TIP3    H140133   0.624   2.645  11.596  0.9340 -0.2162  0.4229
 6214TIP3    H240134   0.703   2.743  11.512 -1.6389  1.7147  0.1374
 6215TIP3   OH240135   2.403   2.653   4.288 -0.0952  0.6609  0.3934
 6215TIP3    H140136   2.433   2.565   4.313  0.5893  0.9019  0.4357
 6215TIP3    H240137   2.411   2.654   4.192  0.2270  0.7913  0.4201
 6216TIP3   OH240138   1.149   4.393   0.948  0.0455 -0.3562 -0.3457
 6216TIP3    H140139   1.210   4.463   0.927 -1.6745  1.0701 -0.8645
 6216TIP3    H240140   1.194   4.313   0.922  2.0881  0.5235  0.3110
 6217TIP3   OH240141   1.690   2.407  10.950  0.4720  0.3605 -0.6029
 6217TIP3    H140142   1.781   2.379  10.950  0.3242 -0.2906 -2.5271
 6217TIP3    H240143   1.649   2.357  10.879 -1.1345  1.3837 -0.4592
 6218TIP3   OH240144   2.557   3.624   0.118  0.2771 -0.1059 -0.1638
 6218TIP3    H140145   2.512   3.569   0.053  1.5445 -2.0139  0.4757
 6218TIP3    H240146   2.643   3.583   0.128  0.4447  0.6519  2.0549
 6219TIP3   OH240147   4.543   3.390  13.763 -0.2398  0.1361  0.3391
 6219TIP3    H140148   4.467   3.426  13.718 -0.0358  0.8024  0.5190
 6219TIP3    H240149   4.567   3.313  13.711 -1.5337 -0.5767  0.7590
 6220TIP3   OH240150   0.108   6.131   4.315  0.8791 -0.0763  0.2977
 6220TIP3    H140151   0.092   6.070   4.243  2.6045  0.1213 -0.3167
 6220TIP3    H240152   0.102   6.218   4.274  1.0897  0.0634  0.5606
 6221TIP3   OH240153   1.404   1.030  10.701  0.2448 -0.0937 -0.0037
 6221TIP3    H140154   1.497   1.054  10.696  0.2497  0.1857  1.0797
 6221TIP3    H240155   1.406   0.935  10.714  0.3170 -0.3095 -1.4486
 6222TIP3   OH240156   3.634   3.917  14.261 -0.3211  0.4104 -0.7124
 6222TIP3    H140157   3.599   3.842  14.215  0.2872 -0.9094  0.8610
 6222TIP3    H240158   3.726   3.920  14.236 -0.3281  0.5865 -0.7198
 6223TIP3   OH240159   6.738   3.823   0.850 -0.1856 -0.2183 -0.6463
 6223TIP3    H140160   6.818   3.869   0.823 -1.4479  1.1528 -2.2427
 6223TIP3    H240161   6.712   3.772   0.774 -1.2080 -0.0715 -0.4127
 6224TIP3   OH240162   4.319   4.260  13.573  0.0928  0.2387  0.2447
 6224TIP3    H140163   4.224   4.268  13.586 -0.1258 -2.8571  1.4639
 6224TIP3    H240164   4.356   4.271  13.660  0.6255 -0.4927  0.1205
 6225TIP3   OH240165   3.934   1.917  14.932 -0.5884 -0.5225 -0.3418
 6225TIP3    H140166   3.918   2.011  14.921 -0.6245 -0.4913 -0.0262
 6225TIP3    H240167   3.938   1.904  15.027  2.0270 -0.3811 -0.3538
 6226TIP3   OH240168   2.395   0.352   4.322  0.5057  0.4210  0.7954
 6226TIP3    H140169   2.392   0.284   4.255  0.0526  0.2888  0.9458
 6226TIP3    H240170   2.397   0.434   4.273  0.1789  0.3239  0.6124
 6227TIP3   OH240171   5.270   4.158   1.713  0.1538  0.3159  0.5617
 6227TIP3    H140172   5.288   4.251   1.703  1.2743  0.1204  0.6257
 6227TIP3    H240173   5.198   4.141   1.652 -0.2438  1.2688  0.7500
 6228TIP3   OH240174   3.605   3.925   5.891 -0.2263  0.3387  0.2339
 6228TIP3    H140175   3.588   3.970   5.973 -0.2337  0.5275  0.1297
 6228TIP3    H240176   3.585   3.833   5.909 -2.2252  0.6656 -0.1184
 6229TIP3   OH240177   3.481   4.693  15.187 -0.0360  0.1596  0.4558
 6229TIP3    H140178   3.552   4.689  15.251 -0.5512  1.6507  1.1540
 6229TIP3    H240179   3.510   4.757  15.122 -0.5193  0.3810  0.4570
 6230TIP3   OH240180   3.630   2.949  16.381  0.4106  0.2179 -0.5120
 6230TIP3    H140181   3.650   3.028  16.330 -2.2220  0.9862 -0.4908
 6230TIP3    H240182   3.712   2.929  16.426  1.0639  3.2454 -0.1019
 6231TIP3   OH240183   5.823   5.629   1.122 -0.3387  0.3418  0.0150
 6231TIP3    H140184   5.831   5.609   1.215  2.1686  0.2068 -0.1449
 6231TIP3    H240185   5.730   5.620   1.102 -1.0555  1.2290  2.6754
 6232TIP3   OH240186   1.329   6.094   1.961  0.6591 -0.7531  0.5529
 6232TIP3    H140187   1.377   6.132   1.888  1.2665 -0.2957  1.1735
 6232TIP3    H240188   1.396   6.073   2.026 -0.0298  1.0390  1.9510
 6233TIP3   OH240189   2.632   5.424  16.649 -0.2572 -0.6268 -0.0381
 6233TIP3    H140190   2.713   5.476  16.640 -0.4674 -0.2819  0.0365
 6233TIP3    H240191   2.658   5.335  16.626 -0.1221 -0.3120 -1.1770
 6234TIP3   OH240192   5.573   1.608  13.866 -0.0518 -0.2255 -0.0440
 6234TIP3    H140193   5.543   1.644  13.950 -1.8777 -0.2776 -0.6328
 6234TIP3    H240194   5.609   1.684  13.820  0.8046 -0.1606  0.7021
 6235TIP3   OH240195   3.535   0.895  13.277 -0.3359 -0.5533 -0.3777
 6235TIP3    H140196   3.528   0.831  13.206  0.2065  0.3905 -1.3118
 6235TIP3    H240197   3.527   0.980  13.233 -1.9125  0.0318  0.9389
 6236TIP3   OH240198   4.594   3.222   1.070  0.3783  0.2107  0.4463
 6236TIP3    H140199   4.651   3.296   1.090  0.5068  0.1226  0.4101
 6236TIP3    H240200   4.597   3.214   0.975 -1.0614  1.2879  0.2800
 6237TIP3   OH240201   5.224   3.246   3.628 -0.3851 -0.0451  0.0373
 6237TIP3    H140202   5.196   3.315   3.568  0.1074  0.7884  0.7317
 6237TIP3    H240203   5.143   3.217   3.671 -0.9113 -1.4737 -1.8274
 6238TIP3   OH240204   1.020   0.368  11.743  0.0206  0.2651  0.1376
 6238TIP3    H140205   1.096   0.316  11.718 -1.3015 -1.5542 -0.2683
 6238TIP3    H240206   1.011   0.354  11.837 -0.2888 -0.1780  0.0424
 6239TIP3   OH240207   2.983   1.779  13.418 -0.1592 -0.3908  0.4723
 6239TIP3    H140208   3.063   1.730  13.434 -0.2199 -0.5681  0.2386
 6239TIP3    H240209   2.916   1.712  13.401 -0.9320 -0.3707  3.0739
 6240TIP3   OH240210   5.750   2.505  16.150 -0.0510  0.2192  0.0295
 6240TIP3    H140211   5.762   2.551  16.067  0.8307  1.6916  0.9242
 6240TIP3    H240212   5.655   2.503  16.163 -0.1415  1.0657 -0.4419
 6241TIP3   OH240213   1.530   6.498   3.494  0.0555 -0.0202 -0.1155
 6241TIP3    H140214   1.540   6.482   3.400 -0.5611 -3.0343  0.2234
 6241TIP3    H240215   1.439   6.476   3.512  0.9076 -2.5720  1.6093
 6242TIP3   OH240216   6.806   4.753   1.981 -0.2765 -0.0996 -0.1011
 6242TIP3    H140217   6.886   4.800   1.958  0.3439 -1.5478 -1.0570
 6242TIP3    H240218   6.813   4.739   2.076 -0.1944  1.1903  0.0902
 6243TIP3   OH240219   1.071   4.683   4.998  0.6130 -0.2827 -0.2446
 6243TIP3    H140220   0.976   4.669   5.001  0.3531  1.3560  0.0734
 6243TIP3    H240221   1.096   4.653   4.910 -0.5797  1.2429 -1.1709
 6244TIP3   OH240222   1.475   6.314  11.033  0.1113  0.2476  0.2398
 6244TIP3    H140223   1.451   6.224  11.012 -1.9992  0.5067  1.3317
 6244TIP3    H240224   1.546   6.306  11.096 -0.0700 -0.6561  0.3436
 6245TIP3   OH240225   5.221   3.209   3.351  0.6244 -0.3398  0.3181
 6245TIP3    H140226   5.160   3.280   3.372  1.5564  1.2783 -1.9849
 6245TIP3    H240227   5.177   3.130   3.382 -2.1083  0.8610 -0.1246
 6246TIP3   OH240228   2.331   1.979   1.306  0.3535 -0.9645  0.3628
 6246TIP3    H140229   2.290   1.980   1.219 -1.9689  0.7304  1.3802
 6246TIP3    H240230   2.335   1.887   1.330  0.8050 -1.4430 -1.4008
 6247TIP3   OH240231   0.088   5.952  12.477 -0.1105  0.0901 -0.0236
 6247TIP3    H140232  -0.006   5.970  12.468  0.0774  1.3281  0.3134
 6247TIP3    H240233   0.123   5.964  12.388 -0.4212 -1.4350 -0.3744
 6248TIP3   OH240234   6.548   4.719  12.035 -0.0622 -0.3660  0.3599
 6248TIP3    H140235   6.588   4.632  12.033 -0.9520 -0.7740 -1.3172
 6248TIP3    H240236   6.546   4.747  11.943 -1.6492  0.5468  0.6381
 6249TIP3   OH240237   5.563   2.019   5.435  0.5987  0.6201 -0.1225
 6249TIP3    H140238   5.557   1.950   5.369  0.8291  0.4793  0.0018
 6249TIP3    H240239   5.569   2.100   5.385  1.7026  0.4457 -0.2954
 6250TIP3   OH240240   2.326   5.030   0.858  0.7575 -0.4270 -0.1811
 6250TIP3    H140241   2.326   5.126   0.858 -1.4103 -0.3882  0.5941
 6250TIP3    H240242   2.276   5.006   0.780 -0.7136 -0.8395  0.8397
 6251TIP3   OH240243   4.993   1.035  13.382 -0.2570 -0.5478 -0.3287
 6251TIP3    H140244   5.034   1.056  13.466 -1.2147 -1.7468  0.4809
 6251TIP3    H240245   4.931   0.964  13.403 -0.9019 -0.5019 -1.9508
 6252TIP3   OH240246   5.399   1.751   4.699  0.2735  0.6301 -0.6277
 6252TIP3    H140247   5.387   1.773   4.607  0.1257  3.9163  0.0324
 6252TIP3    H240248   5.382   1.833   4.745  0.1611 -0.9351  2.3652
 6253TIP3   OH240249   3.491   5.327   1.897  0.3735  0.2740  0.2667
 6253TIP3    H140250   3.504   5.255   1.835  1.2453  0.5795  0.0751
 6253TIP3    H240251   3.442   5.393   1.846 -0.7102 -0.2943  0.5409
 6254TIP3   OH240252   0.727   5.171  12.829 -0.3412  0.4924 -0.2853
 6254TIP3    H140253   0.725   5.160  12.924  0.4597  1.9293 -0.0719
 6254TIP3    H240254   0.767   5.091  12.796 -1.4563 -0.4161  0.4921
 6255TIP3   OH240255   1.090   6.226   1.151  0.1184 -0.2195 -0.2318
 6255TIP3    H140256   1.032   6.302   1.155 -1.4964 -1.3555 -0.8544
 6255TIP3    H240257   1.122   6.215   1.240  0.2048  1.0517 -0.0908
 6256TIP3   OH240258   3.751   2.598  14.529  0.4425  0.0786  0.2117
 6256TIP3    H140259   3.698   2.559  14.459  0.5400 -0.6717  0.5497
 6256TIP3    H240260   3.841   2.592  14.497  0.3713  1.0587 -0.2211
 6257TIP3   OH240261   1.392   2.777   1.130 -0.3157 -0.0982  0.8274
 6257TIP3    H140262   1.365   2.848   1.071  1.8083  0.2643  0.2213
 6257TIP3    H240263   1.462   2.816   1.183 -1.3286 -0.7899  2.7980
 6258TIP3   OH240264   4.325   2.377  14.208 -0.5960 -0.0440 -0.0937
 6258TIP3    H140265   4.270   2.388  14.130 -2.1516 -0.0569  0.9435
 6258TIP3    H240266   4.360   2.464  14.225  0.5903 -0.2442 -1.3635
 6259TIP3   OH240267   5.037   5.557  15.867  0.1022 -0.6285 -0.1562
 6259TIP3    H140268   5.050   5.483  15.926 -1.1269  0.3493  1.4135
 6259TIP3    H240269   4.978   5.523  15.799 -1.4202 -0.8054  1.1996
 6260TIP3   OH240270   4.848   2.747  16.794  0.4795  0.6296  0.5987
 6260TIP3    H140271   4.761   2.724  16.828  0.3214  1.5657  0.8693
 6260TIP3    H240272   4.907   2.729  16.867  0.4036  0.7496  0.6907
 6261TIP3   OH240273   4.343   2.279   2.675 -0.6683 -0.1741 -0.1689
 6261TIP3    H140274   4.307   2.368   2.675  0.4387  0.2837 -0.2254
 6261TIP3    H240275   4.427   2.286   2.630  0.3499 -0.8578  1.5359
 6262TIP3   OH240276   3.464   2.811   4.955  0.9540  0.1410  0.1732
 6262TIP3    H140277   3.531   2.849   5.011 -1.8057  3.8938  1.3576
 6262TIP3    H240278   3.469   2.862   4.874  0.5731 -0.6274 -0.3444
 6263TIP3   OH240279   5.045   1.782   3.941  0.1223 -0.1645 -0.5032
 6263TIP3    H140280   4.956   1.755   3.916 -0.5641  1.0364  0.5296
 6263TIP3    H240281   5.065   1.729   4.018 -0.6726  1.1702  0.6809
 6264TIP3   OH240282   6.244   0.663  14.759  0.1515 -0.3806  0.2173
 6264TIP3    H140283   6.245   0.685  14.665  0.3100 -0.5504  0.1784
 6264TIP3    H240284   6.201   0.738  14.800  0.7759  0.0545  0.0947
 6265TIP3   OH240285   2.286   4.812   4.123  0.0612 -0.2975  0.5948
 6265TIP3    H140286   2.335   4.853   4.051  0.7369 -0.8305  0.7416
 6265TIP3    H240287   2.235   4.743   4.082 -0.4521  0.1473  0.4667
 6266TIP3   OH240288   3.251   5.397  11.367 -0.4574  0.2064  0.1658
 6266TIP3    H140289   3.236   5.354  11.452 -2.6815 -0.5791 -0.5446
 6266TIP3    H240290   3.178   5.458  11.359 -0.2074  0.3535 -1.1428
 6267TIP3   OH240291   0.071   4.985   1.591 -0.0558 -0.5350  0.0810
 6267TIP3    H140292   0.083   5.058   1.651 -2.0839  0.3415 -0.4577
 6267TIP3    H240293  -0.021   4.993   1.563  0.7630 -0.8313 -3.1566
 6268TIP3   OH240294   5.251   5.126   2.649 -0.7595  0.0380 -0.1689
 6268TIP3    H140295   5.159   5.120   2.622 -0.2916  0.9335 -2.1514
 6268TIP3    H240296   5.289   5.042   2.624 -1.0944 -0.4838  1.0101
 6269TIP3   OH240297   6.398   2.384   2.675  0.3503  0.6879 -0.3412
 6269TIP3    H140298   6.384   2.293   2.699 -0.8385  0.7726 -0.6393
 6269TIP3    H240299   6.488   2.387   2.642  1.0766  0.0206  1.4625
 6270TIP3   OH240300   3.660   4.323   4.011 -0.0087  0.7441  0.5743
 6270TIP3    H140301   3.729   4.257   4.010  0.7048  1.4790 -0.4509
 6270TIP3    H240302   3.700   4.401   3.974 -1.3728  1.2058 -0.0081
 6271TIP3   OH240303   5.901   0.402  16.168 -0.1727  0.5156 -0.0737
 6271TIP3    H140304   5.826   0.427  16.222 -0.1581  0.9195 -0.2343
 6271TIP3    H240305   5.873   0.324  16.121  0.0803 -0.3010  1.0877
 6272TIP3   OH240306   5.612   4.657   2.958  0.1552  0.2889 -0.2400
 6272TIP3    H140307   5.645   4.597   2.891  1.2352 -0.6931  1.1113
 6272TIP3    H240308   5.581   4.600   3.028 -0.3904  1.3005  0.3638
 6273TIP3   OH240309   5.658   3.545   2.939  0.4687 -0.0108 -0.2306
 6273TIP3    H140310   5.614   3.623   2.974  0.6938 -0.0796  0.2088
 6273TIP3    H240311   5.732   3.531   2.998 -1.1029 -2.1515  1.3852
 6274TIP3   OH240312   5.297   1.665  15.311  0.1423  0.1648 -0.1666
 6274TIP3    H140313   5.335   1.578  15.305 -0.7264 -0.1659 -1.1166
 6274TIP3    H240314   5.361   1.722  15.269  1.0232  0.1036  1.0555
 6275TIP3   OH240315   6.138   3.799  10.647  0.4369  0.1821  0.0819
 6275TIP3    H140316   6.114   3.718  10.693 -1.1146  0.5197 -0.0849
 6275TIP3    H240317   6.055   3.833  10.613  1.1900  1.3713 -0.6385
 6276TIP3   OH240318   2.538   0.895   6.368  0.4752 -0.0882  0.2207
 6276TIP3    H140319   2.612   0.868   6.422 -0.0490  1.0270  1.5374
 6276TIP3    H240320   2.556   0.987   6.348  0.1074 -0.1861 -0.5980
 6277TIP3   OH240321   3.482   4.061   0.319 -0.2159  0.5190 -0.0316
 6277TIP3    H140322   3.440   4.139   0.283  1.1214 -0.4695 -4.3107
 6277TIP3    H240323   3.574   4.084   0.327 -0.1820  0.0748  1.0797
 6278TIP3   OH240324   5.697   1.104  13.721  0.3158  0.4912  0.2807
 6278TIP3    H140325   5.779   1.151  13.737 -0.6115  1.8613  1.3412
 6278TIP3    H240326   5.652   1.105  13.806 -1.0874  0.3826 -0.4302
 6279TIP3   OH240327   0.389   2.451  12.203 -0.2258  0.4237 -0.0282
 6279TIP3    H140328   0.373   2.511  12.276 -1.6929 -1.4474  1.2896
 6279TIP3    H240329   0.346   2.492  12.128  0.2019  1.7640  0.4306
 6280TIP3   OH240330   0.146   5.807  15.900  0.5838 -0.2458 -0.1732
 6280TIP3    H140331   0.167   5.871  15.969 -1.6480  0.9971 -0.5466
 6280TIP3    H240332   0.088   5.744  15.943 -2.3756  1.5681 -1.1805
 6281TIP3   OH240333   2.161   0.550  16.371  0.0179 -0.2843 -0.1728
 6281TIP3    H140334   2.079   0.599  16.366  0.4555  0.4602 -0.1442
 6281TIP3    H240335   2.142   0.468  16.325 -0.7415 -0.1236 -0.1658
 6282TIP3   OH240336   0.918   6.702   5.562  0.4333 -0.0216  0.3453
 6282TIP3    H140337   0.832   6.679   5.597  0.8999  1.7831  2.9106
 6282TIP3    H240338   0.902   6.781   5.510  0.4078 -0.2157  0.0566
 6283TIP3   OH240339   1.858   2.196   2.021 -0.4989  0.0500 -0.8602
 6283TIP3    H140340   1.798   2.127   1.993 -1.1681  0.2585  0.0045
 6283TIP3    H240341   1.904   2.223   1.941 -0.3648 -1.2493 -1.2448
 6284TIP3   OH240342   5.687   2.586   5.425 -0.2645 -0.0440  0.2239
 6284TIP3    H140343   5.779   2.601   5.402 -0.2193 -2.5505 -1.6495
 6284TIP3    H240344   5.685   2.598   5.520  1.8256  0.7992  0.2282
 6285TIP3   OH240345   4.801   2.456   4.898 -0.6018  0.2574 -0.4148
 6285TIP3    H140346   4.852   2.393   4.847 -0.4911  0.9348 -1.1681
 6285TIP3    H240347   4.857   2.479   4.972 -0.6297 -0.4883 -0.1572
 6286TIP3   OH240348   4.737   6.577   5.052 -0.2773  0.5288 -0.2556
 6286TIP3    H140349   4.812   6.522   5.072  1.1426  1.2049 -3.2084
 6286TIP3    H240350   4.734   6.641   5.123 -0.2623 -1.5588  1.7479
 6287TIP3   OH240351   3.778   2.759   4.619 -0.5650  0.1649 -0.2610
 6287TIP3    H140352   3.751   2.673   4.585 -0.5921 -1.1997  2.7948
 6287TIP3    H240353   3.712   2.820   4.587 -2.2041 -1.5033 -0.2317
 6288TIP3   OH240354   6.605   0.783   6.070  0.1285 -0.6086 -0.3755
 6288TIP3    H140355   6.639   0.778   6.159  0.0409  2.4224 -0.0570
 6288TIP3    H240356   6.510   0.774   6.080  0.1544 -0.6969 -0.2100
 6289TIP3   OH240357   6.212   1.709   5.647  0.3210  0.1514  0.3119
 6289TIP3    H140358   6.170   1.794   5.663 -1.0093 -0.5568  0.7594
 6289TIP3    H240359   6.196   1.659   5.727  2.1271 -0.1374  0.5308
 6290TIP3   OH240360   3.532   4.479  14.586 -0.1801 -0.8311 -0.3661
 6290TIP3    H140361   3.440   4.491  14.608 -0.3389  0.7894 -1.7470
 6290TIP3    H240362   3.532   4.459  14.492  0.8664 -1.0765 -0.3256
 6291TIP3   OH240363   0.623   5.234   3.242 -0.2610  0.4562  0.2130
 6291TIP3    H140364   0.555   5.178   3.204 -0.1346  1.8077 -2.1969
 6291TIP3    H240365   0.689   5.172   3.275 -0.3207 -0.8821 -1.9387
 6292TIP3   OH240366   0.754   1.716   4.073  0.2180 -0.1855  0.2682
 6292TIP3    H140367   0.665   1.730   4.040 -0.0632 -2.6535 -0.2424
 6292TIP3    H240368   0.795   1.660   4.007  0.6050 -2.8481  2.5705
 6293TIP3   OH240369   4.810   0.476  11.352 -0.2611  0.1702 -0.6122
 6293TIP3    H140370   4.889   0.481  11.299 -0.2765 -1.2083 -0.7992
 6293TIP3    H240371   4.741   0.513  11.296  0.2612  1.6076 -0.3558
 6294TIP3   OH240372   1.203   0.228   5.607  0.0940  0.1789 -0.3830
 6294TIP3    H140373   1.113   0.206   5.583 -0.0389  0.5296 -0.1979
 6294TIP3    H240374   1.250   0.144   5.602 -0.0903  0.1163 -1.1580
 6295TIP3   OH240375   4.694   2.007   5.229  0.3112 -0.3978  0.3440
 6295TIP3    H140376   4.647   2.040   5.306  0.9505 -0.2463  0.6774
 6295TIP3    H240377   4.697   2.082   5.170 -1.3840 -0.8857 -0.4436
 6296TIP3   OH240378   0.333   0.277  11.117 -1.0803 -0.0099 -0.0944
 6296TIP3    H140379   0.368   0.318  11.037 -2.3485  1.6456  0.1570
 6296TIP3    H240380   0.249   0.241  11.090 -1.4407  0.4181  0.4479
 6297TIP3   OH240381   1.792   1.819   1.011  0.1621 -0.2222  0.3706
 6297TIP3    H140382   1.841   1.802   1.091  1.2963 -2.1347 -0.6264
 6297TIP3    H240383   1.857   1.810   0.941 -0.7028  1.7830 -0.7714
 6298TIP3   OH240384   6.036   0.731  11.637 -0.6566 -0.3248  0.1519
 6298TIP3    H140385   5.988   0.692  11.564  1.2835 -1.0348 -0.7895
 6298TIP3    H240386   6.083   0.805  11.598  0.5311 -0.8150  0.6188
 6299TIP3   OH240387   1.308   2.488   2.861 -0.5017 -0.1086 -0.3162
 6299TIP3    H140388   1.215   2.471   2.842 -0.4272  0.1227 -0.8909
 6299TIP3    H240389   1.312   2.582   2.879 -0.4579 -0.2050  0.1879
 6300TIP3   OH240390   4.942   2.054   3.640 -0.3676  0.7270 -0.2759
 6300TIP3    H140391   5.025   2.080   3.601  1.5653 -3.0769  0.7902
 6300TIP3    H240392   4.885   2.031   3.566  1.1036 -0.6355 -1.0463
 6301TIP3   OH240393   3.196   2.757   0.626  0.0411  0.6182 -0.0035
 6301TIP3    H140394   3.212   2.664   0.605 -1.7893 -0.0737  1.4379
 6301TIP3    H240395   3.227   2.804   0.548  0.3372 -1.2502 -1.0827
 6302TIP3   OH240396   0.001   3.916   3.617  0.4938  0.5351  0.3287
 6302TIP3    H140397   0.017   3.881   3.705  0.4707 -0.2730  0.0215
 6302TIP3    H240398  -0.049   3.996   3.632  0.1796  0.2198  1.0364
 6303TIP3   OH240399   0.362   6.157   3.828  0.0180 -0.0386 -0.0550
 6303TIP3    H140400   0.419   6.170   3.752  0.8727 -0.6066  0.4729
 6303TIP3    H240401   0.346   6.063   3.831  1.1568 -0.2358  1.2474
 6304TIP3   OH240402   3.240   0.207  12.857 -0.3836 -0.6722 -0.6459
 6304TIP3    H140403   3.286   0.151  12.795  0.1352 -0.7563 -0.1947
 6304TIP3    H240404   3.288   0.290  12.853  0.0816 -0.8948  0.1377
 6305TIP3   OH240405   3.121   1.051  11.253  0.0906 -0.0639  0.2829
 6305TIP3    H140406   3.090   1.005  11.332 -1.0477 -0.8455 -0.5850
 6305TIP3    H240407   3.197   1.100  11.283 -0.8882  0.4569  2.1058
 6306TIP3   OH240408   5.692   5.127   2.599 -0.2450  0.5438 -0.4817
 6306TIP3    H140409   5.732   5.058   2.651  3.0512  2.0994 -0.6863
 6306TIP3    H240410   5.622   5.162   2.654  0.9975 -0.0072  1.5400
 6307TIP3   OH240411   6.082   0.159  15.311  0.7523  0.1819  0.2859
 6307TIP3    H140412   6.037   0.222  15.367 -0.8290 -2.0896  1.7520
 6307TIP3    H240413   6.093   0.204  15.228 -0.3843  2.3371  1.2235
 6308TIP3   OH240414   3.823   0.594  13.109 -0.0127 -0.0564  0.0050
 6308TIP3    H140415   3.759   0.534  13.069 -0.5425  0.5740 -0.1220
 6308TIP3    H240416   3.834   0.663  13.044  2.6764 -1.3422 -1.0747
 6309TIP3   OH240417   4.271   0.374  16.725 -0.3194 -0.3365  0.1526
 6309TIP3    H140418   4.321   0.412  16.653 -0.2614 -0.2553  0.2353
 6309TIP3    H240419   4.254   0.448  16.784 -1.0850 -0.2245 -0.1915
 6310TIP3   OH240420   5.746   3.399  11.597 -0.0545 -0.1576 -0.3924
 6310TIP3    H140421   5.711   3.310  11.596  0.0437 -0.2628  1.6681
 6310TIP3    H240422   5.706   3.441  11.673  2.0448  0.6248  0.3769
 6311TIP3   OH240423   1.982   4.302  14.886  0.3593  0.2022  0.9655
 6311TIP3    H140424   1.894   4.264  14.887  0.8497 -1.0298  0.2468
 6311TIP3    H240425   2.017   4.283  14.974  0.0180  0.4331  1.1534
 6312TIP3   OH240426   3.366   4.776   1.317  0.0276  0.1135  0.3404
 6312TIP3    H140427   3.397   4.811   1.401 -0.2717  0.7093  0.2056
 6312TIP3    H240428   3.421   4.699   1.302  0.0671 -0.0164  1.0980
 6313TIP3   OH240429   0.231   3.249   2.053 -0.2048  0.3775 -0.1284
 6313TIP3    H140430   0.201   3.276   1.967 -2.2449  2.3091  1.0542
 6313TIP3    H240431   0.325   3.262   2.052 -0.1499  0.0175 -2.1451
 6314TIP3   OH240432   1.904   0.390  11.637  0.3805  0.2363 -0.0197
 6314TIP3    H140433   1.968   0.320  11.652  0.1139  0.3748  2.0382
 6314TIP3    H240434   1.820   0.351  11.658  0.0705  0.7846 -0.2190
 6315TIP3   OH240435   4.114   3.301   1.259 -0.3752  0.8783 -0.1152
 6315TIP3    H140436   4.159   3.382   1.284  1.2619  0.4916 -1.6155
 6315TIP3    H240437   4.089   3.315   1.168 -0.0040 -0.3285 -0.4147
 6316TIP3   OH240438   1.401   1.342   3.609  0.9443 -0.6320  0.6248
 6316TIP3    H140439   1.455   1.421   3.619  0.2352  0.0169 -0.4396
 6316TIP3    H240440   1.400   1.326   3.515 -1.7227  0.1325  0.4498
 6317TIP3   OH240441   0.880   5.739   6.741 -0.0310 -0.0950  0.1124
 6317TIP3    H140442   0.877   5.660   6.796 -0.4099  0.9696  1.6892
 6317TIP3    H240443   0.890   5.811   6.804 -0.9014  1.2099 -1.1976
 6318TIP3   OH240444   3.814   4.652   2.758 -0.2315 -0.5277  0.3370
 6318TIP3    H140445   3.898   4.684   2.790  0.5324  0.2985 -2.1983
 6318TIP3    H240446   3.836   4.572   2.710 -0.6595  0.2355 -1.2193
 6319TIP3   OH240447   0.952   5.407  13.114 -0.3377 -0.1037  0.0414
 6319TIP3    H140448   1.017   5.372  13.175  0.8086  0.7343 -0.6630
 6319TIP3    H240449   0.882   5.441  13.171 -0.0306 -0.7454  0.8220
 6320TIP3   OH240450   6.314   6.505   6.096 -0.3012 -0.4503 -0.3182
 6320TIP3    H140451   6.267   6.576   6.140  0.9878  0.1847  0.0844
 6320TIP3    H240452   6.330   6.441   6.165 -0.9183 -0.8573 -0.5457
 6321TIP3   OH240453   2.882   3.402  15.681  0.0167  0.0905  0.3913
 6321TIP3    H140454   2.950   3.354  15.633  0.6213  1.0510  0.2615
 6321TIP3    H240455   2.931   3.457  15.742 -0.7196 -0.4065  1.4452
 6322TIP3   OH240456   0.501   2.751   4.117  0.1538 -0.0281 -0.1204
 6322TIP3    H140457   0.410   2.744   4.088 -0.1555  0.3368  0.7511
 6322TIP3    H240458   0.551   2.762   4.036 -1.0736  5.2344 -0.4975
 6323TIP3   OH240459   3.441   2.377   5.592  0.2123  0.3857  0.4078
 6323TIP3    H140460   3.493   2.383   5.511  0.4606  1.0575  0.6082
 6323TIP3    H240461   3.407   2.465   5.604 -0.3195  0.1385  0.7174
 6324TIP3   OH240462   2.477   1.644  12.290  0.1651  0.0012  0.3924
 6324TIP3    H140463   2.399   1.641  12.347 -0.7300  0.5482 -0.7544
 6324TIP3    H240464   2.509   1.734  12.299 -0.2668  0.2340 -0.3158
 6325TIP3   OH240465   5.529   2.132   0.249  0.2415  0.2360  0.8483
 6325TIP3    H140466   5.544   2.136   0.155  0.7953  0.4205  0.9418
 6325TIP3    H240467   5.554   2.043   0.274 -0.2842  0.0591  0.7618
 6326TIP3   OH240468   5.742   2.344  12.071  0.1845  0.0361  0.4130
 6326TIP3    H140469   5.712   2.260  12.037  1.0924 -0.1941  0.1693
 6326TIP3    H240470   5.666   2.402  12.059 -0.4519 -0.7344  0.5857
 6327TIP3   OH240471   2.051   4.702   1.801 -0.3144 -0.4747  0.5023
 6327TIP3    H140472   2.127   4.715   1.858 -0.2649 -0.3963  0.4175
 6327TIP3    H240473   2.072   4.621   1.753 -1.2704 -1.7217  2.0932
 6328TIP3   OH240474   5.027   4.803   5.247  0.3291 -0.1944 -0.1354
 6328TIP3    H140475   5.027   4.871   5.180  1.7796  1.3192  1.2774
 6328TIP3    H240476   5.120   4.791   5.269  0.0016 -1.7654  0.5142
 6329TIP3   OH240477   6.561   2.830   6.525 -0.4203 -0.3922  1.1016
 6329TIP3    H140478   6.515   2.746   6.531 -1.8758  0.1281 -1.5399
 6329TIP3    H240479   6.654   2.806   6.526 -0.7803 -1.9348  1.2539
 6330TIP3   OH240480   3.569   4.061  11.698  0.4078  0.3403  0.4057
 6330TIP3    H140481   3.631   4.024  11.636  3.0272  0.1465  2.8911
 6330TIP3    H240482   3.622   4.082  11.775 -2.8793 -1.5834  3.5207
 6331TIP3   OH240483   3.146   1.951  15.714  0.2176 -0.2638  0.2093
 6331TIP3    H140484   3.183   2.033  15.748 -0.2445 -0.8606  2.3373
 6331TIP3    H240485   3.194   1.935  15.633 -0.8918  2.9685 -1.2502
 6332TIP3   OH240486   0.786   1.379  13.003  0.3775  0.2566  0.2730
 6332TIP3    H140487   0.868   1.366  12.956  1.0722  1.0878  1.2098
 6332TIP3    H240488   0.794   1.466  13.043 -1.0149  0.4153  0.2739
 6333TIP3   OH240489   2.824   3.305  15.253  0.0652 -0.2186  0.0494
 6333TIP3    H140490   2.820   3.385  15.304  0.6849 -0.0683 -0.1312
 6333TIP3    H240491   2.801   3.332  15.164 -0.2446 -0.3422  0.0872
 6334TIP3   OH240492   1.640   2.895  11.634  0.2001  0.6771 -0.0002
 6334TIP3    H140493   1.614   2.887  11.543  0.9863  0.9519 -0.2582
 6334TIP3    H240494   1.566   2.939  11.676  1.3166  4.1384 -1.2976
 6335TIP3   OH240495   4.839   2.810  12.878 -0.1292 -0.4632 -0.1794
 6335TIP3    H140496   4.859   2.716  12.874  0.6396 -0.2595 -2.1412
 6335TIP3    H240497   4.910   2.852  12.830 -1.2035  0.9954 -0.5665
 6336TIP3   OH240498   0.576   3.522   1.900 -0.2727 -0.4226  0.0311
 6336TIP3    H140499   0.622   3.447   1.863 -1.4684 -2.2082  1.9082
 6336TIP3    H240500   0.501   3.535   1.842 -0.1072 -0.7357 -0.2559
 6337TIP3   OH240501   6.363   2.645   4.551 -0.6545 -0.2236 -0.4413
 6337TIP3    H140502   6.280   2.601   4.569 -0.9231  0.3800 -0.1946
 6337TIP3    H240503   6.338   2.732   4.520 -0.1139  0.0679 -0.0710
 6338TIP3   OH240504   0.474   2.678  16.130 -0.0086  0.1733  1.2420
 6338TIP3    H140505   0.435   2.703  16.046 -0.2473  1.2102  1.6569
 6338TIP3    H240506   0.418   2.718  16.196  0.4480 -0.2480  1.8956
 6339TIP3   OH240507   5.814   0.412  15.086  0.0264  0.5394 -0.1892
 6339TIP3    H140508   5.731   0.439  15.046 -0.8080 -0.1387  0.9882
 6339TIP3    H240509   5.811   0.451  15.174 -0.7458 -2.3121  1.1867
 6340TIP3   OH240510   5.506   0.293   3.829 -0.1767 -0.2843  0.2914
 6340TIP3    H140511   5.582   0.340   3.864 -1.1738  1.9866 -0.3910
 6340TIP3    H240512   5.431   0.337   3.868 -1.3021  1.3624 -3.2897
 6341TIP3   OH240513   5.052   1.332  13.853  0.0922 -0.5031  0.6151
 6341TIP3    H140514   5.055   1.237  13.846 -0.0362 -0.6598  2.3463
 6341TIP3    H240515   5.140   1.361  13.828  0.4650 -1.1690  1.1228
 6342TIP3   OH240516   3.645   4.319   0.562 -0.5391  0.0933 -0.0491
 6342TIP3    H140517   3.708   4.255   0.528  0.1324  0.6368  0.1619
 6342TIP3    H240518   3.678   4.404   0.532 -0.9961  0.4130  0.3375
 6343TIP3   OH240519   3.929   4.833  12.348  0.2613 -0.3873 -0.4923
 6343TIP3    H140520   3.917   4.746  12.310 -0.9650  0.4593 -2.1809
 6343TIP3    H240521   3.842   4.860  12.377  0.8531 -0.2288  1.2932
 6344TIP3   OH240522   0.705   4.051  12.122 -0.3173  0.2390 -0.2164
 6344TIP3    H140523   0.673   3.991  12.055  2.1012 -1.9411  0.4066
 6344TIP3    H240524   0.800   4.039  12.122 -0.0725  1.4761  2.3728
 6345TIP3   OH240525   2.366   5.116   0.378 -0.5838  0.7413 -0.2165
 6345TIP3    H140526   2.348   5.210   0.374  1.8413  1.2634 -0.7381
 6345TIP3    H240527   2.441   5.109   0.438 -1.2315 -0.9789  0.4538
 6346TIP3   OH240528   2.692   3.115   5.059  0.5157 -0.6631 -0.4110
 6346TIP3    H140529   2.739   3.067   5.127  2.1142 -0.3880 -1.2647
 6346TIP3    H240530   2.728   3.081   4.977 -0.5580 -0.1762 -1.1099
 6347TIP3   OH240531   5.098   6.525  11.806 -0.4559 -0.3966  0.3497
 6347TIP3    H140532   5.133   6.591  11.866  1.6250 -0.1463 -1.0491
 6347TIP3    H240533   5.106   6.565  11.719 -0.4901 -1.9341 -0.3958
 6348TIP3   OH240534   2.113   3.513  13.848 -0.2310 -0.3492 -0.3214
 6348TIP3    H140535   2.068   3.451  13.790 -1.3533  0.8726 -0.8010
 6348TIP3    H240536   2.164   3.568  13.789 -0.5255  0.2142 -0.0500
 6349TIP3   OH240537   1.012   5.115  11.014 -0.3503  0.0827 -0.2280
 6349TIP3    H140538   0.917   5.103  11.015 -0.3812  0.2612  0.9264
 6349TIP3    H240539   1.044   5.054  11.081  0.3176  0.2328 -0.4042
 6350TIP3   OH240540   3.788   5.937   4.835  0.1037 -0.1285  0.2876
 6350TIP3    H140541   3.852   5.894   4.778  0.1628 -0.7710  0.8276
 6350TIP3    H240542   3.827   5.932   4.923  0.2602  1.3198  0.3226
 6351TIP3   OH240543   6.825   4.319   2.028  0.0786  0.0633 -0.4640
 6351TIP3    H140544   6.746   4.351   2.072  0.3606  0.3989 -0.2001
 6351TIP3    H240545   6.891   4.386   2.044  0.2632  0.0647 -1.1781
 6352TIP3   OH240546   1.202   4.829  10.929  0.3325  0.2978 -0.1310
 6352TIP3    H140547   1.199   4.843  11.024 -2.8678  0.3008 -0.1232
 6352TIP3    H240548   1.221   4.915  10.892 -1.2109  0.9309  0.4709
 6353TIP3   OH240549   0.916   5.597  12.506  0.3290 -0.4774 -0.6005
 6353TIP3    H140550   0.869   5.527  12.551  1.2330 -0.4686  0.4143
 6353TIP3    H240551   0.932   5.562  12.418  0.9377 -1.6554 -0.0507
 6354TIP3   OH240552   5.620   0.345   2.116 -0.2506  0.4143  0.1965
 6354TIP3    H140553   5.655   0.282   2.179  0.5666  0.0505 -0.5964
 6354TIP3    H240554   5.526   0.345   2.131 -0.3734 -1.5994 -0.2963
 6355TIP3   OH240555   4.087   6.483  15.871  0.1941  0.4581  0.8054
 6355TIP3    H140556   4.003   6.470  15.828  0.5687  1.1306 -0.1614
 6355TIP3    H240557   4.126   6.396  15.874 -0.4321  0.1817  1.0456
 6356TIP3   OH240558   4.847   3.184   4.434  0.1050 -0.4222 -0.1349
 6356TIP3    H140559   4.859   3.094   4.405  1.5651 -0.3265  0.0779
 6356TIP3    H240560   4.807   3.228   4.359 -1.5862 -1.4496  0.1247
 6357TIP3   OH240561   6.392   0.306   1.890  0.2199  0.0400 -0.5983
 6357TIP3    H140562   6.368   0.340   1.977  1.2301  0.9895 -0.6732
 6357TIP3    H240563   6.487   0.310   1.889  0.2789 -1.1643 -1.2971
 6358TIP3   OH240564   6.179   1.747   3.390 -0.7518  0.6712 -0.2769
 6358TIP3    H140565   6.171   1.801   3.468 -1.8081  1.0707 -0.6506
 6358TIP3    H240566   6.270   1.759   3.361  0.0049 -0.3859  1.5165
 6359TIP3   OH240567   4.605   2.226   2.894 -0.1193  0.0803  0.2786
 6359TIP3    H140568   4.545   2.281   2.945  1.3938 -0.8700  3.3251
 6359TIP3    H240569   4.548   2.175   2.837 -1.7892  2.4101 -0.2750
 6360TIP3   OH240570   3.991   6.406   4.273  0.1659 -0.2412  0.1124
 6360TIP3    H140571   4.009   6.315   4.297 -1.9107 -0.7846 -0.1792
 6360TIP3    H240572   4.020   6.413   4.182  1.8720 -0.1073  0.6471
 6361TIP3   OH240573   1.952   5.950  16.512  0.1748  0.0886  0.5114
 6361TIP3    H140574   2.039   5.929  16.545  0.5506  0.6488 -0.0771
 6361TIP3    H240575   1.900   5.870  16.525  0.4593  0.1064  1.8737
 6362TIP3   OH240576   6.639   0.237  13.174  0.1539  0.0526 -0.0345
 6362TIP3    H140577   6.645   0.333  13.173 -0.0374  0.1465  2.0931
 6362TIP3    H240578   6.719   0.208  13.130  0.1764  1.1757 -0.7838
 6363TIP3   OH240579   2.212   2.700  10.614  0.0755 -0.3979  0.0449
 6363TIP3    H140580   2.167   2.767  10.664  1.0024  0.1143  0.2140
 6363TIP3    H240581   2.305   2.719  10.625  0.5110 -3.0014  1.9633
 6364TIP3   OH240582   4.819   5.652  12.172  0.3886 -0.0389 -0.3310
 6364TIP3    H140583   4.845   5.583  12.233 -0.7268 -0.7542 -0.6430
 6364TIP3    H240584   4.761   5.609  12.109 -2.6338  1.6752  1.0775
 6365TIP3   OH240585   3.689   6.336   2.635  0.1237  0.1339  0.3601
 6365TIP3    H140586   3.783   6.322   2.631  0.1313  0.2977 -0.1460
 6365TIP3    H240587   3.651   6.253   2.606  0.1630  0.9430 -2.2196
 6366TIP3   OH240588   0.877   6.410   3.624  0.2821 -0.6025 -0.6613
 6366TIP3    H140589   0.811   6.453   3.678 -0.0757 -0.1255 -1.4532
 6366TIP3    H240590   0.931   6.482   3.591 -0.4235 -0.7079 -2.1444
 6367TIP3   OH240591   3.326   3.568   2.262  0.1442  0.5519  0.2068
 6367TIP3    H140592   3.240   3.600   2.235 -0.1830 -0.2954  0.1829
 6367TIP3    H240593   3.386   3.599   2.195 -0.6081 -1.2834 -1.4377
 6368TIP3   OH240594   3.608   6.083   2.567  0.2470 -0.8800  0.6053
 6368TIP3    H140595   3.525   6.058   2.608 -0.9329 -0.1289 -1.2102
 6368TIP3    H240596   3.615   6.027   2.490  0.3112  0.5562 -0.4744
 6369TIP3   OH240597   5.558   5.969  14.738 -0.9356 -0.2250 -0.2923
 6369TIP3    H140598   5.469   5.964  14.773 -0.7161  0.5149  0.4032
 6369TIP3    H240599   5.556   5.913  14.660 -2.3037  0.6175 -0.9067
 6370TIP3   OH240600   4.209   4.460  16.725  0.2713  0.3215 -0.0340
 6370TIP3    H140601   4.217   4.370  16.758  1.5329  1.0323  1.7503
 6370TIP3    H240602   4.219   4.515  16.803 -0.1611  2.0410 -1.1361
 6371TIP3   OH240603   2.477   0.779   5.662 -0.5511 -0.2408 -0.0191
 6371TIP3    H140604   2.504   0.703   5.610 -0.7224 -0.8096  0.7078
 6371TIP3    H240605   2.414   0.744   5.725 -1.6277  0.7435 -0.5042
 6372TIP3   OH240606   3.980   4.171   1.498 -0.0398 -0.5599 -0.7619
 6372TIP3    H140607   3.993   4.093   1.552  1.2079 -0.0317 -0.2467
 6372TIP3    H240608   4.064   4.183   1.454  0.0868  0.9582 -0.1899
 6373TIP3   OH240609   2.624   5.959  12.436  0.1674  0.2620 -0.4902
 6373TIP3    H140610   2.578   6.027  12.485 -0.9299 -1.0859  0.3993
 6373TIP3    H240611   2.638   5.889  12.499  0.6934 -0.6212 -1.5565
 6374TIP3   OH240612   0.661   5.857  11.656  0.4970 -0.4404 -0.2604
 6374TIP3    H140613   0.738   5.834  11.604 -1.1715 -1.2336 -2.5727
 6374TIP3    H240614   0.628   5.937  11.615 -0.2490 -0.4621  0.2807
 6375TIP3   OH240615   0.127   4.436  14.258  0.6555  0.0839 -0.3233
 6375TIP3    H140616   0.209   4.472  14.222  0.5367  1.9072  1.0149
 6375TIP3    H240617   0.066   4.435  14.185  0.7487  2.5516 -0.5156
 6376TIP3   OH240618   4.795   6.267  11.156 -0.1750  0.1161  0.2912
 6376TIP3    H140619   4.801   6.267  11.060 -0.0716  1.2735  0.2779
 6376TIP3    H240620   4.703   6.285  11.174 -0.0519  0.6696  0.3945
 6377TIP3   OH240621   1.153   3.665   2.084  0.0233  0.0730 -0.3170
 6377TIP3    H140622   1.083   3.677   2.019  0.9876 -0.0050 -1.4021
 6377TIP3    H240623   1.167   3.752   2.121  0.5155  0.4513 -1.3482
 6378TIP3   OH240624   3.236   2.615  15.563  0.5589 -0.0522  0.1249
 6378TIP3    H140625   3.235   2.626  15.658  1.0524 -2.9604  0.5353
 6378TIP3    H240626   3.314   2.562  15.546 -0.5174 -1.1461 -1.6890
 6379TIP3   OH240627   4.038   5.431  10.810 -0.0010  0.1719 -0.6485
 6379TIP3    H140628   4.124   5.417  10.771  0.4728  0.1869  0.3622
 6379TIP3    H240629   4.056   5.480  10.890 -0.7065 -1.7498  0.7443
 6380TIP3   OH240630   1.733   2.994  10.263  0.2957  0.4268 -0.7491
 6380TIP3    H140631   1.748   2.899  10.263  2.7961  0.7503 -0.9207
 6380TIP3    H240632   1.641   3.004  10.289 -0.7336 -2.1128 -2.9371
 6381TIP3   OH240633   1.986   0.764   2.800  0.4491  1.0097  0.0593
 6381TIP3    H140634   2.039   0.842   2.810  0.7978  0.6107  1.6014
 6381TIP3    H240635   1.948   0.749   2.887 -0.9178  0.3877 -0.6110
 6382TIP3   OH240636   4.226   1.373  14.109  1.0681  0.3255 -0.1575
 6382TIP3    H140637   4.282   1.364  14.032 -0.7630 -0.5145 -1.4641
 6382TIP3    H240638   4.225   1.467  14.127  1.6227  0.5198 -1.0693
 6383TIP3   OH240639   6.642   5.009   6.241  0.1885 -0.2563 -0.0383
 6383TIP3    H140640   6.623   5.048   6.326 -1.3015  1.3104 -1.0376
 6383TIP3    H240641   6.710   4.944   6.260  1.1236  1.2130  2.0619
 6384TIP3   OH240642   1.277   4.473  12.754 -0.0359  1.4847 -0.6242
 6384TIP3    H140643   1.312   4.391  12.788 -0.9066  1.5708  0.5263
 6384TIP3    H240644   1.341   4.501  12.689  0.2865 -0.0839 -1.0196
 6385TIP3   OH240645   4.853   4.601   0.531 -0.3711  0.2314 -0.0687
 6385TIP3    H140646   4.897   4.685   0.538  1.1979 -0.4934 -0.7647
 6385TIP3    H240647   4.790   4.613   0.459 -0.0046  0.7361 -0.3096
 6386TIP3   OH240648   4.455   5.291  12.651 -0.2646  0.4559  0.0479
 6386TIP3    H140649   4.443   5.287  12.746 -0.0682  0.4932  0.0765
 6386TIP3    H240650   4.389   5.353  12.621  2.3819  3.8605  0.6830
 6387TIP3   OH240651   6.713   2.762   1.879  0.0808 -0.4420 -0.8491
 6387TIP3    H140652   6.641   2.710   1.915  0.8217 -0.3635  0.8466
 6387TIP3    H240653   6.671   2.824   1.820 -1.6353  1.2376  1.9051
 6388TIP3   OH240654   1.986   2.415   1.054 -0.4384  0.2345  0.5692
 6388TIP3    H140655   1.938   2.334   1.075 -0.1929  0.3216  1.5182
 6388TIP3    H240656   2.072   2.402   1.094  0.1428  0.3237 -0.6233
 6389TIP3   OH240657   3.765   2.167   4.443  0.0412 -0.4320  0.4972
 6389TIP3    H140658   3.855   2.135   4.449  0.1922  0.2044  2.5590
 6389TIP3    H240659   3.728   2.121   4.368  2.0521 -0.7605 -0.3564
 6390TIP3   OH240660   5.165   0.077  12.262 -0.0446  0.0730 -0.1936
 6390TIP3    H140661   5.230   0.103  12.328 -0.0119 -1.7601  0.5501
 6390TIP3    H240662   5.111   0.155  12.249  0.4400  0.7052  1.4225
 6391TIP3   OH240663   3.676   5.487  11.755  0.3821  0.1866  0.1760
 6391TIP3    H140664   3.610   5.546  11.717 -0.6519 -0.3926  0.9924
 6391TIP3    H240665   3.663   5.495  11.850  1.5170  0.0635  0.3558
 6392TIP3   OH240666   3.918   0.361  11.840  0.4782  0.6679  0.0152
 6392TIP3    H140667   3.937   0.279  11.795 -1.0913 -0.2906  0.9937
 6392TIP3    H240668   3.878   0.417  11.773 -0.2953 -0.1167 -0.1919
 6393TIP3   OH240669   1.843   3.106   4.836 -0.2145 -0.0516  0.4011
 6393TIP3    H140670   1.833   3.201   4.833 -0.3309 -0.0662  0.3548
 6393TIP3    H240671   1.776   3.072   4.777 -0.9379 -0.2156  1.2860
 6394TIP3   OH240672   5.547   2.513  15.440  0.1049  0.2359 -0.2076
 6394TIP3    H140673   5.490   2.477  15.372 -0.6181 -0.0838  0.5342
 6394TIP3    H240674   5.615   2.447  15.452 -1.1726 -0.9438  1.0907
 6395TIP3   OH240675   3.389   3.689   0.557  0.1168 -0.6417  0.4280
 6395TIP3    H140676   3.319   3.647   0.608  0.0762 -0.2636  0.6880
 6395TIP3    H240677   3.427   3.618   0.505 -1.5410 -0.5488 -0.9722
 6396TIP3   OH240678   0.751   2.402   4.099  0.0013  0.2540 -0.6693
 6396TIP3    H140679   0.793   2.352   4.030  1.0550  0.7182 -0.3824
 6396TIP3    H240680   0.687   2.457   4.053  1.3652  1.2822 -1.4293
 6397TIP3   OH240681   4.364   1.419   1.241  0.1743  0.1773  0.0957
 6397TIP3    H140682   4.350   1.513   1.235  1.5794  0.4797  0.9395
 6397TIP3    H240683   4.346   1.385   1.153 -1.3306  1.0658  0.0404
 6398TIP3   OH240684   2.021   4.804   4.745  0.0061 -0.0062 -0.3221
 6398TIP3    H140685   2.072   4.880   4.774  0.6207 -0.4051 -0.3257
 6398TIP3    H240686   1.979   4.832   4.664  1.0517  0.0174 -0.8760
 6399TIP3   OH240687   6.775   4.790   5.041  0.1533 -0.1135 -0.0935
 6399TIP3    H140688   6.818   4.776   5.125 -0.7864 -1.1506  0.2367
 6399TIP3    H240689   6.832   4.745   4.978 -0.7102 -1.9980  0.4197
 6400TIP3   OH240690   4.442   4.705   1.307 -0.3562 -0.0347 -0.6265
 6400TIP3    H140691   4.355   4.741   1.323 -1.0924 -1.5641 -0.9465
 6400TIP3    H240692   4.485   4.709   1.392  0.1115  2.7671 -0.9289
 6401TIP3   OH240693   6.300   1.483   4.892 -0.5531 -0.4721 -0.0900
 6401TIP3    H140694   6.344   1.500   4.975 -0.7789  1.5764 -0.3446
 6401TIP3    H240695   6.369   1.491   4.826 -0.8366  0.4565 -0.2909
 6402TIP3   OH240696   1.264   6.203   0.952  0.3110  0.1935  0.0602
 6402TIP3    H140697   1.191   6.203   1.014  0.6771 -0.6088  0.5003
 6402TIP3    H240698   1.342   6.202   1.006  0.6404 -0.1797 -0.4128
 6403TIP3   OH240699   2.906   2.084  11.866 -0.3021  0.2629  0.0277
 6403TIP3    H140700   2.863   2.011  11.821  0.0312  0.5344 -0.7354
 6403TIP3    H240701   2.874   2.162  11.821 -0.1594  0.5530  0.4306
 6404TIP3   OH240702   0.379   1.014  15.075  0.8604  0.2544 -0.3369
 6404TIP3    H140703   0.383   1.097  15.122  1.4490  0.9066 -1.4951
 6404TIP3    H240704   0.471   0.987  15.067  0.6011 -1.5885  1.8149
 6405TIP3   OH240705   5.691   1.266   4.990  0.1605  0.6674 -0.3290
 6405TIP3    H140706   5.671   1.285   4.899  0.3878 -0.6988 -0.6821
 6405TIP3    H240707   5.773   1.216   4.987  1.9943  3.3758  0.8618
 6406TIP3   OH240708   1.084   4.498  12.549 -0.3281 -0.3729 -0.5192
 6406TIP3    H140709   1.009   4.443  12.571 -0.5290  0.4331  0.9792
 6406TIP3    H240710   1.157   4.460  12.597  0.0410 -0.6484 -1.2855
 6407TIP3   OH240711   5.351   2.292  14.358 -0.7185 -0.2691  0.4219
 6407TIP3    H140712   5.408   2.369  14.362 -2.3760  0.9952  0.5483
 6407TIP3    H240713   5.379   2.238  14.432 -0.0397  0.5789  0.8070
 6408TIP3   OH240714   3.542   5.408  16.801 -0.2706  0.0218 -0.0712
 6408TIP3    H140715   3.591   5.490  16.811 -0.8810  0.4476 -0.4887
 6408TIP3    H240716   3.570   5.355  16.876  1.3274 -0.0211 -0.6577
 6409TIP3   OH240717   4.398   2.518  10.932 -0.5687  0.2361  0.2703
 6409TIP3    H140718   4.413   2.430  10.965 -0.8110  0.5295  1.2000
 6409TIP3    H240719   4.423   2.514  10.840  2.2419 -0.0760  0.9540
 6410TIP3   OH240720   2.709   0.200   3.472 -0.5567 -0.1963 -0.4458
 6410TIP3    H140721   2.724   0.282   3.425  0.2742 -0.3514 -0.4569
 6410TIP3    H240722   2.718   0.224   3.564  1.3460 -0.5818 -0.4959
 6411TIP3   OH240723   1.488   6.626   4.089 -0.3331 -0.3317 -0.3307
 6411TIP3    H140724   1.504   6.623   4.183  0.6288 -1.1100 -0.5000
 6411TIP3    H240725   1.570   6.659   4.052 -0.5479 -0.4482 -0.9195
 6412TIP3   OH240726   6.099   2.244  16.615 -0.1869 -0.1587  0.6159
 6412TIP3    H140727   6.150   2.325  16.612 -1.6675  0.8192  0.8087
 6412TIP3    H240728   6.009   2.272  16.635 -1.1468 -1.6752 -1.2082
 6413TIP3   OH240729   0.863   5.830   4.045 -0.0739 -0.1402 -0.2612
 6413TIP3    H140730   0.817   5.794   3.970 -0.4270  0.2928 -0.2596
 6413TIP3    H240731   0.951   5.850   4.012  0.0995 -0.9108 -0.2803
 6414TIP3   OH240732   4.408   2.890   6.474 -0.2183  0.5346  0.2274
 6414TIP3    H140733   4.490   2.927   6.507  1.4403 -0.4443 -2.4624
 6414TIP3    H240734   4.435   2.812   6.426 -2.7957 -0.0014 -0.4875
 6415TIP3   OH240735   2.556   3.023   1.813  0.2339 -0.5984 -0.4342
 6415TIP3    H140736   2.487   3.088   1.795  0.2308 -0.6000 -0.4283
 6415TIP3    H240737   2.600   3.056   1.891 -0.8399 -1.4502  0.5806
 6416TIP3   OH240738   6.460   4.007  14.676  0.2828 -0.3853 -0.2133
 6416TIP3    H140739   6.431   3.951  14.748  0.2310 -1.1455 -0.8202
 6416TIP3    H240740   6.379   4.032  14.630  0.0618  1.8943  1.2357
 6417TIP3   OH240741   3.819   3.387  15.602 -0.2564 -0.4296  0.2235
 6417TIP3    H140742   3.845   3.319  15.541  0.5857 -1.0168  1.2062
 6417TIP3    H240743   3.777   3.340  15.674 -0.7228  0.2024  0.3780
 6418TIP3   OH240744   6.239   1.568  16.733  0.4258 -0.0299  0.3411
 6418TIP3    H140745   6.229   1.617  16.815 -1.8349  1.2082 -0.6061
 6418TIP3    H240746   6.313   1.509  16.750  1.3156  1.5753  2.5702
 6419TIP3   OH240747   3.343   4.083  15.375 -0.1653  0.3418  0.2752
 6419TIP3    H140748   3.337   3.996  15.334 -2.9434  0.6322 -0.1327
 6419TIP3    H240749   3.352   4.143  15.301  0.4444  0.5151  0.4836
 6420TIP3   OH240750   4.372   5.372  14.739 -0.2167 -0.1642  0.1369
 6420TIP3    H140751   4.403   5.294  14.692 -0.5513 -0.7461  0.8563
 6420TIP3    H240752   4.347   5.433  14.670  1.3477 -0.1590 -0.4480
 6421TIP3   OH240753   1.845   3.728   0.299 -0.0381  0.2301 -0.0532
 6421TIP3    H140754   1.759   3.768   0.313 -0.1408 -0.1938  0.5837
 6421TIP3    H240755   1.855   3.667   0.373  0.8478  0.3460 -0.0682
 6422TIP3   OH240756   1.662   1.973  17.079 -0.9296  0.9909 -0.5360
 6422TIP3    H140757   1.757   1.980  17.070 -0.9703  0.0053 -2.1789
 6422TIP3    H240758   1.649   1.924  17.161  0.0929 -0.8458 -1.4071
 6423TIP3   OH240759   4.101   5.838   6.409  0.3653 -0.0399 -0.4386
 6423TIP3    H140760   4.179   5.854   6.462  0.2211  1.9353 -0.7259
 6423TIP3    H240761   4.040   5.795   6.469  1.7127 -1.8096 -0.2780
 6424TIP3   OH240762   1.504   1.656   2.536  0.7778  0.0406  0.5167
 6424TIP3    H140763   1.412   1.630   2.526  0.3910  0.7024  2.1199
 6424TIP3    H240764   1.516   1.668   2.630  2.6057 -0.3208  0.3608
 6425TIP3   OH240765   5.033   5.727   6.027 -0.3578  0.1615 -0.4004
 6425TIP3    H140766   4.953   5.680   6.048 -0.7938  0.6613 -0.9131
 6425TIP3    H240767   5.034   5.801   6.087  0.9712 -1.1373  1.2872
 6426TIP3   OH240768   3.096   2.534  14.772 -0.4793  0.0353 -0.2758
 6426TIP3    H140769   3.121   2.497  14.857  0.1224  0.0246 -0.4490
 6426TIP3    H240770   3.089   2.628  14.789 -2.6602 -0.1846  0.3212
 6427TIP3   OH240771   0.603   6.114  14.676 -0.0115 -0.0731 -0.6977
 6427TIP3    H140772   0.551   6.057  14.620 -3.6020  0.0197  2.1172
 6427TIP3    H240773   0.646   6.055  14.737  0.9191 -0.0022 -1.2742
 6428TIP3   OH240774   1.065   3.487   3.919 -0.3721  0.6045  0.0937
 6428TIP3    H140775   1.090   3.559   3.860 -0.5507 -0.3118 -1.1464
 6428TIP3    H240776   1.097   3.408   3.875 -0.1665 -0.0838  1.4387
 6429TIP3   OH240777   3.027   4.165   1.380 -0.2882  0.3530  0.6764
 6429TIP3    H140778   3.002   4.227   1.448 -1.2183  0.8725 -0.1224
 6429TIP3    H240779   2.952   4.163   1.320 -0.9790 -2.6909  1.4602
 6430TIP3   OH240780   1.403   3.175   4.940  0.3999 -0.0146 -0.4365
 6430TIP3    H140781   1.453   3.253   4.965 -0.3609 -0.0527  1.3324
 6430TIP3    H240782   1.324   3.179   4.994 -0.4367 -1.1458 -1.5338
 6431TIP3   OH240783   2.430   3.537  16.769 -0.3759  0.1146  0.6954
 6431TIP3    H140784   2.468   3.458  16.807 -0.8142 -0.6705 -0.4136
 6431TIP3    H240785   2.468   3.542  16.681 -2.4139 -0.4615 -0.3006
 6432TIP3   OH240786   2.903   4.268  15.753  0.3569  0.4034  0.1583
 6432TIP3    H140787   2.968   4.335  15.734 -0.0241  0.4245 -1.1710
 6432TIP3    H240788   2.951   4.185  15.749  0.4702  0.4776 -0.0110
 6433TIP3   OH240789   4.144   0.525   4.149  0.4344 -0.0660 -0.2436
 6433TIP3    H140790   4.099   0.587   4.090 -1.3532 -0.0510  1.0531
 6433TIP3    H240791   4.164   0.577   4.227 -1.5737 -1.1472  1.0882
 6434TIP3   OH240792   5.008   2.255  10.922 -0.0119  0.5247  0.3049
 6434TIP3    H140793   5.043   2.249  10.833 -2.6431  0.4669 -0.7870
 6434TIP3    H240794   5.042   2.178  10.967  0.6964  0.1329 -0.8677
 6435TIP3   OH240795   4.407   1.340  14.947 -0.4177 -0.0776 -0.4627
 6435TIP3    H140796   4.473   1.294  14.999 -1.5035 -2.3770 -0.9672
 6435TIP3    H240797   4.383   1.416  14.999  1.2930 -0.1887  0.5549
 6436TIP3   OH240798   1.970   2.998   5.044  0.1930  0.3130 -0.6982
 6436TIP3    H140799   1.919   2.996   4.964 -2.3148  1.5821  0.7649
 6436TIP3    H240800   1.942   2.920   5.093  0.0396  0.7208 -0.1230
 6437TIP3   OH240801   0.541   2.978   3.937 -0.2273  0.0935 -0.2919
 6437TIP3    H140802   0.633   2.971   3.912 -0.3421 -1.0898 -0.4496
 6437TIP3    H240803   0.543   3.005   4.029  0.2985 -0.7865 -0.0378
 6438TIP3   OH240804   1.555   1.486   4.735 -0.3273  0.4771  0.3948
 6438TIP3    H140805   1.593   1.414   4.684 -1.2417 -1.2813  2.0540
 6438TIP3    H240806   1.630   1.523   4.782  0.1213  0.4568 -0.2854
 6439TIP3   OH240807   5.073   6.248  11.198  0.4904  0.3060  0.5168
 6439TIP3    H140808   5.114   6.253  11.111  2.0825 -0.0130  1.2131
 6439TIP3    H240809   4.979   6.241  11.180  0.8600 -0.7857 -1.2045
 6440TIP3   OH240810   6.377   3.327   4.853 -0.2493 -0.7355 -0.1386
 6440TIP3    H140811   6.317   3.366   4.916  0.2136  1.6246 -1.0563
 6440TIP3    H240812   6.465   3.348   4.885 -0.0031  0.1690 -1.3249
 6441TIP3   OH240813   4.269   0.295   4.500 -0.0735 -0.2111 -0.4299
 6441TIP3    H140814   4.208   0.236   4.454  2.0477 -1.7243 -1.5025
 6441TIP3    H240815   4.243   0.383   4.473 -1.3023 -0.8621 -1.4512
 6442TIP3   OH240816   1.007   2.718   2.157 -0.3385  0.2686  0.4199
 6442TIP3    H140817   1.084   2.767   2.187  1.0840 -1.4681 -0.2188
 6442TIP3    H240818   0.987   2.658   2.229  0.2677 -0.7722 -0.2614
 6443TIP3   OH240819   1.634   2.585   1.892 -0.2844  0.5036  0.1716
 6443TIP3    H140820   1.660   2.677   1.903  0.1088  0.3952  0.1648
 6443TIP3    H240821   1.575   2.586   1.816  0.2589  0.6557 -0.2541
 6444TIP3   OH240822   1.232   2.375   1.957  0.5839 -0.8038 -0.2824
 6444TIP3    H140823   1.317   2.364   2.000 -0.5282 -3.2667  1.5089
 6444TIP3    H240824   1.252   2.370   1.863  2.4872 -0.5790  0.0702
 6445TIP3   OH240825   2.577   1.116   3.434  0.6957  0.4120  0.1980
 6445TIP3    H140826   2.636   1.087   3.364  1.0681 -1.0894  1.0981
 6445TIP3    H240827   2.611   1.202   3.459  3.7216 -1.0636  1.8592
 6446TIP3   OH240828   0.789   2.316   6.095 -0.0206 -0.1330  0.1023
 6446TIP3    H140829   0.816   2.372   6.168 -0.1802  0.0515  0.0222
 6446TIP3    H240830   0.791   2.227   6.131  2.7206 -0.3976 -0.4793
 6447TIP3   OH240831   3.436   6.127  11.534 -0.3342  0.1879 -0.4344
 6447TIP3    H140832   3.344   6.102  11.539 -0.0941 -0.4336  1.4714
 6447TIP3    H240833   3.481   6.069  11.595  1.0068  1.8835  0.2877
 6448TIP3   OH240834   5.103   3.707   0.921 -0.3668 -0.3575  0.5978
 6448TIP3    H140835   5.078   3.787   0.967  2.4399  0.7554  0.4034
 6448TIP3    H240836   5.020   3.668   0.894 -1.8821  2.8704  0.0836
 6449TIP3   OH240837   6.101   2.793   2.992  0.2559  0.3589 -0.0960
 6449TIP3    H140838   6.048   2.753   3.061  1.1488  0.0485  0.4325
 6449TIP3    H240839   6.132   2.875   3.031 -0.1867  0.7433 -0.5565
 6450TIP3   OH240840   5.079   1.887  11.835 -0.4693 -0.1395 -0.5539
 6450TIP3    H140841   5.106   1.802  11.871 -1.2115 -0.6209 -1.0786
 6450TIP3    H240842   4.987   1.896  11.863 -0.2454  0.7272 -0.0916
 6451TIP3   OH240843   5.465   2.812   5.383  1.1504 -0.3873 -0.1324
 6451TIP3    H140844   5.467   2.902   5.415 -0.4224 -0.2865 -0.2250
 6451TIP3    H240845   5.445   2.759   5.460 -0.7127 -0.3398 -0.5350
 6452TIP3   OH240846   3.282   2.553   4.529 -0.4678 -0.3369 -0.0008
 6452TIP3    H140847   3.271   2.521   4.618  0.3443  0.5496  0.4366
 6452TIP3    H240848   3.377   2.556   4.516 -0.5801 -0.5581 -0.9354
 6453TIP3   OH240849   1.987   1.805  16.221  0.5011 -0.0952  0.3187
 6453TIP3    H140850   2.012   1.848  16.303  0.8860 -1.3925  0.9196
 6453TIP3    H240851   1.913   1.748  16.246  0.2236 -0.0426 -0.3710
 6454TIP3   OH240852   5.257   1.411  11.461  0.4094 -0.8940 -0.3086
 6454TIP3    H140853   5.207   1.413  11.543  0.8912 -1.3808  0.0020
 6454TIP3    H240854   5.296   1.324  11.458  0.4821 -0.8432 -1.0075
 6455TIP3   OH240855   0.729   2.186  10.861 -0.3935 -0.0326  0.5519
 6455TIP3    H140856   0.681   2.268  10.875 -1.0482  0.1205 -2.0608
 6455TIP3    H240857   0.749   2.186  10.768 -0.9611 -3.1490  0.3495
 6456TIP3   OH240858   3.968   2.361  11.324 -0.4180 -0.2427  0.2279
 6456TIP3    H140859   3.998   2.364  11.414  1.2518  2.6114 -0.3100
 6456TIP3    H240860   4.024   2.295  11.282  1.0420  0.6825  0.6309
 6457TIP3   OH240861   1.434   1.056   5.897  0.3717 -0.0607 -0.2949
 6457TIP3    H140862   1.397   1.130   5.849  0.2881 -0.3203 -0.6337
 6457TIP3    H240863   1.431   1.083   5.989 -0.3464  0.0523 -0.3483
 6458TIP3   OH240864   2.758   2.364   4.879 -0.1507 -0.3786  0.0156
 6458TIP3    H140865   2.760   2.448   4.832 -0.1361 -1.4091 -1.9502
 6458TIP3    H240866   2.843   2.324   4.861 -0.9913 -1.7910 -1.0684
 6459TIP3   OH240867   1.658   0.611  13.987  0.4840  0.0229 -0.1650
 6459TIP3    H140868   1.661   0.695  14.033  1.5821 -0.7428  1.2006
 6459TIP3    H240869   1.572   0.612  13.944  0.0064  1.3749  0.7226
 6460TIP3   OH240870   2.086   2.445  12.960  0.0446 -0.1857 -0.1286
 6460TIP3    H140871   2.104   2.403  13.044 -0.0474 -0.0410 -0.0369
 6460TIP3    H240872   2.020   2.389  12.919  1.3972 -1.2822 -0.8966
 6461TIP3   OH240873   4.704   3.174   2.746  0.0101  0.1398 -0.3120
 6461TIP3    H140874   4.707   3.082   2.717 -0.8594 -0.0352  0.1120
 6461TIP3    H240875   4.795   3.197   2.762  0.4401 -0.0215 -2.3217
 6462TIP3   OH240876   0.853   4.928  16.369  0.4416  0.1513  0.2079
 6462TIP3    H140877   0.914   4.860  16.399  0.4907  0.2185  0.2629
 6462TIP3    H240878   0.905   5.008  16.370  1.1558 -0.1870 -2.3576
 6463TIP3   OH240879   0.398   0.698   4.328 -0.6986  0.1574 -0.2603
 6463TIP3    H140880   0.338   0.772   4.337 -0.2266  0.9312 -2.5982
 6463TIP3    H240881   0.485   0.738   4.319 -0.4611 -0.6021 -1.7883
 6464TIP3   OH240882   2.906   0.169  12.455  0.1126 -0.1468 -0.0451
 6464TIP3    H140883   2.927   0.215  12.375  0.2346 -1.4260 -0.7753
 6464TIP3    H240884   2.815   0.191  12.473  0.1135  0.2133 -0.4853
 6465TIP3   OH240885   6.373   4.911   4.896  0.4358  0.3848  0.0823
 6465TIP3    H140886   6.354   4.841   4.958  2.3417 -1.3393 -1.1635
 6465TIP3    H240887   6.452   4.953   4.930 -0.0311  1.1867  0.2008
 6466TIP3   OH240888   2.558   1.000  11.724  0.2308 -0.2196 -0.2015
 6466TIP3    H140889   2.601   0.946  11.658 -0.3706 -0.9149 -0.0342
 6466TIP3    H240890   2.613   0.990  11.802 -0.5590 -1.6459  0.2113
 6467TIP3   OH240891   5.711   4.993   5.975 -0.3579  0.4331  0.2439
 6467TIP3    H140892   5.702   5.053   5.902  1.4514  0.5614  0.0787
 6467TIP3    H240893   5.716   4.906   5.935 -1.1942  0.3237  0.3591
 6468TIP3   OH240894   5.428   4.764   2.339  0.3617  0.2535 -0.6603
 6468TIP3    H140895   5.444   4.849   2.379 -1.4765  0.5236 -0.4123
 6468TIP3    H240896   5.444   4.701   2.409 -3.1955  0.7355  0.7996
 6469TIP3   OH240897   4.458   0.777   4.009 -1.1788  0.0032  0.3884
 6469TIP3    H140898   4.387   0.754   3.949  0.8837 -1.6295 -1.5574
 6469TIP3    H240899   4.504   0.848   3.966 -0.2788 -0.4961  0.5133
 6470TIP3   OH240900   6.712   1.157  14.977  0.3601  0.1207 -0.3531
 6470TIP3    H140901   6.722   1.228  14.913  2.5443  1.1386  1.0189
 6470TIP3    H240902   6.802   1.133  15.001 -0.3484  0.6092  3.2107
 6471TIP3   OH240903   5.359   3.393   1.592 -0.4024  0.3592  0.6394
 6471TIP3    H140904   5.297   3.341   1.644 -0.2390  1.4195  1.9584
 6471TIP3    H240905   5.314   3.477   1.579 -0.1072  0.3816 -0.2513
 6472TIP3   OH240906   1.087   5.592  14.507 -0.3298 -0.3020 -0.1401
 6472TIP3    H140907   0.993   5.604  14.502 -0.4698 -0.4336  1.6352
 6472TIP3    H240908   1.111   5.624  14.594  1.1855 -0.7256 -0.3666
 6473TIP3   OH240909   1.908   5.942   4.076  0.1348 -0.5062  0.0197
 6473TIP3    H140910   1.913   5.958   3.982  0.1564 -1.7144 -0.2092
 6473TIP3    H240911   1.866   5.856   4.083  1.3087 -1.0265  1.0647
 6474TIP3   OH240912   0.262   1.423   5.900 -0.1714 -0.3482  0.5819
 6474TIP3    H140913   0.239   1.409   5.809 -0.4833  1.7418  0.2880
 6474TIP3    H240914   0.315   1.346   5.924  2.0016  0.1898 -2.0670
 6475TIP3   OH240915   0.950   6.762  11.632  0.0704 -0.2625 -0.8041
 6475TIP3    H140916   0.932   6.748  11.539  2.0115  0.0299 -1.2589
 6475TIP3    H240917   1.023   6.704  11.652  0.0187  0.0690  0.4031
 6476TIP3   OH240918   0.656   6.545   0.810  0.3680 -0.4098 -0.0074
 6476TIP3    H140919   0.714   6.484   0.765  0.4955  0.2063 -0.7004
 6476TIP3    H240920   0.649   6.511   0.899  1.5204 -0.6820 -0.0064
 6477TIP3   OH240921   0.789   1.284  14.829 -0.1620 -0.4660  0.4145
 6477TIP3    H140922   0.713   1.336  14.802  0.6553  0.3021 -0.4566
 6477TIP3    H240923   0.751   1.208  14.874 -1.3489  1.6732  3.3192
 6478TIP3   OH240924   5.112   5.840   2.609  0.0398 -0.6506  0.2250
 6478TIP3    H140925   5.191   5.800   2.644  1.0133  0.0363 -1.0738
 6478TIP3    H240926   5.043   5.817   2.671  1.0984 -1.9363  0.9668
 6479TIP3   OH240927   0.886   3.369  12.707  0.8770 -0.2760 -0.3459
 6479TIP3    H140928   0.906   3.291  12.655 -0.4340  0.1347 -1.5461
 6479TIP3    H240929   0.796   3.355  12.737  0.6951  0.6790 -0.4042
 6480TIP3   OH240930   3.782   5.553   5.521  0.0600  0.4428 -0.2473
 6480TIP3    H140931   3.690   5.577   5.525 -0.3729 -1.2278  0.6052
 6480TIP3    H240932   3.790   5.477   5.578  2.1491  1.0573  0.3899
 6481TIP3   OH240933   0.921   1.775  12.292 -0.4814  0.0475 -0.3238
 6481TIP3    H140934   0.833   1.738  12.291  0.3402 -2.0112  0.0287
 6481TIP3    H240935   0.951   1.765  12.382  0.9913 -1.5013 -0.9530
 6482TIP3   OH240936   4.918   6.088   1.645 -0.0871  0.1593  0.2723
 6482TIP3    H140937   4.952   6.000   1.627 -0.5472 -0.0412  0.3829
 6482TIP3    H240938   4.932   6.100   1.739 -0.3622  0.0558  0.3284
 6483TIP3   OH240939   1.979   5.604   4.027 -0.8326  0.1143  0.6057
 6483TIP3    H140940   2.052   5.657   3.994 -0.6458 -1.1819 -1.2247
 6483TIP3    H240941   2.019   5.546   4.091  0.2285 -1.8610 -1.6902
 6484TIP3   OH240942   0.106   6.415  11.660 -0.0938 -0.4459 -0.5378
 6484TIP3    H140943   0.084   6.322  11.651 -0.4945 -0.4797  0.6829
 6484TIP3    H240944   0.026   6.455  11.694  1.2926 -0.3906  3.1022
 6485TIP3   OH240945   0.492   3.097  15.892  0.2150  0.4007 -0.1930
 6485TIP3    H140946   0.508   3.008  15.862  0.3632  1.1841 -2.6489
 6485TIP3    H240947   0.573   3.122  15.937  0.4624 -0.4560 -0.1495
 6486TIP3   OH240948   5.194   4.411  15.713 -0.3036  0.3184 -0.4730
 6486TIP3    H140949   5.099   4.408  15.721 -0.1252 -1.5777  3.3441
 6486TIP3    H240950   5.220   4.319  15.713  1.5609  0.6687  2.9594
 6487TIP3   OH240951   5.623   3.871  15.463  0.0272  0.0768  0.6313
 6487TIP3    H140952   5.636   3.956  15.421 -0.6979 -0.3416 -0.4700
 6487TIP3    H240953   5.544   3.836  15.422 -1.6438  0.3103  3.3935
 6488TIP3   OH240954   2.027   2.573  16.370  0.2289  0.5667  0.2511
 6488TIP3    H140955   1.954   2.635  16.375 -0.3654  0.1653 -2.0065
 6488TIP3    H240956   1.995   2.495  16.416 -0.2630  0.8514  0.3945
 6489TIP3   OH240957   4.129   4.695   0.932 -0.1565 -0.1298 -0.8950
 6489TIP3    H140958   4.074   4.749   0.876 -0.2957 -1.3913 -2.0438
 6489TIP3    H240959   4.089   4.608   0.929  0.7895 -0.6142 -0.1951
 6490TIP3   OH240960   4.622   5.043  15.354  0.1228  0.1079  0.1644
 6490TIP3    H140961   4.661   5.128  15.338  2.0225 -1.0064 -1.6126
 6490TIP3    H240962   4.535   5.063  15.388  0.6214  2.7231  0.1344
 6491TIP3   OH240963   4.940   1.824  15.228  0.4122 -0.0951 -0.4526
 6491TIP3    H140964   5.012   1.762  15.238  1.6760  1.4098  0.0948
 6491TIP3    H240965   4.912   1.843  15.318  1.4171  1.6399 -0.4533
 6492TIP3   OH240966   3.466   1.608  12.261  0.0099 -0.0090 -0.0834
 6492TIP3    H140967   3.518   1.560  12.326 -1.7694  0.2959  1.6533
 6492TIP3    H240968   3.400   1.545  12.232 -0.2573  0.3887 -0.3355
 6493TIP3   OH240969   0.849   0.931  13.890  0.4423  0.1810 -0.2352
 6493TIP3    H140970   0.809   0.953  13.806  2.0673  0.0431 -1.0721
 6493TIP3    H240971   0.837   0.837  13.898 -0.6486  0.3368  0.2216
 6494TIP3   OH240972   4.322   4.737  15.772  0.1521 -0.5619 -0.0955
 6494TIP3    H140973   4.369   4.665  15.814 -0.2459 -0.2807  0.8485
 6494TIP3    H240974   4.263   4.771  15.839  0.8489  1.1231 -0.2640
 6495TIP3   OH240975   6.009   6.482  11.439  0.9090  0.1363  0.1091
 6495TIP3    H140976   6.058   6.540  11.498 -1.1686  0.1378  1.9750
 6495TIP3    H240977   5.923   6.474  11.479 -0.2158 -0.9567 -2.3008
 6496TIP3   OH240978   6.189   0.665   2.206 -0.2683 -0.8299 -0.5286
 6496TIP3    H140979   6.207   0.714   2.286  1.9469  0.7376 -1.8533
 6496TIP3    H240980   6.094   0.666   2.198 -0.4219  1.2704  0.7491
 6497TIP3   OH240981   6.136   5.977  11.000 -0.5078 -0.2180  0.2549
 6497TIP3    H140982   6.146   6.072  11.001  1.3916 -0.3309  3.0977
 6497TIP3    H240983   6.217   5.944  11.040 -2.0119 -2.9155  1.3327
 6498TIP3   OH240984   3.379   0.269   4.664 -0.3261  0.3493 -0.3121
 6498TIP3    H140985   3.322   0.195   4.643 -0.6435 -0.4466  2.8604
 6498TIP3    H240986   3.467   0.233   4.662 -0.3656  0.2468 -0.2307
 6499TIP3   OH240987   4.334   5.374   3.201  0.1469 -0.0139  0.3516
 6499TIP3    H140988   4.345   5.332   3.116  0.5660 -1.3828  1.0519
 6499TIP3    H240989   4.253   5.424   3.193  0.1964 -0.1142 -0.8599
 6500TIP3   OH240990   1.166   0.508   0.984  0.5833  0.4559  0.2875
 6500TIP3    H140991   1.241   0.449   0.983  0.1558 -0.1312 -2.0008
 6500TIP3    H240992   1.091   0.451   1.002  0.6419  1.0826  2.8798
 6501TIP3   OH240993   3.266   5.156   3.488 -0.5366  0.2083 -0.3340
 6501TIP3    H140994   3.194   5.162   3.425 -1.1626  0.5816  0.4053
 6501TIP3    H240995   3.301   5.067   3.477  0.3141  0.7166 -2.2159
 6502TIP3   OH240996   3.560   0.036  13.601 -0.1843  0.9990  0.4553
 6502TIP3    H140997   3.604   0.117  13.575 -0.1821  1.1805  1.0238
 6502TIP3    H240998   3.602  -0.031  13.548 -0.4334  1.4176 -0.2879
 6503TIP3   OH240999   6.460   2.462   3.891 -0.5926  0.0076  0.4788
 6503TIP3    H141000   6.454   2.529   3.823 -0.8288 -0.0379  0.4529
 6503TIP3    H241001   6.373   2.462   3.931 -0.6455 -0.4046  0.3624
 6504TIP3   OH241002   1.670   0.507   2.041 -0.0169  0.4761  0.0167
 6504TIP3    H141003   1.753   0.544   2.010  2.3502 -2.6007  2.0015
 6504TIP3    H241004   1.643   0.446   1.973  0.7180 -0.2860  0.3918
 6505TIP3   OH241005   0.573   6.415   5.260 -0.4704 -0.1074  0.3631
 6505TIP3    H141006   0.599   6.507   5.254 -0.5981 -0.0250  1.0374
 6505TIP3    H241007   0.563   6.388   5.169 -2.7900  1.2254  0.1455
 6506TIP3   OH241008   5.588   0.968  16.025 -0.6815  0.0379  0.0990
 6506TIP3    H141009   5.595   1.058  15.993 -1.2770  1.2710  3.1070
 6506TIP3    H241010   5.499   0.941  16.004 -1.2299  1.0082  1.0993
 6507TIP3   OH241011   5.824   5.376   5.530  0.2817  0.2943 -0.5611
 6507TIP3    H141012   5.915   5.360   5.551 -0.3602 -0.7745  1.7322
 6507TIP3    H241013   5.798   5.301   5.476  0.2044 -0.6088  0.6974
 6508TIP3   OH241014   3.799   4.136  17.184 -0.2408 -0.1620 -0.2088
 6508TIP3    H141015   3.735   4.167  17.248  3.3260  1.4502  2.9392
 6508TIP3    H241016   3.810   4.043  17.204  0.4988  0.2248  1.3260
 6509TIP3   OH241017   0.642   4.054   6.846 -0.0748  0.5254  0.6110
 6509TIP3    H141018   0.702   4.122   6.815 -1.1252 -0.3491 -4.0504
 6509TIP3    H241019   0.556   4.083   6.817 -1.1266 -0.9753  2.0703
 6510TIP3   OH241020   2.652   0.470   5.784 -0.2689 -0.5893  0.0794
 6510TIP3    H141021   2.614   0.457   5.697 -1.6110  0.0282  0.5589
 6510TIP3    H241022   2.719   0.537   5.771 -1.4508  0.5505 -0.2202
 6511TIP3   OH241023   2.207   4.922   2.961 -0.3734  0.3846  0.4282
 6511TIP3    H141024   2.238   4.840   2.923 -0.0617  1.7537 -2.5536
 6511TIP3    H241025   2.270   4.988   2.931 -1.6273  2.0006  1.1775
 6512TIP3   OH241026   4.049   4.154   5.462  0.0916 -0.4776  0.3268
 6512TIP3    H141027   4.086   4.241   5.446 -2.4182  0.4348 -1.1956
 6512TIP3    H241028   4.068   4.105   5.381  1.0460 -1.2149  0.9758
 6513TIP3   OH241029   2.965   0.647  12.540 -0.5642  0.4098 -0.1988
 6513TIP3    H141030   2.940   0.737  12.561 -0.6802 -0.0868  1.9766
 6513TIP3    H241031   3.048   0.655  12.494 -1.7870  1.7399 -2.3682
 6514TIP3   OH241032   4.485   6.733  12.707  0.5744 -0.1186 -0.2576
 6514TIP3    H141033   4.527   6.778  12.781 -0.5225  0.0582  0.2742
 6514TIP3    H241034   4.529   6.769  12.629  0.5704  0.9699  0.2275
 6515TIP3   OH241035   5.113   4.447   2.694  0.3120  0.1510  0.6039
 6515TIP3    H141036   5.047   4.413   2.634 -0.0370  0.4840  0.7908
 6515TIP3    H241037   5.167   4.505   2.640  0.0521  0.3822  0.5886
 6516TIP3   OH241038   4.045   5.151  16.919  0.0977 -0.2421  0.3136
 6516TIP3    H141039   3.969   5.184  16.968 -0.3690 -0.0121 -0.5549
 6516TIP3    H241040   4.105   5.226  16.916 -1.7782  1.3867 -3.3892
 6517TIP3   OH241041   1.019   2.795  13.582 -0.8466  0.3612  0.2566
 6517TIP3    H141042   1.089   2.848  13.544  1.0440 -1.0097  1.6623
 6517TIP3    H241043   0.940   2.849  13.571  0.7317  2.8684  0.4127
 6518TIP3   OH241044   0.701   4.953  11.339  0.1487 -0.6095 -0.2957
 6518TIP3    H141045   0.679   5.037  11.378 -0.4979 -0.2231 -1.4471
 6518TIP3    H241046   0.639   4.891  11.379  1.7216 -0.9354  1.8515
 6519TIP3   OH241047   6.218   3.209  12.818 -0.3406  0.2521  0.0110
 6519TIP3    H141048   6.166   3.200  12.897 -2.3024  0.4097 -1.1876
 6519TIP3    H241049   6.154   3.232  12.750  1.6139  2.9785 -1.0833
 6520TIP3   OH241050   6.520   2.492   0.885  0.2712  1.0219  0.1182
 6520TIP3    H141051   6.507   2.570   0.939 -0.6177 -0.4639  2.1668
 6520TIP3    H241052   6.615   2.479   0.885  0.4493  2.2233 -0.4526
 6521TIP3   OH241053   3.910   5.558   2.541  0.4683  0.5616 -0.3687
 6521TIP3    H141054   3.850   5.585   2.471 -0.2281  0.4328  0.1609
 6521TIP3    H241055   3.945   5.474   2.510  0.7388  0.8646 -0.8961
 6522TIP3   OH241056   4.362   2.140   3.228 -0.6229  0.5292 -0.2392
 6522TIP3    H141057   4.307   2.063   3.247  0.5594 -0.0450  1.0776
 6522TIP3    H241058   4.376   2.137   3.133  1.8941 -2.7446  0.0333
 6523TIP3   OH241059   3.931   4.986   5.738  0.2932 -0.2787  0.1746
 6523TIP3    H141060   3.980   5.017   5.814  1.5561 -1.5968 -0.0744
 6523TIP3    H241061   3.972   4.903   5.714 -1.8478 -1.2882 -0.2585
 6524TIP3   OH241062   0.018   0.902  12.488 -0.1040 -0.8366  0.4751
 6524TIP3    H141063   0.091   0.962  12.502 -0.8701 -0.1119  1.5747
 6524TIP3    H241064  -0.006   0.872  12.576  0.2217 -2.7556 -0.0398
 6525TIP3   OH241065   2.337   2.016  12.228 -0.2593 -0.4565  0.0070
 6525TIP3    H141066   2.427   1.986  12.226 -0.1660 -0.2366  0.6335
 6525TIP3    H241067   2.309   2.004  12.319 -0.2235  1.2945  0.3003
 6526TIP3   OH241068   3.710   0.049  12.421  0.4670 -0.4684 -0.1974
 6526TIP3    H141069   3.666   0.088  12.497  0.7025 -1.2872  0.3740
 6526TIP3    H241070   3.803   0.060  12.439  0.5468  1.5552 -1.5585
 6527TIP3   OH241071   5.037   0.894   3.036  0.3296 -0.1005  0.5583
 6527TIP3    H141072   5.050   0.989   3.045 -0.4758  0.2298 -1.3186
 6527TIP3    H241073   5.001   0.867   3.121  0.8833  1.1944  1.2412
 6528TIP3   OH241074   4.113   2.435  12.079  0.5465 -0.2941 -0.1630
 6528TIP3    H141075   4.079   2.470  12.162  2.4983 -0.3138  0.6956
 6528TIP3    H241076   4.149   2.511  12.034 -0.6378 -0.2589 -1.1121
 6529TIP3   OH241077   4.164   6.050  16.479  0.5676 -0.4979 -0.3428
 6529TIP3    H141078   4.095   5.983  16.476 -1.1847  1.0703  1.7565
 6529TIP3    H241079   4.199   6.044  16.567  0.7593  0.9907 -0.2977
 6530TIP3   OH241080   0.636   5.193  13.475 -0.5009  0.2569 -0.1920
 6530TIP3    H141081   0.732   5.187  13.482 -0.3631  2.9877  2.5198
 6530TIP3    H241082   0.604   5.109  13.508  0.9771  0.1084  0.9586
 6531TIP3   OH241083   5.449   3.745  11.457  0.5468  0.1037  0.2988
 6531TIP3    H141084   5.427   3.713  11.545 -0.9851  1.1547  0.3327
 6531TIP3    H241085   5.381   3.809  11.437  1.8383  1.1461 -0.9677
 6532TIP3   OH241086   5.715   2.768  10.691  0.6841 -0.4173 -0.5464
 6532TIP3    H141087   5.698   2.761  10.785  3.9860  0.2901  0.2162
 6532TIP3    H241088   5.678   2.853  10.667 -0.4436 -0.7234 -0.0076
 6533TIP3   OH241089   5.425   3.460  11.362 -0.6343  0.2682  0.0233
 6533TIP3    H141090   5.403   3.538  11.414  0.2295  0.5209  0.0308
 6533TIP3    H241091   5.514   3.477  11.331 -0.7543 -0.3465 -0.6808
 6534TIP3   OH241092   2.883   6.757   1.913 -0.0487 -0.1031  0.2251
 6534TIP3    H141093   2.895   6.844   1.874  0.4813 -0.2467  0.0667
 6534TIP3    H241094   2.794   6.759   1.948 -0.4313  0.1284 -0.7319
 6535TIP3   OH241095   3.161   0.967   2.271 -0.1942  0.0053 -0.6390
 6535TIP3    H141096   3.242   1.013   2.248  0.7944 -1.2235  0.2825
 6535TIP3    H241097   3.164   0.959   2.366  0.4026 -3.1769 -0.8397
 6536TIP3   OH241098   5.124   5.334   5.825 -0.3095  0.5757  0.0622
 6536TIP3    H141099   5.074   5.329   5.907  0.4365  3.0856  0.7508
 6536TIP3    H241100   5.189   5.264   5.831 -0.7109  0.2947  1.2798
 6537TIP3   OH241101   1.203   5.860  15.537 -0.5627 -0.3988 -0.2815
 6537TIP3    H141102   1.197   5.950  15.504  2.5093  0.5830  1.4521
 6537TIP3    H241103   1.253   5.814  15.470  0.8524  0.1388  0.3710
 6538TIP3   OH241104   4.555   6.475  12.643 -0.0330 -0.9455 -0.0752
 6538TIP3    H141105   4.528   6.563  12.671  0.0813 -1.3046  1.2371
 6538TIP3    H241106   4.523   6.417  12.712  0.3671 -1.8756 -0.6543
 6539TIP3   OH241107   3.943   0.641   0.541  0.2006  0.3618 -0.0579
 6539TIP3    H141108   3.902   0.559   0.569 -0.0019  0.5313  0.1406
 6539TIP3    H241109   4.029   0.639   0.584  0.0311  0.4507  0.2879
 6540TIP3   OH241110   0.093   1.160   5.958 -0.0986 -0.1143  0.4343
 6540TIP3    H141111   0.098   1.065   5.953 -2.4116 -0.5548  3.5285
 6540TIP3    H241112   0.141   1.183   6.038 -0.9310  1.0856  0.6247
 6541TIP3   OH241113   5.599   4.692   5.054  0.2240  0.5596 -0.1003
 6541TIP3    H141114   5.509   4.707   5.081 -0.1148  0.5845 -1.1892
 6541TIP3    H241115   5.635   4.633   5.120 -1.3265 -1.4087 -0.9354
 6542TIP3   OH241116   4.587   5.808   2.947 -0.1451  0.4514  0.0455
 6542TIP3    H141117   4.649   5.832   3.016  0.8545 -0.9815 -0.3058
 6542TIP3    H241118   4.628   5.733   2.903 -0.6047  1.4941 -2.2954
 6543TIP3   OH241119   4.567   2.634  12.811  0.3932 -0.3237  0.2905
 6543TIP3    H141120   4.554   2.540  12.825 -0.1166 -0.0732  1.7350
 6543TIP3    H241121   4.478   2.670  12.808  0.5922  0.1996  0.4957
 6544TIP3   OH241122   0.191   1.296   4.025  0.4643 -0.9086  0.2088
 6544TIP3    H141123   0.104   1.256   4.027  0.5850 -1.1333  1.0620
 6544TIP3    H241124   0.240   1.252   4.094 -0.0959  2.2958  2.8752
 6545TIP3   OH241125   5.041   0.786  12.940  0.3480 -0.4010 -0.2709
 6545TIP3    H141126   5.009   0.738  13.017 -0.2890 -1.6025 -1.2516
 6545TIP3    H241127   5.116   0.735  12.910  0.9029  0.3409 -0.1765
 6546TIP3   OH241128   3.587   3.543   6.254 -0.3790 -0.2619  0.5841
 6546TIP3    H141129   3.635   3.625   6.252 -1.3855  0.3356 -0.0303
 6546TIP3    H241130   3.642   3.481   6.206  0.5001 -0.0260  1.2607
 6547TIP3   OH241131   0.147   4.970  11.874 -0.1159 -0.3597  0.0066
 6547TIP3    H141132   0.211   4.922  11.821 -1.2445 -3.4397  1.1991
 6547TIP3    H241133   0.197   5.000  11.950 -0.1062 -3.4867  1.3622
 6548TIP3   OH241134   4.593   3.051   4.818 -0.3121 -0.0515  0.5679
 6548TIP3    H141135   4.524   3.100   4.864 -0.0824  0.6329  0.1978
 6548TIP3    H241136   4.667   3.111   4.816 -0.2529 -0.1471 -0.5073
 6549TIP3   OH241137   4.095   0.062   0.231 -0.0096 -1.0422 -0.1164
 6549TIP3    H141138   4.154   0.015   0.289  1.8861  1.7016  0.3843
 6549TIP3    H241139   4.153   0.105   0.168 -1.1642  2.9146  1.2094
 6550TIP3   OH241140   2.407   4.711  10.691  1.1086 -0.0602 -0.3264
 6550TIP3    H141141   2.501   4.723  10.705  0.5949  2.8219  1.4484
 6550TIP3    H241142   2.365   4.763  10.760 -1.7950  2.0677 -3.3452
 6551TIP3   OH241143   0.444   2.024  14.827  0.9189 -0.3123  0.4459
 6551TIP3    H141144   0.478   1.985  14.746  0.5119 -2.2051  1.1254
 6551TIP3    H241145   0.355   1.990  14.834 -0.2949  2.5230  0.0182
 6552TIP3   OH241146   2.254   6.104   4.516 -0.1396 -0.0175 -0.0976
 6552TIP3    H141147   2.227   6.148   4.597  1.3484 -0.8240  0.8769
 6552TIP3    H241148   2.287   6.019   4.544 -0.6260 -0.7887 -1.6954
 6553TIP3   OH241149   1.845   0.792  11.336  0.1731 -0.2744  0.4856
 6553TIP3    H141150   1.902   0.747  11.399  0.5337 -0.9057 -0.2759
 6553TIP3    H241151   1.836   0.731  11.264 -0.5830  0.2733  0.0961
 6554TIP3   OH241152   2.439   5.259   1.594  0.2017 -0.4145 -0.0098
 6554TIP3    H141153   2.480   5.330   1.642  0.3435 -0.2441 -0.3847
 6554TIP3    H241154   2.444   5.285   1.502 -1.9015  0.2396  0.0050
 6555TIP3   OH241155   3.224   4.533  12.932  0.1981 -0.6023  0.3480
 6555TIP3    H141156   3.134   4.532  12.964  0.0314 -0.8598 -0.1030
 6555TIP3    H241157   3.233   4.618  12.888  1.1671  0.7748  3.0383
 6556TIP3   OH241158   3.025   5.490  14.945 -0.1007  0.1130  0.0258
 6556TIP3    H141159   3.087   5.418  14.929 -0.5207 -0.4021  0.6917
 6556TIP3    H241160   3.075   5.552  14.997  0.2099  0.2347 -0.4050
 6557TIP3   OH241161   2.447   0.039   5.589 -0.2688 -0.2378 -0.7255
 6557TIP3    H141162   2.360   0.004   5.609 -0.1149 -0.2618 -0.0634
 6557TIP3    H241163   2.507  -0.032   5.614 -0.0204  0.0621 -0.4627
 6558TIP3   OH241164   4.613   5.769  14.347  0.4079  0.4080 -0.2086
 6558TIP3    H141165   4.542   5.717  14.384  0.4934 -0.0393 -0.6561
 6558TIP3    H241166   4.691   5.739  14.395  0.6465 -0.7438 -1.2583
 6559TIP3   OH241167   0.009   3.726  15.969  0.0855  0.2377  0.1228
 6559TIP3    H141168   0.049   3.640  15.979  0.4519  0.5808  1.9604
 6559TIP3    H241169  -0.068   3.724  16.026  0.6869  1.4460  1.0357
 6560TIP3   OH241170   1.579   2.639  13.458  0.0053  0.3980 -0.1603
 6560TIP3    H141171   1.583   2.598  13.544 -2.9652 -1.0551 -0.5987
 6560TIP3    H241172   1.531   2.720  13.472  0.1457  0.5151 -0.3512
 6561TIP3   OH241173   2.991   5.413  15.775 -0.3489  0.1153  0.0775
 6561TIP3    H141174   3.071   5.452  15.809 -0.6469 -0.4564  1.4990
 6561TIP3    H241175   2.926   5.484  15.780 -0.3118  0.1264  0.3903
 6562TIP3   OH241176   2.808   1.792  11.774 -0.1520 -0.3366 -0.5464
 6562TIP3    H141177   2.878   1.767  11.835  0.4610  0.7726 -0.7677
 6562TIP3    H241178   2.735   1.734  11.796  0.2448 -0.3323  0.8683
 6563TIP3   OH241179   3.151   5.021  11.862  0.5514  0.4716 -0.4248
 6563TIP3    H141180   3.066   5.050  11.828  1.0793  0.6147 -1.6630
 6563TIP3    H241181   3.157   4.929  11.836  1.2334  0.7517 -1.3023
 6564TIP3   OH241182   2.663   5.779  11.725  0.2712 -0.3216 -0.1160
 6564TIP3    H141183   2.722   5.840  11.769 -1.8678  1.1274  0.8867
 6564TIP3    H241184   2.616   5.736  11.796 -0.2456 -1.0683 -0.8992
 6565TIP3   OH241185   3.216   1.499  13.653  0.1442  0.0955 -0.8871
 6565TIP3    H141186   3.309   1.503  13.675 -0.3814 -0.5857  1.8220
 6565TIP3    H241187   3.198   1.405  13.648 -0.2656  0.2288 -2.2251
 6566TIP3   OH241188   4.510   2.963  13.645  0.3203  0.0729 -0.4258
 6566TIP3    H141189   4.443   2.986  13.709  2.3361 -0.1781  1.8949
 6566TIP3    H241190   4.513   3.039  13.586 -2.0479  0.0133 -0.6890
 6567TIP3   OH241191   0.195   6.552   3.857 -0.0001 -0.4026 -0.2028
 6567TIP3    H141192   0.213   6.641   3.829 -0.0232 -0.2099  0.3786
 6567TIP3    H241193   0.128   6.561   3.925 -0.5343 -0.9218 -0.6506
 6568TIP3   OH241194   6.276   2.737  13.394 -0.0851 -0.1765 -0.0962
 6568TIP3    H141195   6.224   2.657  13.402 -0.9736  0.3662 -0.3569
 6568TIP3    H241196   6.253   2.789  13.471  1.6439 -0.7953  0.9006
 6569TIP3   OH241197   4.774   4.146  11.568  0.5007 -0.4160 -0.0219
 6569TIP3    H141198   4.854   4.093  11.565  0.9863  0.3447 -1.1848
 6569TIP3    H241199   4.789   4.216  11.505 -1.6999 -1.0977 -1.4147
 6570TIP3   OH241200   3.054   4.059  15.444 -0.0983  0.5858 -0.1318
 6570TIP3    H141201   3.146   4.053  15.417  0.3252  2.1027  0.8384
 6570TIP3    H241202   3.053   4.131  15.507 -1.7815 -0.0912  0.6648
 6571TIP3   OH241203   0.640   1.729   4.328 -0.4144  0.0133  0.4972
 6571TIP3    H141204   0.708   1.742   4.395 -0.3270  0.2243  0.3689
 6571TIP3    H241205   0.688   1.729   4.245 -0.6882  1.2679  0.3190
 6572TIP3   OH241206   1.633   2.954  15.973 -0.1237  0.4617 -0.7199
 6572TIP3    H141207   1.598   3.038  15.943  2.1722  2.1235  0.9374
 6572TIP3    H241208   1.704   2.934  15.912 -1.8548 -1.4007 -2.2950
 6573TIP3   OH241209   6.488   3.430   1.901 -0.5138 -0.4593 -0.0360
 6573TIP3    H141210   6.513   3.366   1.969 -0.6426  0.3993  0.8443
 6573TIP3    H241211   6.397   3.408   1.880 -0.5777 -0.5287  0.3069
 6574TIP3   OH241212   6.561   0.525   2.178 -0.1912 -0.5717 -0.1171
 6574TIP3    H141213   6.473   0.503   2.146  0.0655 -0.8402 -0.6382
 6574TIP3    H241214   6.549   0.533   2.273 -0.7863 -0.5773 -0.1841
 6575TIP3   OH241215   4.149   2.536   4.195 -0.0208  0.5224 -0.4130
 6575TIP3    H141216   4.208   2.520   4.268  0.7209  0.7874 -0.9413
 6575TIP3    H241217   4.073   2.579   4.234  0.2379  0.4014  0.2357
 6576TIP3   OH241218   1.310   1.618   3.955  0.3089 -0.1087 -0.2126
 6576TIP3    H141219   1.225   1.574   3.957  0.6693 -0.8576 -0.9005
 6576TIP3    H241220   1.318   1.658   4.042  0.5783 -2.5925  1.0013
 6577TIP3   OH241221   1.396   4.511   3.748  0.0525 -0.7850 -0.2090
 6577TIP3    H141222   1.425   4.588   3.797 -1.3810  0.1398 -0.7451
 6577TIP3    H241223   1.474   4.482   3.701  0.7044  0.1240  0.2823
 6578TIP3   OH241224   3.019   4.354  16.719  0.4521 -0.2944 -0.4115
 6578TIP3    H141225   3.069   4.302  16.657  1.7259  0.6126 -0.1917
 6578TIP3    H241226   2.957   4.404  16.665  0.5964 -0.5411 -0.8049
 6579TIP3   OH241227   0.651   0.071  10.548  0.8924  0.6985  0.3844
 6579TIP3    H141228   0.721   0.029  10.597  1.0167 -0.5338 -0.7789
 6579TIP3    H241229   0.603   0.122  10.613  0.4630 -1.6320  2.0021
 6580TIP3   OH241230   3.618   5.378   3.920 -0.5176  0.0566  0.1283
 6580TIP3    H141231   3.667   5.456   3.894  0.6643 -1.0768 -1.1510
 6580TIP3    H241232   3.534   5.387   3.875  0.2781 -0.2467 -1.5022
 6581TIP3   OH241233   0.668   4.051  15.095  0.0665 -0.1125  0.4517
 6581TIP3    H141234   0.651   3.969  15.141 -0.6090 -0.1147  0.2078
 6581TIP3    H241235   0.753   4.038  15.053 -0.5219 -1.0842 -0.4699
 6582TIP3   OH241236   2.833   5.698  11.245  0.2852  0.1250  0.5203
 6582TIP3    H141237   2.906   5.652  11.286 -0.7393 -0.2435  2.0253
 6582TIP3    H241238   2.755   5.652  11.276 -0.6705  1.5569  0.3676
 6583TIP3   OH241239   5.016   3.547  11.851 -0.4543 -0.0830  0.0405
 6583TIP3    H141240   5.005   3.502  11.767 -1.4103  0.0426  0.0881
 6583TIP3    H241241   5.104   3.522  11.879 -0.5918 -1.1436 -0.3966
 6584TIP3   OH241242   6.532   5.437   3.288  0.2408 -0.2292  0.2477
 6584TIP3    H141243   6.620   5.402   3.275  0.4352 -0.4428  1.9584
 6584TIP3    H241244   6.477   5.385   3.229  0.9123 -1.7364  0.8905
 6585TIP3   OH241245   6.708   6.461  13.942 -0.2462  0.0842 -0.4970
 6585TIP3    H141246   6.767   6.385  13.944 -0.7217 -0.2907 -0.4238
 6585TIP3    H241247   6.718   6.497  13.854  1.4269  1.1088  0.0517
 6586TIP3   OH241248   4.445   4.589   5.845  0.3323 -0.1720 -0.1417
 6586TIP3    H141249   4.517   4.604   5.783 -1.0372  0.3299 -1.6995
 6586TIP3    H241250   4.404   4.508   5.815  0.3478 -0.5416  0.8258
 6587TIP3   OH241251   0.240   0.130  15.739  0.3842 -0.0198  0.0410
 6587TIP3    H141252   0.198   0.082  15.667 -1.7266 -1.1360  1.9161
 6587TIP3    H241253   0.317   0.170  15.698 -1.0110 -0.0888 -2.9739
 6588TIP3   OH241254   3.300   2.716  15.108 -0.1533  0.4934 -0.0835
 6588TIP3    H141255   3.262   2.662  15.177  0.5760  1.2548  0.9427
 6588TIP3    H241256   3.278   2.806  15.132  0.5775  0.8085 -0.5309
 6589TIP3   OH241257   4.817   2.263   3.435 -0.5363 -0.7437 -0.2167
 6589TIP3    H141258   4.877   2.317   3.384  0.7564 -1.1824  0.7763
 6589TIP3    H241259   4.748   2.238   3.374 -0.7306  1.3386 -0.8957
 6590TIP3   OH241260   1.025   3.361   1.812  0.4078 -0.4954  0.0611
 6590TIP3    H141261   1.076   3.304   1.869 -1.5463 -1.5362  0.8687
 6590TIP3    H241262   1.005   3.438   1.866  0.0965 -0.6617  0.1907
 6591TIP3   OH241263   0.619   5.209   2.533  0.2097 -0.1636  0.1097
 6591TIP3    H141264   0.670   5.182   2.609  1.3002  0.5711 -0.3406
 6591TIP3    H241265   0.656   5.293   2.508 -1.9371  0.9574  0.4207
 6592TIP3   OH241266   4.735   2.462   2.172  0.7651  0.4191 -0.0042
 6592TIP3    H141267   4.717   2.411   2.093 -0.5144  0.8411 -0.0104
 6592TIP3    H241268   4.811   2.420   2.212 -0.1513 -1.3945 -0.0838
 6593TIP3   OH241269   3.549   3.588  11.434  0.3803  0.3981  0.1102
 6593TIP3    H141270   3.629   3.612  11.481  2.7675 -1.1086 -2.8062
 6593TIP3    H241271   3.548   3.492  11.437 -1.8729  0.3925  0.8077
 6594TIP3   OH241272   4.338   2.144   0.390  0.0147  0.0611  0.1365
 6594TIP3    H141273   4.277   2.071   0.381  0.1972 -0.2712  1.4685
 6594TIP3    H241274   4.397   2.135   0.315 -1.3310  0.1789 -0.9643
 6595TIP3   OH241275   3.878   2.931  16.476  0.2704 -0.1303  0.1725
 6595TIP3    H141276   3.899   2.999  16.540  1.4497 -0.4942  0.2069
 6595TIP3    H241277   3.956   2.876  16.474 -0.1773 -0.7537 -0.7837
 6596TIP3   OH241278   1.481   3.532  13.885 -0.2339  0.2197  0.1499
 6596TIP3    H141279   1.531   3.601  13.841  1.5783 -0.9995  0.2121
 6596TIP3    H241280   1.391   3.545  13.854  0.6274  0.5958 -2.4579
 6597TIP3   OH241281   0.414   6.004   4.247  0.2316 -0.2069 -0.2210
 6597TIP3    H141282   0.506   5.996   4.220  0.1281  1.1485 -1.0694
 6597TIP3    H241283   0.392   6.096   4.230 -1.2303 -0.4665  0.1544
 6598TIP3   OH241284   4.453   1.534   4.520 -0.3071 -0.0908  0.4740
 6598TIP3    H141285   4.474   1.627   4.510  1.4284 -0.4425  0.5211
 6598TIP3    H241286   4.400   1.530   4.600  0.3118  0.7848  0.9536
 6599TIP3   OH241287   5.094   5.822   1.792 -0.8217  0.2469 -0.5269
 6599TIP3    H141288   5.002   5.793   1.794 -0.3288 -1.4398 -0.7115
 6599TIP3    H241289   5.127   5.801   1.879  0.2829 -2.4281 -1.4896
 6600TIP3   OH241290   3.331   0.518   4.587  0.1049 -0.2305 -0.0445
 6600TIP3    H141291   3.244   0.541   4.621  0.6407  0.8162  0.7078
 6600TIP3    H241292   3.347   0.430   4.620 -0.5621 -0.3224  0.0467
 6601TIP3   OH241293   0.728   6.427  16.574 -0.1098 -0.5899  0.7788
 6601TIP3    H141294   0.788   6.472  16.514 -0.0313 -2.4298 -0.6004
 6601TIP3    H241295   0.769   6.437  16.660 -0.2437  2.1290  0.6052
 6602TIP3   OH241296   5.899   5.779   3.964  0.4812  0.3857  0.0970
 6602TIP3    H141297   5.810   5.813   3.974 -0.3151 -1.5798  0.0123
 6602TIP3    H241298   5.955   5.852   3.991 -1.1234  1.7961 -0.2001
 6603TIP3   OH241299   3.514   4.298   5.484  0.3422 -0.3271  0.5059
 6603TIP3    H141300   3.519   4.205   5.463 -0.0283 -0.2638  0.1374
 6603TIP3    H241301   3.456   4.302   5.560 -1.7955 -0.1738 -1.0477
 6604TIP3   OH241302   6.593   0.498  13.108  0.0802 -0.0977 -0.4355
 6604TIP3    H141303   6.667   0.552  13.136 -1.1753  0.2197  2.6945
 6604TIP3    H241304   6.518   0.559  13.107 -0.1232 -0.0578 -4.9079
 6605TIP3   OH241305   6.472   0.254   0.243  0.0729  1.0440 -0.3866
 6605TIP3    H141306   6.418   0.233   0.320  0.8450  1.9777  0.4265
 6605TIP3    H241307   6.411   0.251   0.169 -0.5018 -0.8027  0.1043
 6606TIP3   OH241308   1.918   0.724   0.723  0.8684 -0.0878 -0.7408
 6606TIP3    H141309   1.846   0.725   0.786  0.7754  1.1725 -0.8391
 6606TIP3    H241310   1.975   0.653   0.754  1.0872  0.8122  1.1109
 6607TIP3   OH241311   1.636   5.826  16.458 -0.0182  0.5940 -0.3939
 6607TIP3    H141312   1.585   5.748  16.478 -0.8798  1.3355  0.4125
 6607TIP3    H241313   1.640   5.829  16.363 -0.5802 -0.0532 -0.4454
 6608TIP3   OH241314   1.189   2.945   2.244  0.3529 -0.7452  0.4472
 6608TIP3    H141315   1.176   3.040   2.233  1.0934 -0.8269 -1.5426
 6608TIP3    H241316   1.204   2.934   2.338  0.1022  1.0919  0.7507
 6609TIP3   OH241317   0.218   1.564  16.931 -0.3050  0.0249  0.4022
 6609TIP3    H141318   0.190   1.473  16.942 -1.0795  0.3423  1.1689
 6609TIP3    H241319   0.229   1.597  17.021 -1.6260  1.1544  0.1865
 6610TIP3   OH241320   2.107   0.737  16.895  0.1316  0.2856 -0.3643
 6610TIP3    H141321   2.128   0.705  16.807 -0.0233  1.0351 -0.6815
 6610TIP3    H241322   2.012   0.748  16.895  0.1931  0.9041 -0.3311
 6611TIP3   OH241323   0.696   0.000  12.985  0.2617 -0.7522 -0.8104
 6611TIP3    H141324   0.681  -0.006  12.891 -0.0519 -1.4983 -0.7138
 6611TIP3    H241325   0.646   0.078  13.012  0.8760 -0.1549 -1.3557
 6612TIP3   OH241326   2.576   5.991  11.932 -0.2252 -0.0233 -0.3768
 6612TIP3    H141327   2.536   5.907  11.908  0.0288 -0.7174  1.5162
 6612TIP3    H241328   2.666   5.969  11.954  0.5592  1.1599 -2.2046
 6613TIP3   OH241329   1.770   5.566  11.980  0.3535 -0.0443 -0.1047
 6613TIP3    H141330   1.817   5.505  11.923 -0.4967 -0.2818 -0.5762
 6613TIP3    H241331   1.805   5.652  11.957  0.2065 -0.1657 -0.8112
 6614TIP3   OH241332   5.533   5.758   6.052 -0.0455 -0.3765 -0.1386
 6614TIP3    H141333   5.604   5.750   6.116  0.0007 -0.0197 -0.1421
 6614TIP3    H241334   5.552   5.692   5.986 -1.4258 -2.5162  1.4531
 6615TIP3   OH241335   4.120   6.797   5.799 -0.2403  0.2598  0.2716
 6615TIP3    H141336   4.193   6.795   5.737 -1.2642 -2.4275 -0.9961
 6615TIP3    H241337   4.042   6.781   5.746 -1.0832 -3.1838  2.2374
 6616TIP3   OH241338   1.512   6.027   0.363  1.4227  0.2398 -0.9943
 6616TIP3    H141339   1.547   6.116   0.351 -0.9970  1.2790 -1.0076
 6616TIP3    H241340   1.474   6.029   0.451  0.2876 -0.3801 -1.4565
 6617TIP3   OH241341   4.576   2.184  15.927 -0.4783 -0.2471 -0.2468
 6617TIP3    H141342   4.517   2.243  15.879 -1.5048  0.0651  1.3354
 6617TIP3    H241343   4.523   2.106  15.945 -0.1420 -0.3245  0.4464
 6618TIP3   OH241344   2.408   1.464   6.157 -0.2545  0.7806  0.6300
 6618TIP3    H141345   2.344   1.535   6.160 -1.0980  0.0566  0.1805
 6618TIP3    H241346   2.357   1.385   6.172  0.1750 -0.0255 -1.7450
 6619TIP3   OH241347   1.162   0.316  14.717  0.1298  0.4146  0.3950
 6619TIP3    H141348   1.124   0.337  14.802 -1.3963 -0.1072 -0.1288
 6619TIP3    H241349   1.089   0.325  14.655  0.8262 -0.7479 -0.6302
 6620TIP3   OH241350   3.192   0.462   0.554 -0.3357 -0.2737 -0.0302
 6620TIP3    H141351   3.123   0.418   0.505 -0.1315  1.7855 -2.3812
 6620TIP3    H241352   3.270   0.409   0.540 -0.9374 -1.3952  0.7539
 6621TIP3   OH241353   6.439   6.239   0.742  0.0819  0.4182  0.0772
 6621TIP3    H141354   6.357   6.193   0.722  0.6064 -0.0687 -1.0347
 6621TIP3    H241355   6.458   6.215   0.833 -0.4563 -0.3338  0.0072
 6622TIP3   OH241356   5.816   6.328  13.473  0.8482 -0.9364 -0.4491
 6622TIP3    H141357   5.880   6.354  13.407  1.3242 -0.3636  0.2255
 6622TIP3    H241358   5.829   6.234  13.483  0.3294 -1.1512 -1.6289
 6623TIP3   OH241359   0.245   0.112  12.240 -0.6401 -0.0409  0.3209
 6623TIP3    H141360   0.273   0.171  12.170 -1.0718 -0.2297 -0.0159
 6623TIP3    H241361   0.180   0.055  12.199 -2.4333  1.1515  1.3387
 6624TIP3   OH241362   6.679   1.752  16.859 -0.1353  0.0946  0.1432
 6624TIP3    H141363   6.748   1.806  16.898  0.0642  0.0005 -0.0812
 6624TIP3    H241364   6.720   1.711  16.783 -0.6012  0.4945 -0.3333
 6625TIP3   OH241365   5.691   6.025  12.698  0.0394  0.0740  0.1774
 6625TIP3    H141366   5.646   6.041  12.781  0.5093  0.5538  0.3447
 6625TIP3    H241367   5.627   6.049  12.631 -0.5291 -0.8256  0.3915
 6626TIP3   OH241368   0.709   3.565  15.118  0.1002  0.0152 -0.3725
 6626TIP3    H141369   0.801   3.554  15.139  0.3065  0.6074 -0.9538
 6626TIP3    H241370   0.663   3.535  15.197  0.7863 -0.2253 -0.0594
 6627TIP3   OH241371   0.340   6.217   0.528  0.2811 -0.0024 -0.0896
 6627TIP3    H141372   0.386   6.133   0.536  0.5967 -0.1911 -2.7378
 6627TIP3    H241373   0.267   6.211   0.589  0.0353 -2.4324 -0.5088
 6628TIP3   OH241374   6.647   4.842  15.850 -0.3944 -0.2646  0.1295
 6628TIP3    H141375   6.678   4.802  15.932 -0.3229  0.5464  0.5093
 6628TIP3    H241376   6.610   4.926  15.877 -1.8699 -0.6922 -0.4643
 6629TIP3   OH241377   0.504   2.818  11.835  0.4639 -0.3655  0.3488
 6629TIP3    H141378   0.525   2.894  11.781 -1.8158  0.4676  0.4947
 6629TIP3    H241379   0.521   2.846  11.925 -0.2234 -0.0432  0.3895
 6630TIP3   OH241380   4.347   3.142  16.473 -0.1429  0.3247 -0.3324
 6630TIP3    H141381   4.303   3.172  16.552  0.9520  0.1929  0.3410
 6630TIP3    H241382   4.428   3.193  16.469 -0.5019  0.8237 -1.7481
 6631TIP3   OH241383   6.557   4.974   4.442  0.0627  0.2642  0.3071
 6631TIP3    H141384   6.629   4.917   4.468  0.0229  0.1390  0.1396
 6631TIP3    H241385   6.582   5.009   4.357 -1.6066 -2.4890 -1.4658
 6632TIP3   OH241386   2.060   0.812  15.273 -0.2734  0.0092  0.3765
 6632TIP3    H141387   2.124   0.879  15.299 -0.5169  0.5652 -0.4285
 6632TIP3    H241388   2.035   0.770  15.356  0.9227 -0.0377  0.7308
 6633TIP3   OH241389   2.073   2.134  10.778 -0.0900 -0.6635 -0.2979
 6633TIP3    H141390   1.985   2.152  10.745 -0.9780  0.7243  2.5077
 6633TIP3    H241391   2.070   2.042  10.805 -1.6233 -0.0329  2.0453
 6634TIP3   OH241392   3.793   6.428   4.499  0.3298  0.6564 -0.0764
 6634TIP3    H141393   3.827   6.440   4.587 -0.4927 -3.1005  0.9388
 6634TIP3    H241394   3.871   6.424   4.443  0.9647  1.2781  0.7504
 6635TIP3   OH241395   5.050   2.624  13.821 -0.5319  0.1417  0.5301
 6635TIP3    H141396   5.031   2.650  13.910 -0.9583  1.6156  0.0290
 6635TIP3    H241397   5.098   2.697  13.783  0.4320 -0.8240 -0.2025
 6636TIP3   OH241398   4.864   3.186  15.360 -0.0226 -0.1298 -0.0114
 6636TIP3    H141399   4.784   3.158  15.315  0.2323 -0.5282 -0.2210
 6636TIP3    H241400   4.851   3.279  15.375 -0.5168 -0.1851 -0.0678
 6637TIP3   OH241401   1.247   0.910   0.088 -0.2233  0.3151  0.5662
 6637TIP3    H141402   1.167   0.859   0.100  0.3917 -0.4091  1.7425
 6637TIP3    H241403   1.224   0.974   0.020 -1.1563 -1.2076 -0.6322
 6638TIP3   OH241404   4.196   3.838   3.653 -1.0075 -0.1435 -0.0811
 6638TIP3    H141405   4.133   3.903   3.683 -0.7821  0.2625 -0.4680
 6638TIP3    H241406   4.227   3.872   3.569 -3.0525 -2.1957 -1.7777
 6639TIP3   OH241407   6.241   3.359  14.307 -0.0094 -0.0812  0.2877
 6639TIP3    H141408   6.179   3.299  14.351  0.0551 -1.6246 -1.6141
 6639TIP3    H241409   6.204   3.446  14.322 -1.8932 -0.8528  0.4089
 6640TIP3   OH241410   1.031   1.402  16.851 -0.0257  0.3011 -0.0944
 6640TIP3    H141411   0.939   1.393  16.876 -0.6238  2.3124 -1.3234
 6640TIP3    H241412   1.049   1.324  16.798 -1.2672  0.2533 -0.4845
 6641TIP3   OH241413   2.949   6.423   5.274  0.0788  0.2242  0.2918
 6641TIP3    H141414   2.927   6.364   5.346  1.1525  1.6225  1.8616
 6641TIP3    H241415   3.007   6.488   5.314 -0.1227  1.6592 -1.6143
 6642TIP3   OH241416   1.365   1.794  16.650 -0.0158  0.6540  0.2132
 6642TIP3    H141417   1.314   1.712  16.647  0.3605  0.4376 -0.6763
 6642TIP3    H241418   1.323   1.850  16.585  0.3227  0.8107  0.1292
 6643TIP3   OH241419   3.388   4.915  14.722  0.2370  0.2293 -0.2272
 6643TIP3    H141420   3.453   4.845  14.733 -1.3183 -1.0340  1.6406
 6643TIP3    H241421   3.340   4.890  14.643  1.1804  0.5024 -0.9096
 6644TIP3   OH241422   6.465   1.898   2.752  0.1069  0.4543 -0.0388
 6644TIP3    H141423   6.372   1.879   2.763  0.1781 -0.3441 -0.7099
 6644TIP3    H241424   6.508   1.813   2.759  0.5567  0.4679 -1.9522
 6645TIP3   OH241425   0.958   0.576  10.465 -0.5399  0.2246  0.2190
 6645TIP3    H141426   1.050   0.588  10.443 -0.8216  1.8970 -0.1774
 6645TIP3    H241427   0.940   0.485  10.442  1.5098 -0.7742  2.2285
 6646TIP3   OH241428   5.739   3.982  12.956  0.6460  0.1556  0.3597
 6646TIP3    H141429   5.819   4.025  12.925 -0.3460  1.0864 -0.9951
 6646TIP3    H241430   5.771   3.912  13.013  2.4400  0.4478 -0.2134
 6647TIP3   OH241431   3.632   4.704  14.722  0.4748  0.0775 -0.0369
 6647TIP3    H141432   3.660   4.664  14.805 -1.0615 -0.0638  0.4489
 6647TIP3    H241433   3.585   4.634  14.677  0.2507  0.5126 -0.4865
 6648TIP3   OH241434   0.777   3.192   1.217 -0.1739  0.3624  0.0387
 6648TIP3    H141435   0.811   3.270   1.174  1.8929  0.4153  1.5892
 6648TIP3    H241436   0.746   3.223   1.302 -0.7131 -0.2870  0.0842
 6649TIP3   OH241437   1.867   6.396  14.216  0.2971 -0.0068 -0.0602
 6649TIP3    H141438   1.948   6.402  14.267  1.0342  2.7345 -1.3685
 6649TIP3    H241439   1.837   6.487  14.208 -0.5059 -0.4326 -3.2966
 6650TIP3   OH241440   5.607   1.102   6.145 -0.1013  0.2399  0.2247
 6650TIP3    H141441   5.524   1.065   6.115 -0.3605 -0.5710  1.8118
 6650TIP3    H241442   5.583   1.157   6.220  0.7281  0.4160  0.3696
 6651TIP3   OH241443   4.360   5.557  16.322  0.0373  0.4512  0.1637
 6651TIP3    H141444   4.429   5.528  16.382  0.0309 -0.2975 -0.1739
 6651TIP3    H241445   4.404   5.561  16.237 -0.5984 -1.2213 -0.2847
 6652TIP3   OH241446   2.442   0.258   3.475 -0.4457 -0.1817  0.3917
 6652TIP3    H141447   2.433   0.185   3.536 -1.1613 -0.7682 -0.3825
 6652TIP3    H241448   2.536   0.262   3.456 -0.6154 -2.5861 -1.4744
 6653TIP3   OH241449   3.540   4.715   3.901  0.2849  0.0736 -0.1542
 6653TIP3    H141450   3.447   4.726   3.920  0.1447  2.0251 -1.6788
 6653TIP3    H241451   3.584   4.728   3.985 -0.6836  1.5563  0.1424
 6654TIP3   OH241452   2.555   4.697   1.155 -0.1475  0.8987 -0.2241
 6654TIP3    H141453   2.573   4.670   1.065  0.5398  2.3871 -0.5564
 6654TIP3    H241454   2.642   4.711   1.193 -0.4525  0.9625  0.4654
 6655TIP3   OH241455   6.274   4.353  15.126 -0.4300 -0.4751 -0.0506
 6655TIP3    H141456   6.216   4.288  15.164  0.3728 -1.2023 -0.0424
 6655TIP3    H241457   6.223   4.393  15.055 -0.7263 -1.5398 -0.4548
 6656TIP3   OH241458   4.970   2.321   0.827  0.4542  0.0973  0.2637
 6656TIP3    H141459   4.882   2.359   0.818 -0.3246 -1.6769 -0.2177
 6656TIP3    H241460   4.975   2.295   0.919  0.2523 -0.2540  0.1800
 6657TIP3   OH241461   2.055   2.428   5.468  0.1462 -0.1867 -0.2702
 6657TIP3    H141462   2.034   2.339   5.498 -0.3214  0.2810  0.8238
 6657TIP3    H241463   2.147   2.439   5.489 -0.1168  0.0478  0.7973
 6658TIP3   OH241464   2.626   2.428  12.095  0.7604 -0.6254  0.4380
 6658TIP3    H141465   2.564   2.407  12.025 -1.1167  2.0925  1.1308
 6658TIP3    H241466   2.669   2.345  12.115 -2.4524 -2.6482 -0.3066
 6659TIP3   OH241467   0.425   2.922   2.901 -0.1776 -0.0605  0.3151
 6659TIP3    H141468   0.341   2.891   2.935 -0.1459  0.3219  0.7541
 6659TIP3    H241469   0.483   2.846   2.905 -0.3508 -0.1796  0.5255
 6660TIP3   OH241470   4.730   2.490  11.249 -0.6678  0.1927 -0.0361
 6660TIP3    H141471   4.796   2.533  11.303 -1.6960 -0.0796  1.5159
 6660TIP3    H241472   4.780   2.444  11.182  0.7527 -0.3184  1.3177
 6661TIP3   OH241473   1.861   1.408  13.246 -0.2155  0.4658  0.0342
 6661TIP3    H141474   1.838   1.354  13.322  0.4598  0.6695  0.3948
 6661TIP3    H241475   1.884   1.493  13.283  2.6482 -0.1524 -0.0861
 6662TIP3   OH241476   3.591   0.083   4.408 -0.6308  0.6559  0.6199
 6662TIP3    H141477   3.552   0.021   4.469 -0.4372 -0.1436 -0.0414
 6662TIP3    H241478   3.685   0.062   4.409 -0.3060  1.9922  1.5644
 6663TIP3   OH241479   0.005   3.704   3.904 -0.1238 -0.2025 -0.4289
 6663TIP3    H141480   0.062   3.635   3.938 -2.2887 -1.2521  1.4195
 6663TIP3    H241481   0.034   3.784   3.948  0.7526 -0.4490 -0.5459
 6664TIP3   OH241482   3.717   1.160  14.071  0.3665  0.0630 -0.2709
 6664TIP3    H141483   3.660   1.128  14.001  0.9056 -2.1135  0.2123
 6664TIP3    H241484   3.803   1.167  14.029  0.5642 -0.6425  0.0118
 6665TIP3   OH241485   1.929   4.975   4.050 -0.7093  0.0590  0.0564
 6665TIP3    H141486   1.849   4.986   4.000 -1.0166 -0.3983  0.4436
 6665TIP3    H241487   1.901   4.979   4.142 -0.2800 -0.0159  0.1941
 6666TIP3   OH241488   4.704   0.027   2.908  0.1804  0.7287  0.0114
 6666TIP3    H141489   4.723   0.085   2.834  0.2526  1.5744  0.6872
 6666TIP3    H241490   4.790  -0.000   2.940  0.1616  0.8291  0.1486
 6667TIP3   OH241491   2.281   1.766  11.560 -0.3159  0.0634 -1.0665
 6667TIP3    H141492   2.205   1.818  11.532 -0.2010  0.9519  0.1685
 6667TIP3    H241493   2.344   1.831  11.591 -0.7901 -0.8184  2.0445
 6668TIP3   OH241494   2.302   1.112  13.640  0.4452  0.1529  0.2206
 6668TIP3    H141495   2.324   1.023  13.611 -2.3673 -0.3810 -0.6022
 6668TIP3    H241496   2.365   1.168  13.595  0.1913 -1.1891 -1.9604
 6669TIP3   OH241497   0.386   3.778   3.075  0.0538 -0.2988 -0.6113
 6669TIP3    H141498   0.301   3.820   3.061 -1.4158 -1.2972  3.7168
 6669TIP3    H241499   0.371   3.719   3.149  3.5293 -3.8200 -2.3811
 6670TIP3   OH241500   2.930   5.926  13.611 -0.1127  0.1535 -0.0777
 6670TIP3    H141501   2.932   6.003  13.668  0.2384 -0.3936  0.6567
 6670TIP3    H241502   2.986   5.862  13.655 -2.5774 -1.5396  0.8059
 6671TIP3   OH241503   3.897   0.914  11.976 -0.7674 -0.3897 -0.3160
 6671TIP3    H141504   3.915   0.917  11.882  0.2117 -0.0838 -0.1342
 6671TIP3    H241505   3.859   0.827  11.990 -3.4156  0.4978 -1.3732
 6672TIP3   OH241506   6.387   5.090  16.313  0.1742  0.4820  0.3405
 6672TIP3    H141507   6.316   5.149  16.340  0.4289  0.9368  0.0350
 6672TIP3    H241508   6.380   5.088  16.217 -1.0232 -1.4795  0.4287
 6673TIP3   OH241509   0.196   1.263   2.613 -0.7262 -0.0910 -0.0483
 6673TIP3    H141510   0.217   1.333   2.552  0.4404  0.2551  0.7301
 6673TIP3    H241511   0.200   1.183   2.561  0.9529  0.1317 -0.3029
 6674TIP3   OH241512   0.794   2.334   2.275  0.0703 -0.2122  0.9180
 6674TIP3    H141513   0.727   2.278   2.315  0.4878  0.2366  2.2933
 6674TIP3    H241514   0.825   2.284   2.199 -2.0389 -0.2896  0.0126
 6675TIP3   OH241515   1.174   4.662   3.123  0.2052  0.1664 -0.5210
 6675TIP3    H141516   1.117   4.589   3.147 -0.7364  1.4295  1.3111
 6675TIP3    H241517   1.253   4.649   3.176  0.8353 -0.4644 -1.5570
 6676TIP3   OH241518   1.017   1.986  16.177  0.5745  0.1169 -0.1009
 6676TIP3    H141519   1.057   2.041  16.109  1.0794 -0.2394 -0.0973
 6676TIP3    H241520   1.087   1.927  16.205 -0.2839 -1.4300 -1.0349
 6677TIP3   OH241521   5.061   3.482  13.006 -0.0183 -0.8201 -0.4816
 6677TIP3    H141522   5.054   3.386  13.005  0.0330 -0.8245 -0.4307
 6677TIP3    H241523   4.974   3.512  12.982  0.2286 -0.8823 -1.4688
 6678TIP3   OH241524   1.750   4.732   2.590  0.6068 -0.0692  0.8320
 6678TIP3    H141525   1.757   4.686   2.673  0.6137 -0.7245  0.4737
 6678TIP3    H241526   1.796   4.814   2.604  1.8558 -0.7805  1.0439
 6679TIP3   OH241527   5.484   2.544  11.641  0.2907  0.2844 -0.5697
 6679TIP3    H141528   5.430   2.511  11.570 -0.9392 -2.0018  1.2859
 6679TIP3    H241529   5.453   2.633  11.656 -1.9639 -0.4404 -0.5654
 6680TIP3   OH241530   4.128   2.455   4.522  0.3990 -0.0845  0.1858
 6680TIP3    H141531   4.111   2.451   4.616 -1.5665  2.1097  0.0264
 6680TIP3    H241532   4.042   2.468   4.483  0.9404 -2.5361 -2.1404
 6681TIP3   OH241533   5.871   1.288   1.043 -0.0064  0.1403 -0.4371
 6681TIP3    H141534   5.797   1.285   1.104 -0.3328  0.2473 -0.8190
 6681TIP3    H241535   5.888   1.197   1.020  2.9315 -0.4747  3.0876
 6682TIP3   OH241536   6.415   1.338   0.346  0.3390 -0.2030  0.1083
 6682TIP3    H141537   6.459   1.420   0.367  1.5450 -0.4912 -1.1072
 6682TIP3    H241538   6.381   1.306   0.430  1.8023  0.4269  0.9808
 6683TIP3   OH241539   0.940   2.899   0.566  0.5426  0.0388 -0.0714
 6683TIP3    H141540   1.026   2.859   0.583  1.3004  0.8886 -1.6521
 6683TIP3    H241541   0.952   2.991   0.588  0.2416  0.2828 -0.8909
 6684TIP3   OH241542   0.942   1.577  15.723  0.2491 -0.2713 -0.3061
 6684TIP3    H141543   0.949   1.495  15.675 -1.2776 -0.3257 -0.4781
 6684TIP3    H241544   0.865   1.566  15.779  1.1215  0.3512  1.0655
 6685TIP3   OH241545   4.905   2.189  12.116  0.2158  0.5403 -0.3336
 6685TIP3    H141546   4.844   2.257  12.090  1.0720  1.0131 -1.1674
 6685TIP3    H241547   4.991   2.231  12.114  0.8619 -0.7438 -1.6460
 6686TIP3   OH241548   1.116   3.984  11.051 -0.3858 -0.6769 -0.0828
 6686TIP3    H141549   1.087   4.011  10.964  1.2416 -0.1169 -0.4855
 6686TIP3    H241550   1.119   4.066  11.101 -2.5309 -1.1442  0.9262
 6687TIP3   OH241551   5.658   2.073  16.094  0.4222  0.9389 -0.0706
 6687TIP3    H141552   5.676   2.101  16.184 -0.2082  0.7123  0.1297
 6687TIP3    H241553   5.602   2.142  16.058 -0.7813  0.1842  0.2873
 6688TIP3   OH241554   4.153   2.024  12.794 -0.6070  0.0025 -0.0432
 6688TIP3    H141555   4.117   1.944  12.830  1.7191 -1.6046 -1.0126
 6688TIP3    H241556   4.163   2.006  12.700  0.6862  1.0889 -0.1555
 6689TIP3   OH241557   5.914   3.310  16.790  0.0398 -0.0198 -0.0841
 6689TIP3    H141558   5.996   3.272  16.758  0.5481  0.4793  0.5826
 6689TIP3    H241559   5.920   3.402  16.766 -1.1265 -0.3034 -1.5783
 6690TIP3   OH241560   2.723   4.219  15.015  0.6266  0.0521  0.2299
 6690TIP3    H141561   2.656   4.208  15.082  0.0055  3.7630  0.4437
 6690TIP3    H241562   2.693   4.167  14.941 -1.1326 -0.4015  1.2218
 6691TIP3   OH241563   1.912   5.376  11.213 -0.2484 -0.2230 -0.1958
 6691TIP3    H141564   1.947   5.344  11.130  0.7894 -1.7058  0.7606
 6691TIP3    H241565   1.825   5.336  11.220 -0.2005 -0.3618 -0.4016
 6692TIP3   OH241566   5.184   2.986  14.654  0.2138 -0.6129 -0.5438
 6692TIP3    H141567   5.097   2.955  14.629 -0.3129 -0.3289  0.8575
 6692TIP3    H241568   5.188   3.076  14.622  0.8681 -1.3051 -2.5654
 6693TIP3   OH241569   0.800   1.640   2.992 -0.5634 -0.4119 -0.2433
 6693TIP3    H141570   0.864   1.578   2.956  1.7297  2.1590 -0.9241
 6693TIP3    H241571   0.776   1.695   2.917 -0.0381  1.5202  0.9504
 6694TIP3   OH241572   6.109   0.635   3.366 -0.1704  1.0335  0.7335
 6694TIP3    H141573   6.133   0.677   3.448 -1.3127  1.3187  0.9456
 6694TIP3    H241574   6.080   0.547   3.392  2.2271  0.0389  0.2923
 6695TIP3   OH241575   0.408   1.784  16.577 -0.4213 -0.5311 -0.1929
 6695TIP3    H141576   0.488   1.763  16.529 -0.5147 -1.4832  0.0358
 6695TIP3    H241577   0.380   1.700  16.614  0.5264  0.3492  2.8736
 6696TIP3   OH241578   1.560   4.705  14.374 -0.2688  0.1450  0.2761
 6696TIP3    H141579   1.496   4.659  14.429 -0.6579  1.1693  0.7067
 6696TIP3    H241580   1.641   4.655  14.384 -1.0697 -1.4540 -0.6351
 6697TIP3   OH241581   0.932   6.828   6.614 -0.0634 -0.3333 -0.0282
 6697TIP3    H141582   0.970   6.916   6.620  0.1775 -0.4566  0.2500
 6697TIP3    H241583   0.845   6.843   6.577 -0.3732  0.1249  0.8445
 6698TIP3   OH241584   1.181   4.725   4.261 -0.3851  0.3120  0.2364
 6698TIP3    H141585   1.151   4.677   4.338  0.2900 -0.9871 -0.2795
 6698TIP3    H241586   1.199   4.813   4.293 -1.7454  0.2740  1.1868
 6699TIP3   OH241587   6.657   1.768  13.056 -0.3446 -0.7139 -0.5567
 6699TIP3    H141588   6.747   1.785  13.084 -0.7114 -0.5622  0.5796
 6699TIP3    H241589   6.603   1.814  13.121 -1.2478 -1.0193 -1.0772
 6700TIP3   OH241590   2.950   4.907  16.776  0.5082 -0.1546 -0.0915
 6700TIP3    H141591   2.860   4.881  16.794  0.3499 -0.6395 -1.5257
 6700TIP3    H241592   2.995   4.825  16.753  0.8519  0.3348 -1.2180
 6701TIP3   OH241593   3.955   4.131  12.644  0.2085  0.1090 -0.0555
 6701TIP3    H141594   3.874   4.093  12.678  0.8790 -0.5193  0.9112
 6701TIP3    H241595   3.986   4.069  12.578  0.0522  0.2070 -0.2213
 6702TIP3   OH241596   1.260   5.586   4.442 -0.6416 -0.4464  0.6496
 6702TIP3    H141597   1.210   5.666   4.459  0.3430  1.0181 -2.5787
 6702TIP3    H241598   1.252   5.572   4.348  0.6060 -3.2456  0.8754
 6703TIP3   OH241599   4.737   5.790  16.409 -0.0407  0.1342  0.7961
 6703TIP3    H141600   4.776   5.877  16.414  0.7657 -0.1160 -0.4881
 6703TIP3    H241601   4.766   5.746  16.489 -0.4722  1.0334  1.4680
 6704TIP3   OH241602   4.094   3.119   3.051  0.5097 -0.4092  0.0789
 6704TIP3    H141603   4.150   3.069   2.991  1.7064 -0.6816  1.3737
 6704TIP3    H241604   4.068   3.196   3.001  1.5358 -0.5882 -0.7700
 6705TIP3   OH241605   3.926   3.395   3.053 -0.3535 -0.1489  0.2516
 6705TIP3    H141606   3.835   3.421   3.039  0.0228  0.1430 -2.1629
 6705TIP3    H241607   3.976   3.456   2.999  1.3627  0.1000  2.0167
 6706TIP3   OH241608   3.716   1.583  15.320 -0.6052  0.4012  0.5656
 6706TIP3    H141609   3.811   1.579  15.309 -0.6155  1.4589 -0.0169
 6706TIP3    H241610   3.685   1.635  15.246 -1.8649 -1.4885 -0.3168
 6707TIP3   OH241611   1.069   4.796   1.707 -0.2631 -0.1914  0.3284
 6707TIP3    H141612   1.162   4.784   1.729  0.2398  0.7495 -1.1469
 6707TIP3    H241613   1.057   4.748   1.625 -1.3080 -0.9857  0.9180
 6708TIP3   OH241614   1.648   3.197  13.311  0.5036  0.5606 -0.4291
 6708TIP3    H141615   1.711   3.204  13.383  0.2907 -0.2298 -0.1560
 6708TIP3    H241616   1.569   3.240  13.345 -0.7848 -2.7147  1.2250
 6709TIP3   OH241617   0.908   1.573   0.470  0.9392 -0.3704 -0.7530
 6709TIP3    H141618   0.918   1.665   0.446 -2.3831  1.5180  3.6765
 6709TIP3    H241619   0.969   1.560   0.542  1.1770 -1.6284 -1.1505
 6710TIP3   OH241620   0.956   1.994   3.646 -0.1704  0.0821  0.6934
 6710TIP3    H141621   0.984   1.912   3.687  3.9850  0.9216 -0.1092
 6710TIP3    H241622   0.950   2.056   3.719 -0.9913 -0.3054  0.9797
 6711TIP3   OH241623   5.500   1.235   2.341  0.2550  0.1835  0.4231
 6711TIP3    H141624   5.473   1.261   2.429  0.2597 -1.3704  0.9190
 6711TIP3    H241625   5.430   1.177   2.311  0.3053  0.6181 -0.5604
 6712TIP3   OH241626   4.197   4.065   5.679  0.3569 -0.6766 -0.0740
 6712TIP3    H141627   4.174   4.111   5.760  0.6037 -2.4178  1.0617
 6712TIP3    H241628   4.139   4.101   5.613  1.8424  2.6126  0.2490
 6713TIP3   OH241629   5.857   6.136   4.775  0.4136 -0.0000 -0.3147
 6713TIP3    H141630   5.931   6.158   4.719  0.0593 -0.5124 -1.0074
 6713TIP3    H241631   5.816   6.220   4.796 -0.1879  0.1383 -1.8774
 6714TIP3   OH241632   2.735   1.645  14.218  0.6324 -0.6650 -0.3254
 6714TIP3    H141633   2.723   1.596  14.137  1.0240 -1.9401  0.3658
 6714TIP3    H241634   2.657   1.625  14.270  0.4856 -0.0229 -0.2805
 6715TIP3   OH241635   4.629   0.815   0.449  0.5240 -0.3619  0.1002
 6715TIP3    H141636   4.681   0.734   0.443  0.3449 -0.4352 -0.5850
 6715TIP3    H241637   4.550   0.789   0.497 -0.2093 -0.9717 -1.3655
 6716TIP3   OH241638   3.498   1.232  17.094  0.3119  0.0994  0.4183
 6716TIP3    H141639   3.548   1.188  17.163  0.2774  0.0625  0.4191
 6716TIP3    H241640   3.564   1.256  17.029  0.4156  0.5690  0.6932
 6717TIP3   OH241641   2.200   1.853  12.075  0.0431  0.2039 -0.6644
 6717TIP3    H141642   2.150   1.907  12.013 -1.9041  0.4253  0.9720
 6717TIP3    H241643   2.238   1.916  12.136  0.9785 -0.0750 -0.9500
 6718TIP3   OH241644   3.965   5.932   3.789 -0.3377 -0.1628  0.1320
 6718TIP3    H141645   3.888   5.917   3.733  0.2322  1.7742 -1.2733
 6718TIP3    H241646   3.947   5.881   3.868 -1.7815 -1.9614 -1.2651
 6719TIP3   OH241647   2.272   6.025   1.105  0.5443 -0.4237  0.0151
 6719TIP3    H141648   2.358   5.991   1.079 -0.3477 -2.1872 -0.8118
 6719TIP3    H241649   2.271   6.018   1.201  1.6277  0.4355  0.1013
 6720TIP3   OH241650   3.508   5.460   6.518 -0.0061  0.1530 -0.0426
 6720TIP3    H141651   3.570   5.522   6.480 -0.6216  0.5119 -0.4718
 6720TIP3    H241652   3.556   5.421   6.591  0.7519  0.3631 -0.4157
 6721TIP3   OH241653   3.870   4.149   4.004  0.2169  0.2636  0.4303
 6721TIP3    H141654   3.908   4.099   4.076  1.8053  1.2482  0.3243
 6721TIP3    H241655   3.866   4.087   3.931  0.4854 -0.1859  0.7901
 6722TIP3   OH241656   0.869   2.573  14.800 -0.5400  0.4105  0.3855
 6722TIP3    H141657   0.875   2.590  14.894 -0.2270 -0.4295  0.5216
 6722TIP3    H241658   0.913   2.490  14.787 -1.6619 -0.0992 -0.3272
 6723TIP3   OH241659   6.755   1.201   5.390  0.0112 -0.3267 -0.5698
 6723TIP3    H141660   6.719   1.189   5.478  0.7005  0.6721 -0.1498
 6723TIP3    H241661   6.810   1.124   5.376  0.2980 -0.2378  0.0668
 6724TIP3   OH241662   6.642   6.148  16.541 -0.4400  0.7174 -0.0106
 6724TIP3    H141663   6.628   6.064  16.496 -0.3093 -1.2462  3.2544
 6724TIP3    H241664   6.727   6.178  16.509 -0.7980 -0.0057 -1.7767
 6725TIP3   OH241665   2.961   6.134  14.607 -0.2489 -0.1065  0.1024
 6725TIP3    H141666   2.972   6.161  14.516 -1.4911  0.1631  0.0099
 6725TIP3    H241667   2.886   6.073  14.604  0.2844 -0.8111  0.8133
 6726TIP3   OH241668   0.243   5.039  17.143  0.1269  0.5406  0.2260
 6726TIP3    H141669   0.197   4.960  17.116  2.7966 -0.9523 -0.2843
 6726TIP3    H241670   0.226   5.046  17.237  0.2434 -0.9431  0.3741
 6727TIP3   OH241671   0.384   6.250   4.704  0.0927 -0.2933  0.3248
 6727TIP3    H141672   0.430   6.314   4.650 -1.0839 -0.0354 -0.4107
 6727TIP3    H241673   0.357   6.181   4.643 -1.3916  0.0803  0.4983
 6728TIP3   OH241674   2.360   6.458  11.967 -0.1020  0.7588  0.2641
 6728TIP3    H141675   2.422   6.388  11.989 -2.4281 -1.8341 -0.8118
 6728TIP3    H241676   2.405   6.509  11.898  1.1706 -0.4774  0.1295
 6729TIP3   OH241677   1.283   6.661  15.728  0.0232  0.5890  0.0717
 6729TIP3    H141678   1.215   6.714  15.686 -0.8145 -1.4941 -1.3847
 6729TIP3    H241679   1.365   6.705  15.706 -0.6107  1.0564 -1.4594
 6730TIP3   OH241680   2.090   4.126  12.916 -0.3022  0.2827 -0.0339
 6730TIP3    H141681   2.098   4.088  12.828 -0.7365 -1.0509  0.4755
 6730TIP3    H241682   2.157   4.194  12.919  1.5930 -1.4680 -0.4843
 6731TIP3   OH241683   5.908   5.614  13.021  0.4504  0.3322  0.1124
 6731TIP3    H141684   5.931   5.567  12.941  2.2332 -0.6201  1.1313
 6731TIP3    H241685   5.839   5.675  12.994  1.0288  0.0622 -2.1323
 6732TIP3   OH241686   2.858   1.520   5.054  0.5523  0.0936 -0.1261
 6732TIP3    H141687   2.796   1.453   5.023 -0.6412  1.3763 -0.6186
 6732TIP3    H241688   2.810   1.569   5.121  1.9614 -0.5050  1.3952
 6733TIP3   OH241689   4.604   1.886  12.694  0.2210  0.3621 -0.0527
 6733TIP3    H141690   4.647   1.847  12.618  0.1110  1.6361 -0.8013
 6733TIP3    H241691   4.628   1.829  12.767 -1.1554 -1.9999 -1.2896
 6734TIP3   OH241692   4.399   6.573  13.334  0.1781  0.3815  0.9175
 6734TIP3    H141693   4.445   6.519  13.270  1.4380  2.4354 -0.0044
 6734TIP3    H241694   4.333   6.515  13.371  0.4407 -1.3397 -1.1136
 6735TIP3   OH241695   4.070   0.789   5.896  0.0652 -0.3850 -0.4541
 6735TIP3    H141696   4.035   0.705   5.924 -0.9482 -0.0528 -0.7058
 6735TIP3    H241697   4.093   0.775   5.804  2.2789 -1.1169  0.1350
 6736TIP3   OH241698   4.130   5.530  13.053  0.6185 -0.4770  0.3372
 6736TIP3    H141699   4.042   5.540  13.088  0.4060  0.0737 -0.3259
 6736TIP3    H241700   4.137   5.597  12.985  2.7337  1.9141  2.6656
 6737TIP3   OH241701   6.421   6.006  11.736  0.2079  0.1423 -0.0672
 6737TIP3    H141702   6.332   5.973  11.746 -0.3062  0.8319 -1.9089
 6737TIP3    H241703   6.428   6.027  11.643  1.6361  1.9570  0.3935
 6738TIP3   OH241704   3.985   0.917  11.695  0.2560 -0.2388 -1.0432
 6738TIP3    H141705   4.031   0.988  11.651 -0.3194  2.5646  2.4399
 6738TIP3    H241706   4.051   0.875  11.750 -0.6019  2.3245  2.2259
 6739TIP3   OH241707   3.860   6.190   1.796 -0.3928  0.6558  0.1642
 6739TIP3    H141708   3.828   6.215   1.709 -0.3278  0.0023 -0.0522
 6739TIP3    H241709   3.785   6.204   1.854 -1.2759 -1.3405 -0.4143
 6740TIP3   OH241710   5.189   3.303   5.089  0.5591  0.6266 -0.3395
 6740TIP3    H141711   5.100   3.332   5.112  1.2842  3.5635 -0.8413
 6740TIP3    H241712   5.178   3.256   5.006 -0.6454 -0.0433  0.1785
 6741TIP3   OH241713   4.977   6.144  16.983  0.4015  0.1134  0.2538
 6741TIP3    H141714   4.992   6.070  16.925  2.8372  0.4409  0.3814
 6741TIP3    H241715   4.902   6.190  16.944  0.7064 -0.7712 -1.4725
 6742TIP3   OH241716   1.281   1.640  11.594 -0.0475 -0.2840  0.2861
 6742TIP3    H141717   1.271   1.683  11.679 -2.6681  0.0252 -0.0902
 6742TIP3    H241718   1.207   1.579  11.590  1.3493 -1.9784 -0.8479
 6743TIP3   OH241719   0.968   3.443   5.444 -1.0617 -0.2867  0.1447
 6743TIP3    H141720   0.971   3.505   5.371 -1.8948 -0.3106  0.0779
 6743TIP3    H241721   0.907   3.482   5.507 -1.1992 -0.7846  0.3303
 6744TIP3   OH241722   5.025   4.202  15.189 -0.1445  0.0878 -0.0801
 6744TIP3    H141723   4.988   4.249  15.114 -0.8682  1.3740  1.0205
 6744TIP3    H241724   5.111   4.242  15.201 -0.4929  0.7141  0.4473
 6745TIP3   OH241725   0.458   2.467  12.932  0.2059 -0.3917  0.1790
 6745TIP3    H141726   0.363   2.459  12.917  0.2563  1.8961 -1.9588
 6745TIP3    H241727   0.488   2.376  12.936 -2.0990 -1.1965  1.3639
 6746TIP3   OH241728   5.864   1.116   4.106 -0.6520 -0.2845  0.2216
 6746TIP3    H141729   5.829   1.098   4.193  0.8511 -2.0274  0.5209
 6746TIP3    H241730   5.815   1.059   4.047  0.4776 -1.5179  0.4199
 6747TIP3   OH241731   4.904   3.203   2.166  0.1250  0.4698  0.0951
 6747TIP3    H141732   4.824   3.240   2.129  0.5203  0.7730 -0.4636
 6747TIP3    H241733   4.921   3.257   2.244  0.2596  0.9516 -0.2673
 6748TIP3   OH241734   1.169   4.223  11.172  0.0752  0.2762  0.0595
 6748TIP3    H141735   1.088   4.272  11.158  0.2606  0.7673  0.6604
 6748TIP3    H241736   1.215   4.273  11.239  1.2416  0.4230 -0.8331
 6749TIP3   OH241737   4.233   5.579   0.191  0.4545  0.0717  0.3151
 6749TIP3    H141738   4.225   5.670   0.222 -1.0796 -0.3584  1.2851
 6749TIP3    H241739   4.144   5.553   0.169  0.6845 -1.5773  1.2007
 6750TIP3   OH241740   4.710   2.098  12.303  0.2113 -0.5832  0.5866
 6750TIP3    H141741   4.789   2.140  12.269  1.9843 -1.0479  3.7662
 6750TIP3    H241742   4.666   2.167  12.352 -1.3457 -0.3933 -0.9699
 6751TIP3   OH241743   4.042   6.486   4.664  0.0084  0.3971 -0.0522
 6751TIP3    H141744   4.035   6.398   4.628 -0.9728 -0.0529  1.1796
 6751TIP3    H241745   4.136   6.504   4.667  0.2252 -0.6974 -0.0928
 6752TIP3   OH241746   3.052   4.733  12.679  0.4237 -0.0042  0.0674
 6752TIP3    H141747   2.982   4.678  12.714  0.5927 -0.2827 -0.0327
 6752TIP3    H241748   3.016   4.770  12.598  0.4534 -0.2757 -0.0684
 6753TIP3   OH241749   4.488   3.651  15.560 -0.2192 -0.1171  0.5284
 6753TIP3    H141750   4.543   3.692  15.626  0.6190 -0.3666  0.0005
 6753TIP3    H241751   4.500   3.557  15.573 -0.0457 -0.1696  0.0284
 6754TIP3   OH241752   3.760   0.800  15.930  0.1881 -0.1181  0.3206
 6754TIP3    H141753   3.801   0.723  15.970  1.8179  0.5135 -0.0314
 6754TIP3    H241754   3.730   0.853  16.004  0.6667 -0.2689  0.6290
 6755TIP3   OH241755   0.025   2.068   2.142  0.1685  0.5374 -0.6518
 6755TIP3    H141756   0.025   2.159   2.113 -1.7588  0.7089 -0.2513
 6755TIP3    H241757  -0.067   2.048   2.159  0.5182 -1.5814 -0.9820
 6756TIP3   OH241758   6.197   3.075  11.374 -0.2548  0.0323  0.4316
 6756TIP3    H141759   6.260   3.102  11.440  0.2540 -0.9746  0.3723
 6756TIP3    H241760   6.152   3.156  11.349  1.1533  0.7927  0.3106
 6757TIP3   OH241761   1.086   1.723  16.947 -0.6097 -0.9087 -0.5964
 6757TIP3    H141762   1.048   1.764  17.025  0.5390  1.5915 -1.2586
 6757TIP3    H241763   1.180   1.728  16.962 -0.3043  0.9911 -2.7473
 6758TIP3   OH241764   3.983   3.089   3.495 -0.0969  0.1471  0.4336
 6758TIP3    H141765   3.947   3.160   3.441 -1.6991 -0.2325  0.9630
 6758TIP3    H241766   4.064   3.065   3.451  0.4974  2.3086  0.2399
 6759TIP3   OH241767   2.817   1.517  16.992  0.0307  0.4600  0.1023
 6759TIP3    H141768   2.759   1.441  17.001  0.7840 -0.1079  0.2756
 6759TIP3    H241769   2.764   1.582  16.946  0.2856 -1.2076 -2.7756
 6760TIP3   OH241770   2.333   6.301   4.154 -0.1580 -0.0980  0.3119
 6760TIP3    H141771   2.239   6.306   4.140 -0.3321  1.2022  1.6858
 6760TIP3    H241772   2.350   6.211   4.181 -0.5055 -1.2567 -2.8635
 6761TIP3   OH241773   4.276   4.598  16.300 -0.0591  0.5064 -0.4595
 6761TIP3    H141774   4.332   4.542  16.246  0.1147  0.2949 -0.0687
 6761TIP3    H241775   4.320   4.600  16.385 -0.1045  1.1835 -0.4495
 6762TIP3   OH241776   5.989   4.534   0.706  0.0597  0.4242 -0.3148
 6762TIP3    H141777   6.024   4.452   0.671 -0.5167 -0.5812  1.3145
 6762TIP3    H241778   6.064   4.593   0.708  0.7468 -0.4117 -0.5458
 6763TIP3   OH241779   3.597   1.365  11.941 -0.1622 -0.2314 -0.3773
 6763TIP3    H141780   3.572   1.299  12.006  0.1072 -1.1906 -1.2246
 6763TIP3    H241781   3.514   1.401  11.910 -0.3740 -1.0802 -0.8218
 6764TIP3   OH241782   0.913   1.436  14.562 -0.0605  0.2596  0.3676
 6764TIP3    H141783   0.837   1.388  14.597  0.3491 -1.2778 -0.7558
 6764TIP3    H241784   0.897   1.440  14.468  1.5985 -0.7449  0.0136
 6765TIP3   OH241785   1.064   0.974  15.385 -0.8786 -0.2831  0.0448
 6765TIP3    H141786   1.009   0.908  15.343 -0.7189 -1.5854  1.7769
 6765TIP3    H241787   1.146   0.971  15.336 -0.8802 -1.3734  0.0894
 6766TIP3   OH241788   2.736   1.097   6.292  0.7927  0.3385 -0.0688
 6766TIP3    H141789   2.717   1.125   6.202 -0.6125 -1.4089 -0.3675
 6766TIP3    H241790   2.820   1.052   6.286 -0.9707 -3.1901 -1.4040
 6767TIP3   OH241791   2.054   0.488  14.345  0.3580 -0.4970 -0.1362
 6767TIP3    H141792   2.041   0.446  14.430 -0.6859 -0.7597 -0.4100
 6767TIP3    H241793   1.967   0.520  14.320  0.6959 -0.2069 -0.9950
 6768TIP3   OH241794   4.474   0.247  14.607  0.3817 -0.2554 -0.0013
 6768TIP3    H141795   4.546   0.262  14.546  0.5263 -0.2086  0.1803
 6768TIP3    H241796   4.516   0.213  14.686  0.1602 -0.6614 -0.0540
 6769TIP3   OH241797   2.985   6.633  11.203  0.1272 -0.2297 -0.2850
 6769TIP3    H141798   2.910   6.683  11.235  0.5806  0.9736 -1.0301
 6769TIP3    H241799   3.059   6.693  11.212  1.0599 -1.4607  0.6313
 6770TIP3   OH241800   4.958   3.700   1.257 -0.5798 -0.4950 -0.0777
 6770TIP3    H141801   4.944   3.681   1.350  1.1631 -1.4114  0.0388
 6770TIP3    H241802   4.941   3.794   1.249  1.3065  0.0580  1.6330
 6771TIP3   OH241803   0.573   3.384   3.216  0.1210  0.1099 -0.2785
 6771TIP3    H141804   0.528   3.346   3.140  0.5787 -0.4917 -0.2506
 6771TIP3    H241805   0.511   3.449   3.250  0.2116  0.9463 -1.6223
 6772TIP3   OH241806   0.801   0.160   0.120  0.1158  0.5885  0.5799
 6772TIP3    H141807   0.853   0.092   0.079 -0.7451  0.8795 -1.0682
 6772TIP3    H241808   0.833   0.164   0.210  1.1513 -0.9897  0.3142
 6773TIP3   OH241809   4.200   3.965   4.240 -0.2997 -0.7927  0.3668
 6773TIP3    H141810   4.203   3.958   4.336 -2.2647 -1.2219  0.4468
 6773TIP3    H241811   4.146   3.891   4.213 -0.9302  0.1140 -0.9521
 6774TIP3   OH241812   5.514   3.795   1.592  0.1280 -0.1739  0.2889
 6774TIP3    H141813   5.533   3.790   1.686  1.5216 -1.7756 -0.0324
 6774TIP3    H241814   5.563   3.723   1.554 -1.4584 -0.3727 -1.5332
 6775TIP3   OH241815   3.311   6.393  10.543  0.0421 -0.4994 -0.0166
 6775TIP3    H141816   3.323   6.439  10.626 -1.7580  1.8279 -0.9175
 6775TIP3    H241817   3.216   6.387  10.533  0.1665  0.2333 -2.3326
 6776TIP3   OH241818   1.023   2.913  12.474  0.1700 -0.1021 -0.0648
 6776TIP3    H141819   1.118   2.897  12.479  0.1082 -0.3168  0.4665
 6776TIP3    H241820   0.984   2.826  12.482 -0.0322 -0.2309 -2.0657
 6777TIP3   OH241821   1.493   0.521  10.723 -0.2039 -0.0334  0.1354
 6777TIP3    H141822   1.558   0.487  10.783 -0.6902 -0.3134  0.5084
 6777TIP3    H241823   1.427   0.452  10.716 -1.1633  0.7770  0.8404
 6778TIP3   OH241824   4.223   0.753   1.734 -0.4520  0.4209 -0.7761
 6778TIP3    H141825   4.162   0.794   1.795 -1.0707 -0.8052 -0.5267
 6778TIP3    H241826   4.202   0.660   1.738 -0.1553  0.2374 -2.4666
 6779TIP3   OH241827   3.110   0.492   3.390 -0.3020 -0.7151 -0.7553
 6779TIP3    H141828   3.147   0.474   3.477 -0.2841  0.0652 -0.5912
 6779TIP3    H241829   3.062   0.413   3.367 -1.8024 -0.3044  0.7591
 6780TIP3   OH241830   1.188   2.506  12.120  0.4872 -0.0258 -0.2719
 6780TIP3    H141831   1.212   2.595  12.145 -0.8245 -0.3716  2.7416
 6780TIP3    H241832   1.267   2.470  12.081  1.1657  2.3079 -1.2099
 6781TIP3   OH241833   0.094   5.055  15.903  0.1928  0.0254 -0.2902
 6781TIP3    H141834   0.011   5.027  15.943  0.2351 -0.7866 -0.7562
 6781TIP3    H241835   0.099   5.006  15.821  0.0291  1.7828 -1.4118
 6782TIP3   OH241836   3.208   4.462   5.094 -0.9702 -0.4305 -0.3282
 6782TIP3    H141837   3.231   4.458   5.001 -0.4568 -1.2340 -0.1796
 6782TIP3    H241838   3.166   4.378   5.111  0.1281 -0.8497  0.4565
 6783TIP3   OH241839   2.824   4.586   1.257 -0.1143 -0.1813 -0.1893
 6783TIP3    H141840   2.812   4.602   1.351 -0.9005 -0.1309 -0.2855
 6783TIP3    H241841   2.899   4.641   1.233 -1.2070  1.4745  0.0009
 6784TIP3   OH241842   6.801   1.904   5.534 -0.1162 -0.1810  0.0035
 6784TIP3    H141843   6.853   1.954   5.596 -1.4390  1.2458  0.0253
 6784TIP3    H241844   6.784   1.821   5.578  0.4917  0.0961  0.7820
 6785TIP3   OH241845   6.277   1.101   4.532 -0.6463 -0.2278 -0.1860
 6785TIP3    H141846   6.344   1.035   4.514  0.3594  0.4603  0.8888
 6785TIP3    H241847   6.195   1.058   4.507  0.2176 -0.8162 -2.2544
 6786TIP3   OH241848   3.470   2.377  13.591  0.2583 -0.1037 -0.3843
 6786TIP3    H141849   3.511   2.308  13.538 -2.0340 -3.0342  1.3080
 6786TIP3    H241850   3.437   2.330  13.668 -0.7122  3.1203  1.3187
 6787TIP3   OH241851   6.289   3.003  13.221  0.5400  0.0723  0.1530
 6787TIP3    H141852   6.278   2.917  13.180 -1.6375  0.8375 -1.0255
 6787TIP3    H241853   6.354   2.988  13.290  1.9981 -1.9777 -1.5194
 6788TIP3   OH241854   2.249   3.209  12.395 -0.3085 -0.1858  0.2992
 6788TIP3    H141855   2.211   3.170  12.474 -0.3241 -0.8724 -0.0341
 6788TIP3    H241856   2.193   3.284  12.376 -0.6835 -0.3860  0.5911
 6789TIP3   OH241857   3.271   2.965   3.993  0.0448  0.4121  0.0235
 6789TIP3    H141858   3.215   2.900   4.035  0.4551  0.3432  0.4753
 6789TIP3    H241859   3.236   2.974   3.904 -0.0889 -0.3340 -0.0009
 6790TIP3   OH241860   3.477   0.282  13.351 -0.0205  0.1812  0.3465
 6790TIP3    H141861   3.384   0.281  13.325  0.2365  0.5511 -0.6435
 6790TIP3    H241862   3.476   0.265  13.445 -0.9257 -2.4410 -0.0554
 6791TIP3   OH241863   2.307   5.855   5.536  0.3670  0.2169  0.0564
 6791TIP3    H141864   2.225   5.809   5.549  0.3245  0.5699  1.1911
 6791TIP3    H241865   2.354   5.803   5.471 -0.7721  0.0605 -0.6747
 6792TIP3   OH241866   1.321   3.760   4.379 -0.0933 -0.4783 -0.0805
 6792TIP3    H141867   1.375   3.710   4.318 -2.0025  0.1198 -2.4548
 6792TIP3    H241868   1.246   3.703   4.396 -0.9751  0.4734 -0.6487
 6793TIP3   OH241869   3.092   0.361   5.655 -0.2234 -0.0476  0.2844
 6793TIP3    H141870   3.072   0.357   5.748 -0.7069 -1.1210  0.1613
 6793TIP3    H241871   3.175   0.314   5.646 -0.3850 -0.3058  0.1283
 6794TIP3   OH241872   2.623   6.079   0.201 -0.7937 -0.2243 -0.2180
 6794TIP3    H141873   2.572   6.055   0.278 -2.1718  2.6172 -0.1401
 6794TIP3    H241874   2.575   6.040   0.127 -1.3266 -0.1638  0.0951
 6795TIP3   OH241875   3.678   1.252   2.316 -0.1145 -0.2219 -0.0002
 6795TIP3    H141876   3.701   1.166   2.352 -1.8839  0.2877  2.5951
 6795TIP3    H241877   3.588   1.242   2.284 -0.3948  0.6778  0.4662
 6796TIP3   OH241878   1.280   2.262   5.202  0.1812  0.2314 -0.1418
 6796TIP3    H141879   1.326   2.293   5.280 -1.0397  1.4378  0.1267
 6796TIP3    H241880   1.215   2.330   5.183 -1.0708 -1.1098 -0.8777
 6797TIP3   OH241881   0.030   6.226   2.870  0.5020  0.5184 -0.0423
 6797TIP3    H141882   0.108   6.179   2.841  2.3621  3.4941 -0.1931
 6797TIP3    H241883   0.033   6.222   2.965  0.0543 -0.4746 -0.0514
 6798TIP3   OH241884   6.488   2.274  12.520 -0.2495  0.6699  0.1779
 6798TIP3    H141885   6.408   2.310  12.557 -0.2127  0.8998  0.0350
 6798TIP3    H241886   6.552   2.345  12.527 -0.0801  0.5129  0.2222
 6799TIP3   OH241887   1.765   4.084  14.907 -0.0384  0.1746 -0.6428
 6799TIP3    H141888   1.817   4.059  14.983 -1.1737  0.2064  0.1687
 6799TIP3    H241889   1.729   4.001  14.874 -1.7233  0.3791  0.5125
 6800TIP3   OH241890   0.782   2.464   4.675  0.4861  1.1400 -0.6484
 6800TIP3    H141891   0.740   2.546   4.651 -0.4410  0.5678 -1.0505
 6800TIP3    H241892   0.724   2.425   4.741  1.4211  1.2512  0.2613
 6801TIP3   OH241893   4.179   2.092   2.543  0.8103  0.3350 -0.0785
 6801TIP3    H141894   4.234   2.157   2.585  0.4494  0.7321 -0.2154
 6801TIP3    H241895   4.235   2.050   2.478  1.3475 -0.2236  0.7245
 6802TIP3   OH241896   2.117   2.754   3.517 -0.0160 -0.0918  0.0824
 6802TIP3    H141897   2.168   2.799   3.584  0.6910  1.3282 -1.3306
 6802TIP3    H241898   2.039   2.722   3.563  0.4174  0.8710  1.5552
 6803TIP3   OH241899   2.421   0.792  12.929 -0.0761 -0.6485 -0.2495
 6803TIP3    H141900   2.334   0.803  12.890 -0.2105 -1.3037 -0.1412
 6803TIP3    H241901   2.464   0.727  12.874  1.0845  1.0961 -1.4985
 6804TIP3   OH241902   2.398   6.732   1.850 -0.1664  0.2443  0.0295
 6804TIP3    H141903   2.482   6.711   1.810  0.3925  0.7134  0.9258
 6804TIP3    H241904   2.419   6.760   1.939 -1.5481 -3.2586  1.6512
 6805TIP3   OH241905   1.157   5.120  15.962 -0.9665 -0.0829 -0.0171
 6805TIP3    H141906   1.122   5.146  15.876 -0.8002  1.0654  0.2412
 6805TIP3    H241907   1.079   5.112  16.017 -0.9537  1.2401  0.2360
 6806TIP3   OH241908   4.133   1.780   6.281  0.3433 -0.2307 -0.0432
 6806TIP3    H141909   4.165   1.704   6.233  0.9593 -0.7645  1.1772
 6806TIP3    H241910   4.057   1.748   6.328  0.1715  0.1093 -0.0829
 6807TIP3   OH241911   0.617   4.385  12.858 -0.3733  0.3845  0.3585
 6807TIP3    H141912   0.558   4.321  12.818 -0.9640  1.3034 -0.2702
 6807TIP3    H241913   0.681   4.405  12.789 -0.0803  0.3368  0.6141
 6808TIP3   OH241914   3.435   4.187  15.128  0.5398  0.2732 -0.0625
 6808TIP3    H141915   3.449   4.152  15.040  2.4169 -0.3819  0.4308
 6808TIP3    H241916   3.506   4.250  15.140 -0.9700  2.0039  0.2309
 6809TIP3   OH241917   3.386   5.385  13.228 -0.2632  0.0681  0.0942
 6809TIP3    H141918   3.397   5.309  13.170  0.2859 -0.3286  0.7014
 6809TIP3    H241919   3.370   5.458  13.169  1.9037 -0.0241 -0.6953
 6810TIP3   OH241920   2.071   5.469   1.760  0.3926 -0.6170  0.1583
 6810TIP3    H141921   2.069   5.392   1.703 -1.1263 -2.0937  2.0899
 6810TIP3    H241922   1.998   5.457   1.821 -0.8990  3.1168 -0.3560
 6811TIP3   OH241923   0.004   0.818   3.284  0.5429 -0.1138 -1.1642
 6811TIP3    H141924  -0.068   0.808   3.222 -0.3043 -1.4856 -0.0332
 6811TIP3    H241925  -0.023   0.766   3.360  2.6847 -0.5753 -0.6609
 6812TIP3   OH241926   4.832   2.747   2.436  0.6924  0.0534  0.1245
 6812TIP3    H141927   4.746   2.768   2.399 -0.2103 -2.1665  0.7498
 6812TIP3    H241928   4.895   2.779   2.372 -0.6559  0.5152 -1.0219
 6813TIP3   OH241929   6.467   5.829   1.401 -0.0618 -0.6894  0.1014
 6813TIP3    H141930   6.374   5.837   1.420 -0.0006 -1.7789  0.9460
 6813TIP3    H241931   6.511   5.869   1.476  0.1598 -1.1100  0.1968
 6814TIP3   OH241932   4.835   2.367   6.653 -0.7424  0.7032  0.3036
 6814TIP3    H141933   4.780   2.326   6.719  1.3443  0.8800  2.2564
 6814TIP3    H241934   4.797   2.338   6.570 -1.1096 -2.8732  1.5227
 6815TIP3   OH241935   4.382   3.447   1.526 -0.2969  0.0421 -0.0663
 6815TIP3    H141936   4.292   3.480   1.520  0.0089  0.6837 -1.3156
 6815TIP3    H241937   4.436   3.525   1.542 -0.0934 -0.5269  2.5155
 6816TIP3   OH241938   5.339   4.141   4.208  0.1369 -0.1358 -0.7410
 6816TIP3    H141939   5.402   4.211   4.186 -1.0410  0.8313 -1.1655
 6816TIP3    H241940   5.366   4.111   4.294 -0.3070  2.0598  0.2509
 6817TIP3   OH241941   1.212   4.215  14.835  0.8564 -0.7061  0.0410
 6817TIP3    H141942   1.294   4.264  14.835  1.3154 -1.4587  0.6563
 6817TIP3    H241943   1.185   4.212  14.743 -0.1052  2.1933  0.1113
 6818TIP3   OH241944   5.101   2.510   4.543  0.6310 -0.1805 -0.0053
 6818TIP3    H141945   5.101   2.571   4.469  0.8243  0.0919  0.2154
 6818TIP3    H241946   5.094   2.567   4.620 -0.6906 -0.5119  0.1506
 6819TIP3   OH241947   1.205   2.315  12.512  0.1526 -0.1680 -0.6710
 6819TIP3    H141948   1.298   2.330  12.531  0.4066  0.5389 -2.2993
 6819TIP3    H241949   1.205   2.246  12.446 -0.4947 -0.3751 -0.4542
 6820TIP3   OH241950   6.120   3.053  10.961 -0.5302 -0.1341 -0.4710
 6820TIP3    H141951   6.081   3.037  10.875 -1.9242 -0.0984  0.1318
 6820TIP3    H241952   6.181   2.980  10.973 -1.9485 -1.3950 -0.5698
 6821TIP3   OH241953   4.705   0.680   5.723  0.3873  0.1334  0.3982
 6821TIP3    H141954   4.619   0.722   5.725  0.6533  0.7600 -0.5715
 6821TIP3    H241955   4.751   0.717   5.798 -0.5565 -1.0634  1.6078
 6822TIP3   OH241956   3.260   5.950  14.797  0.2818  0.0904  0.1880
 6822TIP3    H141957   3.283   5.949  14.890  0.1884 -0.3940  0.2036
 6822TIP3    H241958   3.244   6.043  14.778 -1.4727  0.0184  1.0902
 6823TIP3   OH241959   5.696   3.987   1.977  0.0992 -0.2402 -0.0329
 6823TIP3    H141960   5.610   3.967   2.014 -0.0287 -0.0692 -0.2354
 6823TIP3    H241961   5.680   3.994   1.883  0.0281  1.4534  0.0876
 6824TIP3   OH241962   3.232   2.619  10.935  0.1292  0.0970 -0.2382
 6824TIP3    H141963   3.312   2.572  10.909 -1.2888 -3.4667  1.2910
 6824TIP3    H241964   3.229   2.611  11.030 -2.0822  0.0636 -0.2637
 6825TIP3   OH241965   1.150   4.578  16.048  0.4814  0.6589 -0.4527
 6825TIP3    H141966   1.191   4.589  16.134 -1.0067 -1.0880  0.5553
 6825TIP3    H241967   1.067   4.626  16.054  0.3123  0.4283 -0.8614
 6826TIP3   OH241968   6.053   1.096  14.160 -0.5490 -0.0540 -0.0268
 6826TIP3    H141969   6.026   1.160  14.226  0.2745  0.4699 -0.1858
 6826TIP3    H241970   6.148   1.104  14.156 -0.6647  1.5041 -2.7795
 6827TIP3   OH241971   2.609   6.633   5.723 -0.6710 -0.1599 -0.3298
 6827TIP3    H141972   2.666   6.596   5.655  1.2569  1.2646  0.4179
 6827TIP3    H241973   2.553   6.560   5.750  0.8516 -1.6711 -1.0696
 6828TIP3   OH241974   5.231   2.056   0.328  0.3202  0.0681 -0.3568
 6828TIP3    H141975   5.231   2.137   0.379  0.0701 -0.9567  1.3538
 6828TIP3    H241976   5.317   2.053   0.286  0.2118  1.3539 -0.7089
 6829TIP3   OH241977   3.579   3.779  17.145 -0.6404 -0.7526  0.4120
 6829TIP3    H141978   3.520   3.771  17.071  0.5599  2.3567 -1.0621
 6829TIP3    H241979   3.647   3.713  17.130 -0.8384 -0.6877 -0.8224
 6830TIP3   OH241980   4.582   3.888  10.949 -0.9984 -0.1141 -0.1051
 6830TIP3    H141981   4.538   3.805  10.933 -2.1199  0.5502 -0.6254
 6830TIP3    H241982   4.673   3.873  10.921 -1.4606 -0.8283 -1.2911
 6831TIP3   OH241983   5.199   4.119   1.981  0.7179 -0.0814  0.3258
 6831TIP3    H141984   5.168   4.143   1.893  0.2363 -1.3863  0.1133
 6831TIP3    H241985   5.215   4.202   2.024 -1.3636  0.6518 -0.1735
 6832TIP3   OH241986   6.598   6.101  13.838  0.4358  0.3117 -0.5520
 6832TIP3    H141987   6.638   6.174  13.791  0.9909  0.0451 -0.4908
 6832TIP3    H241988   6.539   6.143  13.901  0.1144  0.6836 -1.0938
 6833TIP3   OH241989   0.541   2.600   2.354  0.0996 -0.1795 -0.1308
 6833TIP3    H141990   0.587   2.568   2.432 -0.0359  0.5549  0.2620
 6833TIP3    H241991   0.591   2.565   2.280  1.1244  0.3578  0.2869
 6834TIP3   OH241992   4.709   0.646  13.109  0.2700  0.7317 -0.3634
 6834TIP3    H141993   4.789   0.598  13.132  0.0549 -0.6117 -2.2190
 6834TIP3    H241994   4.728   0.737  13.134  1.6723  0.1461  0.8745
 6835TIP3   OH241995   1.982   2.381   0.739 -0.4333 -0.4534 -0.2251
 6835TIP3    H141996   1.887   2.371   0.752 -0.7727  0.5373 -1.7103
 6835TIP3    H241997   1.990   2.415   0.650  1.3135 -0.1776  0.0143
 6836TIP3   OH241998   1.486   6.500   1.039 -0.3898  0.4961  0.3835
 6836TIP3    H141999   1.502   6.560   0.966 -0.7669  0.3859  0.2108
 6836TIP3    H242000   1.478   6.414   0.999 -1.6880  0.5732  0.4152
 6837TIP3   OH242001   0.789   4.546   4.060  0.2872  0.2608 -0.7521
 6837TIP3    H142002   0.864   4.487   4.068  0.0795 -0.2139 -2.1460
 6837TIP3    H242003   0.713   4.493   4.084  0.1629  0.0985 -1.4769
 6838TIP3   OH242004   6.286   1.047   6.301  0.3407 -0.7275  0.2571
 6838TIP3    H142005   6.244   1.083   6.379  2.2847  1.3419  0.4224
 6838TIP3    H242006   6.344   0.978   6.335 -1.4454 -2.3620  0.1938
 6839TIP3   OH242007   0.993   6.051  13.079 -0.1866 -0.4771  0.2042
 6839TIP3    H142008   0.931   6.069  13.008 -0.2101 -0.7062  0.1644
 6839TIP3    H242009   1.068   6.010  13.035 -0.1136 -0.4277  0.2834
 6840TIP3   OH242010   3.360   0.751   0.190  0.2679  0.2024  0.2870
 6840TIP3    H142011   3.379   0.842   0.215 -0.3335  0.3645  0.1784
 6840TIP3    H242012   3.306   0.759   0.111  1.2399 -0.2820 -0.4467
 6841TIP3   OH242013   2.649   2.248   3.555 -0.2556  0.0135  0.0685
 6841TIP3    H142014   2.709   2.189   3.600 -1.1930 -3.0412 -2.3304
 6841TIP3    H242015   2.564   2.230   3.593 -0.2936  1.4973  0.7785
 6842TIP3   OH242016   2.322   1.920   3.267 -0.5752  0.3345 -0.6701
 6842TIP3    H142017   2.318   1.864   3.345  1.3429  0.3710 -0.5109
 6842TIP3    H242018   2.290   2.005   3.298 -0.0788  0.2786  0.0097
 6843TIP3   OH242019   3.763   0.385  16.794  0.4868  0.1348 -0.1277
 6843TIP3    H142020   3.697   0.360  16.859 -0.3289 -0.2288 -1.0795
 6843TIP3    H242021   3.800   0.467  16.828  0.9458 -0.6598  1.4012
 6844TIP3   OH242022   3.157   2.994  14.320  0.0313  0.2951  0.1752
 6844TIP3    H142023   3.141   3.036  14.236 -0.3033  1.5471  0.8402
 6844TIP3    H242024   3.185   3.066  14.378  2.7956 -0.9160  0.4903
 6845TIP3   OH242025   6.389   1.007   3.108  0.0529  0.0352  0.0243
 6845TIP3    H142026   6.480   0.993   3.080  0.4409  1.3383  0.5532
 6845TIP3    H242027   6.361   1.084   3.058 -0.0117  0.9745  1.4727
 6846TIP3   OH242028   2.815   4.946   0.724 -0.0738 -0.3900 -0.0937
 6846TIP3    H142029   2.903   4.944   0.760 -0.5130  1.6539  1.2761
 6846TIP3    H242030   2.815   5.021   0.663 -0.9199 -0.1908  0.1343
 6847TIP3   OH242031   3.083   2.013  11.254 -0.2066  0.2111  0.1876
 6847TIP3    H142032   3.023   2.013  11.329  2.4922 -0.6927  2.5524
 6847TIP3    H242033   3.037   1.965  11.186 -1.9459 -0.9637  2.0822
 6848TIP3   OH242034   2.938   2.585  15.538  0.7588  0.4263  0.0734
 6848TIP3    H142035   2.958   2.632  15.618 -1.4083 -0.1780  1.0453
 6848TIP3    H242036   2.989   2.504  15.545 -0.5354 -0.3267  1.6610
 6849TIP3   OH242037   1.900   2.751   5.153 -0.0914 -0.1247  1.1869
 6849TIP3    H142038   1.956   2.684   5.190  2.5828  0.4754 -1.4671
 6849TIP3    H242039   1.835   2.703   5.101  0.9099 -0.7155  0.4621
 6850TIP3   OH242040   0.384   0.561   0.782  0.8451  0.0353  0.2763
 6850TIP3    H142041   0.330   0.488   0.750  0.6235  0.0715  0.5558
 6850TIP3    H242042   0.323   0.635   0.787  1.5250  0.8308 -2.0354
 6851TIP3   OH242043   1.107   6.283   3.401 -0.2832 -0.1229 -0.0130
 6851TIP3    H142044   1.039   6.343   3.372 -0.9250 -1.1421 -0.6788
 6851TIP3    H242045   1.177   6.294   3.336 -1.0638 -1.2329 -1.1024
 6852TIP3   OH242046   6.129   1.738   0.808  0.4346 -0.6939 -0.1923
 6852TIP3    H142047   6.063   1.796   0.771  0.8944 -0.8639 -1.3008
 6852TIP3    H242048   6.081   1.681   0.867 -0.0138  0.9203  1.0973
 6853TIP3   OH242049   5.472   6.110  12.845  0.7373  0.3370 -0.2159
 6853TIP3    H142050   5.468   6.200  12.814 -2.2514 -0.4632 -2.7211
 6853TIP3    H242051   5.459   6.116  12.940 -1.6052  2.5051 -0.5770
 6854TIP3   OH242052   2.147   1.300   5.229 -0.2283  0.7938 -0.4997
 6854TIP3    H142053   2.229   1.321   5.184 -1.2914  1.3546 -2.2701
 6854TIP3    H242054   2.116   1.383   5.263  0.6142  0.3585  1.4500
 6855TIP3   OH242055   5.991   2.504  15.393 -0.1821  0.2766 -0.1062
 6855TIP3    H142056   5.912   2.456  15.421 -1.0781  0.6930 -1.8059
 6855TIP3    H242057   6.063   2.444  15.413 -1.1084 -0.9747 -0.3766
 6856TIP3   OH242058   6.711   2.245   4.492 -0.0497 -0.1375 -0.5277
 6856TIP3    H142059   6.797   2.236   4.534  1.1126  0.7665 -2.5523
 6856TIP3    H242060   6.723   2.207   4.405 -2.2812 -1.7148 -0.2108
 6857TIP3   OH242061   6.373   5.767   4.962  0.4467  0.8271 -0.4283
 6857TIP3    H142062   6.307   5.749   4.895  1.2797 -1.8358 -0.6845
 6857TIP3    H242063   6.339   5.725   5.041  1.8083 -0.7076 -0.5995
 6858TIP3   OH242064   2.724   4.531  11.190 -0.2076  0.0478  0.0336
 6858TIP3    H142065   2.720   4.450  11.139  0.4849 -0.8123  1.2895
 6858TIP3    H242066   2.649   4.581  11.161 -0.5999 -1.0051 -0.8466
 6859TIP3   OH242067   0.379   6.726  15.415 -0.7122 -0.1693 -0.5036
 6859TIP3    H142068   0.364   6.690  15.503 -0.5360  0.5939 -0.1545
 6859TIP3    H242069   0.324   6.804  15.411  1.3205  1.3867 -0.0196
 6860TIP3   OH242070   4.801   3.976   3.062 -0.4459  0.6144 -0.3981
 6860TIP3    H142071   4.755   3.994   3.144  0.1492 -0.3124  0.1586
 6860TIP3    H242072   4.891   4.007   3.078 -0.2429  0.1206 -0.5803
 6861TIP3   OH242073   0.244   5.135  13.794  0.2118 -0.2552 -0.2406
 6861TIP3    H142074   0.330   5.130  13.837  0.1877 -0.4835 -0.2141
 6861TIP3    H242075   0.264   5.151  13.702  0.3032 -0.7912 -0.3172
 6862TIP3   OH242076   3.752   2.110   0.580 -0.0519 -0.3455  0.0609
 6862TIP3    H142077   3.835   2.130   0.538  0.0983 -1.3147 -0.1179
 6862TIP3    H242078   3.764   2.023   0.616 -0.6795 -0.1141  0.8482
 6863TIP3   OH242079   1.132   0.960   1.963  0.2550 -0.3931  0.0692
 6863TIP3    H142080   1.191   0.919   1.900 -0.3041  0.2486 -0.8974
 6863TIP3    H242081   1.113   1.046   1.926 -0.1595 -0.0363  1.0781
 6864TIP3   OH242082   1.140   3.533   4.413 -0.1511 -0.1937  0.3281
 6864TIP3    H142083   1.165   3.481   4.337  1.9008 -1.2904  1.6848
 6864TIP3    H242084   1.160   3.478   4.488 -2.6067  0.6521  1.7351
 6865TIP3   OH242085   1.341   6.215   0.513 -0.0560  0.2910  0.0407
 6865TIP3    H142086   1.299   6.136   0.481  1.1881  0.5302 -2.3719
 6865TIP3    H242087   1.291   6.238   0.592 -1.5454 -1.8718 -0.1822
 6866TIP3   OH242088   3.614   0.953  14.252  0.2194 -0.3551 -0.1707
 6866TIP3    H142089   3.643   0.876  14.203 -1.0547 -0.6312 -0.5360
 6866TIP3    H242090   3.665   1.025  14.215  0.3971 -0.8048 -0.8332
 6867TIP3   OH242091   6.184   3.706  14.145 -0.7588  0.2459  0.2759
 6867TIP3    H142092   6.199   3.766  14.072  0.0538  0.8077  0.8818
 6867TIP3    H242093   6.125   3.640  14.110 -1.2525  1.1093 -0.5663
 6868TIP3   OH242094   2.992   1.004  14.578 -0.1382 -0.0170  0.0438
 6868TIP3    H142095   2.974   1.063  14.652  0.9168  1.0782 -0.5248
 6868TIP3    H242096   2.944   0.924  14.598  0.4045  0.1190  2.1086
 6869TIP3   OH242097   2.857   2.176  12.984  0.1783 -0.0080 -0.1284
 6869TIP3    H142098   2.916   2.179  13.059 -1.0162 -1.1862  0.9165
 6869TIP3    H242099   2.794   2.245  13.000 -2.1723 -2.4087  1.8878
 6870TIP3   OH242100   3.582   1.776   1.469  0.8464 -0.3639 -0.0521
 6870TIP3    H142101   3.523   1.804   1.539 -0.5586 -0.0020 -1.3302
 6870TIP3    H242102   3.524   1.745   1.400  1.9383  2.4367 -2.4521
 6871TIP3   OH242103   3.180   5.970   5.662 -0.5523 -0.2831 -0.2411
 6871TIP3    H142104   3.146   6.053   5.696 -0.9990 -0.2625 -0.7289
 6871TIP3    H242105   3.139   5.904   5.717 -1.8141 -0.2885 -1.1446
 6872TIP3   OH242106   4.938   4.166  13.448  0.3350 -0.4775  0.0294
 6872TIP3    H142107   4.844   4.162  13.462  0.1889  0.9496 -0.3796
 6872TIP3    H242108   4.963   4.077  13.424 -1.0036 -0.7349 -0.4731
 6873TIP3   OH242109   3.601   4.047   3.924 -0.0890  0.2048 -0.2993
 6873TIP3    H142110   3.668   4.058   3.857 -0.9209  1.9236 -0.9069
 6873TIP3    H242111   3.602   4.130   3.973 -1.8170  0.3207 -0.4058
 6874TIP3   OH242112   0.157   2.683   3.441 -0.0700 -0.0598 -0.4187
 6874TIP3    H142113   0.128   2.724   3.522 -1.5484 -1.1013 -0.3838
 6874TIP3    H242114   0.237   2.636   3.465 -1.2363 -1.5060  0.8049
 6875TIP3   OH242115   6.546   4.720   0.048  0.4105 -0.0979  0.0307
 6875TIP3    H142116   6.513   4.700   0.135 -1.0871 -0.0193 -0.5007
 6875TIP3    H242117   6.468   4.728  -0.007  1.3320 -0.4086 -1.3859
 6876TIP3   OH242118   1.832   1.691   3.981 -0.0841 -0.1703  0.1930
 6876TIP3    H142119   1.870   1.775   3.957 -0.6847  0.4175  1.2243
 6876TIP3    H242120   1.760   1.679   3.919  0.0061  0.0637  0.0402
 6877TIP3   OH242121   2.487   0.390  16.117 -0.3171  0.0650  0.6809
 6877TIP3    H142122   2.411   0.372  16.062  1.0500  1.1651 -1.7326
 6877TIP3    H242123   2.461   0.465  16.170 -0.5499  1.3004 -1.0815
 6878TIP3   OH242124   3.169   1.282  15.244  0.6448  0.9628  0.2151
 6878TIP3    H142125   3.079   1.304  15.223  0.4036 -0.0631  0.1214
 6878TIP3    H242126   3.164   1.198  15.289  1.6514  0.1303 -1.1180
 6879TIP3   OH242127   2.879   4.690  14.408  0.8689  0.3087 -0.3774
 6879TIP3    H142128   2.911   4.600  14.402  0.0833  0.1183 -2.3199
 6879TIP3    H242129   2.830   4.693  14.490  0.3530 -1.2315 -0.6098
 6880TIP3   OH242130   0.172   0.806   4.968 -0.1395 -0.4700  0.7551
 6880TIP3    H142131   0.136   0.729   4.923  1.5723 -0.3172 -1.0060
 6880TIP3    H242132   0.221   0.771   5.041  2.9932 -1.4322 -1.6037
 6881TIP3   OH242133   2.981   6.625   3.868 -0.4339 -0.3639 -0.2305
 6881TIP3    H142134   2.993   6.535   3.900  0.6132 -0.2192 -0.1961
 6881TIP3    H242135   3.013   6.680   3.940 -0.7959  0.0409 -0.3731
 6882TIP3   OH242136   2.216   6.515  15.593  0.1958 -0.2793 -0.2734
 6882TIP3    H142137   2.274   6.457  15.544  1.7927 -0.0737  1.2645
 6882TIP3    H242138   2.162   6.456  15.645  0.4823 -0.4329 -0.1483
 6883TIP3   OH242139   0.446   2.700   5.226  0.1767 -0.1405  0.1947
 6883TIP3    H142140   0.373   2.689   5.288 -0.9950 -1.2221 -1.3048
 6883TIP3    H242141   0.467   2.793   5.231 -1.1578  0.1592  0.8449
 6884TIP3   OH242142   5.631   2.328   2.314 -0.6350  0.2606 -0.0876
 6884TIP3    H142143   5.716   2.290   2.336  0.3532  0.9812 -2.3888
 6884TIP3    H242144   5.617   2.395   2.381  0.4609 -0.0855  0.5108
 6885TIP3   OH242145   4.373   4.644  14.504  0.6252 -0.0788 -0.4445
 6885TIP3    H142146   4.355   4.550  14.513 -1.2725  0.3296  0.5575
 6885TIP3    H242147   4.336   4.668  14.419  1.3667 -0.2791 -0.8296
 6886TIP3   OH242148   3.705   3.903   2.164  0.1354 -1.2048 -0.0452
 6886TIP3    H142149   3.749   3.927   2.082  0.4180 -0.5088  0.3050
 6886TIP3    H242150   3.682   3.987   2.204  1.3169 -1.4964  1.3038
 6887TIP3   OH242151   6.241   0.559  15.448 -0.0604 -0.4474  0.1659
 6887TIP3    H142152   6.270   0.518  15.366 -0.9758  0.2489 -0.5325
 6887TIP3    H242153   6.321   0.570  15.499  0.5205 -0.9495 -0.6119
 6888TIP3   OH242154   3.062   0.437  10.671 -0.4075  1.0255  0.2400
 6888TIP3    H142155   3.027   0.429  10.582 -0.5852  0.6081  0.3445
 6888TIP3    H242156   3.033   0.522  10.701  0.1650  1.4302 -0.3245
 6889TIP3   OH242157   1.270   3.511  14.726  0.3968 -0.5706  0.0708
 6889TIP3    H142158   1.328   3.446  14.687  0.5660 -0.0799 -0.5017
 6889TIP3    H242159   1.322   3.591  14.731 -0.2579 -0.0830 -0.5884
 6890TIP3   OH242160   3.460   1.455   5.441 -0.3212 -0.6122  0.1230
 6890TIP3    H142161   3.442   1.509   5.364 -0.0173  1.4687  1.4517
 6890TIP3    H242162   3.377   1.411   5.460 -1.4057  1.5204  0.5851
 6891TIP3   OH242163   6.475   3.863  14.184  0.4146  0.4361  0.2626
 6891TIP3    H142164   6.461   3.768  14.186  2.5963  0.0335 -0.5816
 6891TIP3    H242165   6.484   3.888  14.276  1.0537 -0.4273  0.4518
 6892TIP3   OH242166   5.303   1.454  16.091 -0.1406 -0.0200 -0.2522
 6892TIP3    H142167   5.383   1.497  16.059  0.4204  1.5296  2.9131
 6892TIP3    H242168   5.232   1.510  16.061  0.3145  1.0064  0.5251
 6893TIP3   OH242169   0.788   1.593  14.829 -0.4493  0.0965  0.4744
 6893TIP3    H142170   0.790   1.498  14.818 -1.4507  0.0241  0.8079
 6893TIP3    H242171   0.877   1.621  14.809  0.3863 -1.1216  2.1907
 6894TIP3   OH242172   6.681   6.796   3.922  0.0819  0.1041  0.3227
 6894TIP3    H142173   6.698   6.880   3.880 -1.5725 -0.0504 -0.7711
 6894TIP3    H242174   6.729   6.799   4.004  0.2660  2.0065  0.1763
 6895TIP3   OH242175   3.080   3.143  10.493 -0.0900 -0.3200 -0.2323
 6895TIP3    H142176   3.094   3.151  10.587 -0.8838 -0.3246 -0.1040
 6895TIP3    H242177   3.036   3.059  10.483 -2.3338  0.7730 -0.3028
 6896TIP3   OH242178   4.063   0.607  14.525 -0.1220 -0.0860  0.2185
 6896TIP3    H142179   4.045   0.617  14.618 -1.6636 -0.6464  0.0050
 6896TIP3    H242180   4.158   0.597  14.520  0.2950  2.2965  1.4995
 6897TIP3   OH242181   1.519   1.205   2.136 -0.5887 -0.2654 -0.3814
 6897TIP3    H142182   1.516   1.165   2.223  1.3644 -0.2982 -0.2903
 6897TIP3    H242183   1.427   1.219   2.113 -1.2202 -2.0325  0.8558
 6898TIP3   OH242184   6.618   3.966   3.876  0.6020  0.1222  0.2617
 6898TIP3    H142185   6.562   3.965   3.954  0.7174  0.4308  0.3506
 6898TIP3    H242186   6.652   4.056   3.872 -3.3532  1.8217 -2.9539
 6899TIP3   OH242187   4.322   6.547   4.828 -0.0422  0.0435  0.0616
 6899TIP3    H142188   4.297   6.588   4.911 -0.3928  0.9221 -0.4705
 6899TIP3    H242189   4.346   6.619   4.771 -0.0862 -0.5302 -0.7013
 6900TIP3   OH242190   2.498   3.646   0.865 -0.1501  0.3657  0.0440
 6900TIP3    H142191   2.522   3.736   0.885  0.6630  0.0216  0.7258
 6900TIP3    H242192   2.538   3.628   0.780 -1.2676  0.9798 -0.6374
 6901TIP3   OH242193   1.348   6.776  11.275  0.3792  0.1253 -0.8080
 6901TIP3    H142194   1.339   6.697  11.223 -0.9227  1.7017 -3.1569
 6901TIP3    H242195   1.259   6.795  11.307  0.4640  1.1392 -1.1178
 6902TIP3   OH242196   6.317   4.651  15.869  0.0299 -0.1031 -0.3827
 6902TIP3    H142197   6.361   4.605  15.797  1.5779 -0.5420  0.7978
 6902TIP3    H242198   6.367   4.628  15.947 -0.5873  1.7123  0.6101
 6903TIP3   OH242199   4.256   4.868  10.977  0.5804 -0.1138 -0.1104
 6903TIP3    H142200   4.321   4.806  11.010  2.0705  1.2680 -0.3373
 6903TIP3    H242201   4.172   4.824  10.990  1.5192 -1.7832  0.5731
 6904TIP3   OH242202   4.470   0.263  14.088  0.1652 -0.2954 -0.0594
 6904TIP3    H142203   4.470   0.316  14.008  1.4090 -1.6404 -1.0286
 6904TIP3    H242204   4.528   0.189  14.067  1.4144 -0.1374  2.4703
 6905TIP3   OH242205   1.564   5.757  17.089 -0.1208 -0.0261 -0.3969
 6905TIP3    H142206   1.533   5.738  17.001  0.2672  0.4580 -0.6443
 6905TIP3    H242207   1.565   5.673  17.134 -0.7048 -0.2109 -0.7340
 6906TIP3   OH242208   5.777   2.657   1.969  0.0253  0.0527 -0.5841
 6906TIP3    H142209   5.682   2.667   1.966  0.1419  1.0217 -1.9353
 6906TIP3    H242210   5.797   2.651   2.063 -1.6279 -3.6339 -0.2765
 6907TIP3   OH242211   6.307   0.096   4.664  0.6484  0.2336 -0.1208
 6907TIP3    H142212   6.271   0.181   4.688  1.8610  1.0933 -1.2368
 6907TIP3    H242213   6.233   0.047   4.628  0.2880  1.4397 -1.0718
 6908TIP3   OH242214   4.930   6.460   5.234  0.6287  0.3351  0.0192
 6908TIP3    H142215   5.011   6.444   5.284 -0.0240  1.6843  1.5902
 6908TIP3    H242216   4.878   6.382   5.249  1.4115 -0.3151 -0.5586
 6909TIP3   OH242217   4.999   0.195  11.970  0.4833  0.0075 -0.0655
 6909TIP3    H142218   4.962   0.227  11.888 -1.0402 -1.5306 -0.0589
 6909TIP3    H242219   5.073   0.252  11.988 -0.7678  2.0599 -1.1162
 6910TIP3   OH242220   6.268   1.598  12.531  0.4724 -0.6175  0.1377
 6910TIP3    H142221   6.284   1.650  12.610  1.0286 -0.6881  0.0767
 6910TIP3    H242222   6.196   1.541  12.554  1.8533 -1.9955  1.2629
 6911TIP3   OH242223   4.334   3.631   4.287 -0.1696 -0.3759  0.0680
 6911TIP3    H142224   4.249   3.662   4.318  0.3539  0.1954  0.9614
 6911TIP3    H242225   4.377   3.594   4.364  0.3678 -0.7149 -0.3849
 6912TIP3   OH242226   5.388   5.044  16.740 -0.1554 -0.2382 -0.2295
 6912TIP3    H142227   5.459   5.099  16.707  0.5252 -0.8329  0.2212
 6912TIP3    H242228   5.432   4.971  16.784 -0.9951 -1.7102 -1.6660
 6913TIP3   OH242229   2.475   3.696  12.368  0.4616 -0.2887 -0.5858
 6913TIP3    H142230   2.391   3.698  12.321  0.5418 -1.3634 -0.7873
 6913TIP3    H242231   2.504   3.605  12.362  1.6137  0.0596 -0.4533
 6914TIP3   OH242232   5.378   5.551  17.157 -0.3563 -0.3176  0.0318
 6914TIP3    H142233   5.311   5.580  17.095  0.7022 -0.0672 -1.0299
 6914TIP3    H242234   5.387   5.457  17.142 -2.1941 -0.8669  1.9136
 6915TIP3   OH242235   3.223   2.476  13.908  0.7026 -0.4800  0.4550
 6915TIP3    H142236   3.181   2.442  13.987  0.5083  1.2658  1.1539
 6915TIP3    H242237   3.222   2.572  13.919  1.2148 -0.2137 -1.3885
 6916TIP3   OH242238   5.591   3.026   4.202 -0.1682  0.3690  0.3109
 6916TIP3    H142239   5.498   3.005   4.189 -1.0008  2.5933  2.0776
 6916TIP3    H242240   5.592   3.120   4.220  2.7105  0.9250 -1.9417
 6917TIP3   OH242241   2.262   4.547   0.999  0.0447  0.0575  0.7766
 6917TIP3    H142242   2.292   4.484   1.066 -0.5374 -0.2038  0.7943
 6917TIP3    H242243   2.258   4.630   1.046 -0.7525 -0.1986  1.1866
 6918TIP3   OH242244   1.775   5.639  10.418 -0.7051  0.3987  0.2767
 6918TIP3    H142245   1.730   5.602  10.342  1.9118  1.6486 -2.0601
 6918TIP3    H242246   1.743   5.729  10.422 -0.0246  0.6660 -0.0902
 6919TIP3   OH242247   6.602   4.707  11.775 -0.0639 -0.3046  0.7854
 6919TIP3    H142248   6.591   4.667  11.688  0.8996 -1.4565  1.1607
 6919TIP3    H242249   6.619   4.799  11.756  0.4813 -0.5970 -0.2863
 6920TIP3   OH242250   3.663   0.619   6.221 -0.0934 -0.1860  0.1719
 6920TIP3    H142251   3.708   0.587   6.299 -1.8339 -1.0413  0.8656
 6920TIP3    H242252   3.606   0.689   6.253  1.5818  1.8054 -0.8987
 6921TIP3   OH242253   2.964   5.782   2.425 -0.4941 -0.0542 -0.4118
 6921TIP3    H142254   3.010   5.837   2.361  1.3460  0.4502  1.2252
 6921TIP3    H242255   2.986   5.821   2.510 -2.9647 -0.6099  0.5695
 6922TIP3   OH242256   1.135   3.747   4.105  0.5589  0.0440 -0.4095
 6922TIP3    H142257   1.207   3.704   4.058 -0.5779 -0.8446 -1.4030
 6922TIP3    H242258   1.069   3.678   4.115 -0.2888  0.9320  0.1844
 6923TIP3   OH242259   3.529   6.713  11.587 -0.3976  0.4137 -0.4157
 6923TIP3    H142260   3.597   6.645  11.584 -0.0274  0.7828 -0.5234
 6923TIP3    H242261   3.540   6.754  11.672 -0.2945  0.6695 -0.5524
 6924TIP3   OH242262   1.422   0.130  12.233 -0.1303 -0.1707 -0.2724
 6924TIP3    H142263   1.363   0.174  12.294 -0.4508 -0.7187 -0.1795
 6924TIP3    H242264   1.509   0.139  12.273 -0.1248  0.7600 -0.4814
 6925TIP3   OH242265   5.361   0.662   4.673  0.0440  0.4528  0.3542
 6925TIP3    H142266   5.341   0.614   4.593  0.0362  1.8038 -0.4801
 6925TIP3    H242267   5.455   0.648   4.687  0.1014  0.4392 -0.0484
 6926TIP3   OH242268   2.379   3.297   2.882  0.3779  0.6562  0.2728
 6926TIP3    H142269   2.322   3.262   2.951 -4.2801  5.7566 -0.3671
 6926TIP3    H242270   2.351   3.252   2.802  0.0162  0.4696  0.5036
 6927TIP3   OH242271   0.528   1.339   0.961  0.0719  0.0670  0.2873
 6927TIP3    H142272   0.474   1.385   1.025 -1.6785 -0.6090 -0.6468
 6927TIP3    H242273   0.566   1.408   0.907 -0.5577  0.5087  0.4108
 6928TIP3   OH242274   5.890   1.983  12.662  0.0237  0.1358 -0.4115
 6928TIP3    H142275   5.901   1.889  12.680  0.6469  0.4180  0.8121
 6928TIP3    H242276   5.971   2.008  12.618 -0.0928  0.1195 -0.6335
 6929TIP3   OH242277   0.682   4.521  13.477 -0.4331 -0.0051  0.4005
 6929TIP3    H142278   0.685   4.609  13.439  0.9710  0.3261  1.2012
 6929TIP3    H242279   0.709   4.463  13.405  1.0782  0.4918  0.5333
 6930TIP3   OH242280   5.829   6.491   4.444 -0.0644 -0.2510 -0.1774
 6930TIP3    H142281   5.802   6.474   4.534 -0.6755  0.9774 -0.1104
 6930TIP3    H242282   5.924   6.501   4.448  0.0419 -1.2267  0.1400
 6931TIP3   OH242283   0.176   5.489   1.735 -0.4527 -0.8447 -0.2016
 6931TIP3    H142284   0.219   5.449   1.810  0.3457 -2.5171 -1.4758
 6931TIP3    H242285   0.174   5.582   1.755  4.1096 -0.5449 -0.1309
 6932TIP3   OH242286   6.407   2.030   1.424 -0.0276 -0.1430 -0.3765
 6932TIP3    H142287   6.328   2.083   1.423 -0.3273 -0.5254  1.1564
 6932TIP3    H242288   6.391   1.962   1.359 -0.7915  0.0013 -0.3422
 6933TIP3   OH242289   5.467   6.327  12.342 -0.4567 -0.6339 -0.0486
 6933TIP3    H142290   5.381   6.368  12.348 -0.0556  0.9726 -3.0318
 6933TIP3    H242291   5.525   6.397  12.311  2.0453 -1.5909  2.0499
 6934TIP3   OH242292   3.916   0.031  11.232 -0.3363  0.0555  0.1208
 6934TIP3    H142293   3.824   0.005  11.221 -0.4092  0.7699 -1.1907
 6934TIP3    H242294   3.963  -0.019  11.165  0.1201  0.2666  0.2787
 6935TIP3   OH242295   1.600   1.445   4.081 -0.2213 -0.1988 -0.2447
 6935TIP3    H142296   1.546   1.486   4.149 -1.8853 -2.9733  0.2586
 6935TIP3    H242297   1.683   1.427   4.123  0.6507  2.6593 -0.5421
 6936TIP3   OH242298   1.179   3.106   3.709  0.0253  0.1455 -0.2607
 6936TIP3    H142299   1.169   3.138   3.620 -1.7761  0.4787  0.0403
 6936TIP3    H242300   1.254   3.155   3.744  1.3994 -0.7109 -1.8648
 6937TIP3   OH242301   3.460   4.573   3.681  0.5077 -0.3661  0.1515
 6937TIP3    H142302   3.481   4.621   3.761  0.9596 -1.0339  0.4463
 6937TIP3    H242303   3.536   4.586   3.625 -1.0417  2.6727 -1.4696
 6938TIP3   OH242304   0.703   2.451  14.344 -0.5875 -0.5135 -0.1989
 6938TIP3    H142305   0.687   2.545  14.349 -0.9762 -0.6501  1.5060
 6938TIP3    H242306   0.735   2.437  14.254  0.0511  1.3151 -0.2947
 6939TIP3   OH242307   0.236   5.553   5.084  0.3734  0.0026  0.4378
 6939TIP3    H142308   0.264   5.476   5.036  1.3025  0.0988  0.8021
 6939TIP3    H242309   0.179   5.600   5.023 -0.1195 -0.9090  0.1805
 6940TIP3   OH242310   4.955   3.880   3.500  0.0631 -0.3873  0.4202
 6940TIP3    H142311   5.048   3.858   3.504 -0.1003 -0.9857  1.4719
 6940TIP3    H242312   4.947   3.940   3.426  1.5760  1.1416  1.4410
 6941TIP3   OH242313   6.798   6.517  14.267 -0.2373  0.0201  0.1728
 6941TIP3    H142314   6.782   6.601  14.225  1.0560  0.6196  0.8157
 6941TIP3    H242315   6.737   6.515  14.341  0.1957  0.7070  0.5568
 6942TIP3   OH242316   1.088   4.001   3.980 -0.0652 -0.2218  0.4667
 6942TIP3    H142317   1.007   4.029   4.024  0.8834  0.8712  1.6019
 6942TIP3    H242318   1.090   3.906   3.992 -2.1889 -0.5842 -1.4211
 6943TIP3   OH242319   0.298   5.345  15.392 -0.1683  0.3336  0.3540
 6943TIP3    H142320   0.305   5.327  15.299 -1.4554  3.2745 -0.4472
 6943TIP3    H242321   0.208   5.320  15.415 -0.6351  1.7485  0.1791
 6944TIP3   OH242322   5.105   0.665   3.421  0.0603  0.5074 -0.7728
 6944TIP3    H142323   5.033   0.642   3.480  1.2694  0.1494  0.6339
 6944TIP3    H242324   5.092   0.758   3.403  0.9224  1.2652  2.0292
 6945TIP3   OH242325   3.904   5.354  16.588  0.8607  0.2252 -0.1037
 6945TIP3    H142326   3.937   5.444  16.587 -1.0908  1.0049  0.7402
 6945TIP3    H242327   3.981   5.300  16.571  2.1968  2.0185 -0.0215
 6946TIP3   OH242328   3.291   6.546   0.956 -1.0800  0.1975 -0.7403
 6946TIP3    H142329   3.277   6.456   0.927 -0.6202  0.6560 -2.5299
 6946TIP3    H242330   3.213   6.567   1.007 -1.0497 -1.2982 -0.0281
 6947TIP3   OH242331   0.522   3.458  10.248  0.3355  0.1115  0.2088
 6947TIP3    H142332   0.429   3.447  10.227  0.6429 -1.5176 -0.4457
 6947TIP3    H242333   0.544   3.381  10.299  1.7078 -0.3895 -1.0714
 6948TIP3   OH242334   3.230   5.412  13.707  0.9927  0.2683  0.2122
 6948TIP3    H142335   3.240   5.503  13.734  0.8549 -0.0976  1.5480
 6948TIP3    H242336   3.319   5.379  13.699  1.0798 -0.2869  2.6732
 6949TIP3   OH242337   3.730   2.955  14.444  1.1833  0.1133 -0.0424
 6949TIP3    H142338   3.697   3.024  14.503 -0.8266  0.5695 -1.6050
 6949TIP3    H242339   3.759   2.886  14.503 -0.4976  0.6606  1.5226
 6950TIP3   OH242340   3.151   0.271   3.908 -0.4842  0.5447 -0.5439
 6950TIP3    H142341   3.172   0.358   3.874 -0.0063  1.3972  1.7489
 6950TIP3    H242342   3.176   0.275   4.000  0.3146 -2.3019 -0.5450
 6951TIP3   OH242343   2.901   4.972   4.073 -0.0796  0.2273  0.3719
 6951TIP3    H142344   2.949   4.943   4.151  1.0685 -0.6965 -0.6380
 6951TIP3    H242345   2.818   5.005   4.107  1.6852  3.1578  2.3643
 6952TIP3   OH242346   1.623   4.426  14.528 -0.7742  0.2843 -0.3578
 6952TIP3    H142347   1.690   4.474  14.575  0.4826 -1.2749 -0.4808
 6952TIP3    H242348   1.670   4.357  14.482 -2.4816 -1.1089 -0.1455
 6953TIP3   OH242349   3.986   1.969   4.896 -0.2870 -0.0376  0.1410
 6953TIP3    H142350   3.977   2.032   4.824 -0.2202 -0.7664 -0.5103
 6953TIP3    H242351   4.021   2.021   4.968 -2.9221  1.3552  0.5670
 6954TIP3   OH242352   5.270   4.729  15.044  0.2815  0.2701  0.1753
 6954TIP3    H142353   5.302   4.816  15.020  0.7055 -0.4018 -1.9102
 6954TIP3    H242354   5.211   4.705  14.973 -2.4874  0.1576  2.3510
 6955TIP3   OH242355   1.097   5.371  10.963  0.4380 -0.4119  0.6034
 6955TIP3    H142356   1.075   5.280  10.983  0.1355 -0.2060  1.2470
 6955TIP3    H242357   1.115   5.411  11.049 -0.8544  0.4967  0.4761
 6956TIP3   OH242358   3.319   3.534  13.926  0.2787  0.6612  0.7598
 6956TIP3    H142359   3.336   3.544  13.832  0.3424  0.7492  0.7808
 6956TIP3    H242360   3.225   3.550  13.935  0.0074 -0.6856  0.5202
 6957TIP3   OH242361   6.754   0.022  12.614 -0.1057  0.3888 -0.0912
 6957TIP3    H142362   6.844   0.004  12.641 -0.8263 -1.0252  1.5956
 6957TIP3    H242363   6.705   0.026  12.696 -1.7960 -0.2081 -1.0121
 6958TIP3   OH242364   5.184   2.994   5.129  0.4548  0.3054 -0.1083
 6958TIP3    H142365   5.224   2.908   5.117  3.4955  1.4582  0.9250
 6958TIP3    H242366   5.233   3.053   5.071 -2.6339  1.1934 -2.0683
 6959TIP3   OH242367   2.383   0.365  14.308  0.0927  0.2044 -0.0190
 6959TIP3    H142368   2.340   0.325  14.384  0.8828 -2.4206 -0.8715
 6959TIP3    H242369   2.320   0.354  14.237  1.2757 -1.9130 -0.8264
 6960TIP3   OH242370   3.593   5.873   0.349 -0.1901  0.2235  0.6917
 6960TIP3    H142371   3.588   5.911   0.437 -2.0022  0.4974  0.4972
 6960TIP3    H242372   3.619   5.946   0.293  1.3435 -0.0372  1.0218
 6961TIP3   OH242373   1.161   3.464  15.475  0.1115 -0.7593 -0.9682
 6961TIP3    H142374   1.194   3.375  15.458 -0.0254 -0.4304 -3.2595
 6961TIP3    H242375   1.240   3.518  15.479  0.2020 -0.9552  0.5362
 6962TIP3   OH242376   2.849   5.861   0.339 -0.3192 -0.2254  0.0645
 6962TIP3    H142377   2.770   5.911   0.323  0.2899  0.8694  0.4018
 6962TIP3    H242378   2.920   5.925   0.335  0.6731 -1.3473 -1.2610
 6963TIP3   OH242379   6.064   4.823  16.677 -0.5431  0.0043 -0.0800
 6963TIP3    H142380   6.039   4.761  16.608  1.5722  0.2351 -1.1247
 6963TIP3    H242381   6.137   4.872  16.640  0.1569  0.6889  2.0502
 6964TIP3   OH242382   4.617   6.354   0.781 -0.5484 -0.0178 -0.3573
 6964TIP3    H142383   4.624   6.448   0.792 -0.3317 -0.1572  0.8921
 6964TIP3    H242384   4.640   6.338   0.690 -1.4444  1.2078 -0.8232
 6965TIP3   OH242385   2.490   2.503  12.705 -0.6362  0.2598 -0.2928
 6965TIP3    H142386   2.555   2.454  12.655  0.1396  2.5457 -1.7380
 6965TIP3    H242387   2.469   2.448  12.780  2.0791 -1.0939 -0.4105
 6966TIP3   OH242388   4.472   1.796  13.016 -0.0343 -0.0959 -0.1353
 6966TIP3    H142389   4.496   1.713  13.058  1.6329 -0.6763 -2.0622
 6966TIP3    H242390   4.553   1.846  13.014 -0.7356  1.0620 -0.1625
 6967TIP3   OH242391   5.305   6.589   3.615  0.1317 -0.5247  0.4863
 6967TIP3    H142392   5.387   6.587   3.664  0.1150 -1.3874  0.4881
 6967TIP3    H242393   5.269   6.501   3.624 -0.1407 -0.5425 -0.6250
 6968TIP3   OH242394   0.848   4.484  13.223  0.4393 -0.0026  0.2458
 6968TIP3    H142395   0.924   4.523  13.266 -0.3901  2.0222  0.0303
 6968TIP3    H242396   0.884   4.431  13.152  1.6638  0.8259  0.2164
 6969TIP3   OH242397   6.650   3.964   4.335 -0.4419 -0.4474  0.0710
 6969TIP3    H142398   6.615   3.884   4.375  1.3629 -1.5234 -0.3672
 6969TIP3    H242399   6.663   4.024   4.409 -1.0283 -0.8633  0.5234
 6970TIP3   OH242400   4.001   0.595   2.383 -0.1748  0.0920  0.4794
 6970TIP3    H142401   4.070   0.642   2.431 -0.4003 -0.3680  1.2815
 6970TIP3    H242402   4.045   0.521   2.342 -0.1247  0.0021  0.6934
 6971TIP3   OH242403   4.302   1.620   0.990 -0.3625  0.0188 -0.2972
 6971TIP3    H142404   4.223   1.600   0.941 -0.0581  2.0660 -1.7346
 6971TIP3    H242405   4.373   1.582   0.938 -0.2424 -0.1558 -0.0099
 6972TIP3   OH242406   2.392   2.157   4.726  0.4710  0.2716 -0.3629
 6972TIP3    H142407   2.355   2.114   4.649  1.4855 -2.7076  0.6319
 6972TIP3    H242408   2.479   2.117   4.736  1.0414  1.8083  1.3568
 6973TIP3   OH242409   4.217   1.809   3.613 -0.3305  0.2634 -0.1671
 6973TIP3    H142410   4.261   1.806   3.697 -0.7486 -3.3209  0.0814
 6973TIP3    H242411   4.283   1.780   3.550 -0.8055  0.1673 -0.6297
 6974TIP3   OH242412   0.019   4.766   6.809 -0.1877  0.3871  0.2469
 6974TIP3    H142413  -0.033   4.817   6.871 -1.6376  0.2708 -0.8192
 6974TIP3    H242414   0.102   4.749   6.855 -0.0939  2.6905  1.0831
 6975TIP3   OH242415   5.093   0.028   0.901  0.3611  0.5768  0.2642
 6975TIP3    H142416   5.177  -0.007   0.869  0.9595  0.7110  1.6326
 6975TIP3    H242417   5.084  -0.008   0.989 -0.8124  0.9327  0.3009
 6976TIP3   OH242418   4.615   3.611   3.307  0.1861 -0.2430 -0.1681
 6976TIP3    H142419   4.536   3.559   3.291  0.0722  0.0623 -0.6407
 6976TIP3    H242420   4.593   3.698   3.274  0.5306 -0.0117  0.2025
 6977TIP3   OH242421   1.935   2.873  11.174  0.6310 -0.1184 -0.0386
 6977TIP3    H142422   1.925   2.962  11.141  0.7123  0.6117  1.8081
 6977TIP3    H242423   1.863   2.824  11.134  0.2264  0.9176 -0.6050
 6978TIP3   OH242424   0.307   3.104   0.955  0.1497 -0.2248  0.8031
 6978TIP3    H142425   0.272   3.152   1.030  1.6903  3.5844 -0.6598
 6978TIP3    H242426   0.394   3.077   0.983  0.4637  0.6071  0.6639
 6979TIP3   OH242427   6.686   4.692   3.875 -0.2934 -0.1994  0.2261
 6979TIP3    H142428   6.602   4.737   3.870  0.4838  1.2230 -0.5365
 6979TIP3    H242429   6.698   4.653   3.789 -0.4486 -0.9723  0.5397
 6980TIP3   OH242430   2.910   3.824  10.304 -0.4682  0.0224  0.1029
 6980TIP3    H142431   2.974   3.870  10.357  0.0336 -1.7780  1.1657
 6980TIP3    H242432   2.826   3.841  10.346 -0.3882  0.4754  0.0859
 6981TIP3   OH242433   3.415   3.268  13.214  0.2764  0.5150  0.4596
 6981TIP3    H142434   3.435   3.229  13.299 -0.3436  0.9613  0.8200
 6981TIP3    H242435   3.451   3.206  13.150  2.9331  1.3176  1.0355
 6982TIP3   OH242436   0.197   2.007   4.252  0.4701 -0.3476  0.4950
 6982TIP3    H142437   0.287   1.975   4.252  0.5279 -0.2432 -1.0272
 6982TIP3    H242438   0.179   2.029   4.161 -1.0656 -0.2578  0.7910
 6983TIP3   OH242439   1.882   1.978   5.897 -0.2838  0.2226  0.2441
 6983TIP3    H142440   1.907   1.978   5.990 -0.8752  3.4897  0.5166
 6983TIP3    H242441   1.963   1.999   5.851 -0.0657 -1.0661 -0.0022
 6984TIP3   OH242442   4.699   6.218  15.479 -0.8711 -0.1797 -0.0280
 6984TIP3    H142443   4.715   6.136  15.525 -0.7387  0.6501  1.4740
 6984TIP3    H242444   4.765   6.221  15.410  0.1138 -0.6236  0.8791
 6985TIP3   OH242445   2.967   3.572   1.855  0.3687  0.1573  0.0512
 6985TIP3    H142446   2.968   3.662   1.889  1.5132  0.0050  0.4984
 6985TIP3    H242447   3.035   3.527   1.907 -1.7025 -1.5710  1.4476
 6986TIP3   OH242448   2.332   4.831  13.870  0.2999 -0.4903  0.2770
 6986TIP3    H142449   2.348   4.906  13.927  1.3209 -1.2098  0.9704
 6986TIP3    H242450   2.403   4.770  13.891  1.1837 -0.4803 -2.2830
 6987TIP3   OH242451   5.466   0.681   3.952  0.8168  0.2387  0.5181
 6987TIP3    H142452   5.430   0.755   3.903  2.4516  0.9243  0.2813
 6987TIP3    H242453   5.560   0.686   3.938  0.9306 -2.5502 -0.3946
 6988TIP3   OH242454   0.789   3.986   3.501 -0.1258  0.0210  0.3252
 6988TIP3    H142455   0.880   3.981   3.531  0.1553  0.5090 -0.4142
 6988TIP3    H242456   0.741   3.930   3.562  0.5535  0.3129  1.1498
 6989TIP3   OH242457   2.486   0.108  12.083  0.2331  0.2832 -0.3164
 6989TIP3    H142458   2.515   0.072  11.999  1.0236 -1.4204  0.6299
 6989TIP3    H242459   2.465   0.031  12.135 -2.4266  1.3559  0.3367
 6990TIP3   OH242460   5.149   3.655  16.280  0.2901 -0.3742  0.3365
 6990TIP3    H142461   5.177   3.598  16.208 -0.2803 -0.7333  0.3977
 6990TIP3    H242462   5.163   3.743  16.247  3.3245 -0.4688  1.0318
 6991TIP3   OH242463   3.253   0.309   5.255  0.6176 -0.3963  0.1794
 6991TIP3    H142464   3.310   0.359   5.314 -0.9907  0.6510  0.9279
 6991TIP3    H242465   3.197   0.258   5.314 -1.9708  1.7088 -0.2127
 6992TIP3   OH242466   3.707   6.185   4.865  0.2426  0.3984 -0.2592
 6992TIP3    H142467   3.644   6.175   4.794 -1.3913  2.0976  0.8873
 6992TIP3    H242468   3.759   6.104   4.862 -3.0663 -1.9089 -0.1697
 6993TIP3   OH242469   3.577   2.638  15.091 -0.3389 -0.4526 -0.3925
 6993TIP3    H142470   3.584   2.705  15.159 -0.5847  2.0923 -2.7048
 6993TIP3    H242471   3.483   2.619  15.087 -0.5628  0.7082 -1.1417
 6994TIP3   OH242472   3.772   6.708   0.670  0.4962  0.8304  0.1054
 6994TIP3    H142473   3.711   6.679   0.602  0.2719 -0.4588  0.8314
 6994TIP3    H242474   3.765   6.803   0.669 -1.2488  0.7355 -0.1016
 6995TIP3   OH242475   4.972   4.078  16.734  0.2406 -0.0534  0.5718
 6995TIP3    H142476   5.004   3.988  16.722 -0.2397 -0.0366 -1.2409
 6995TIP3    H242477   5.021   4.112  16.809  1.4099 -1.3849  0.4507
 6996TIP3   OH242478   4.844   2.224  13.622 -0.1687  1.0704 -0.1926
 6996TIP3    H142479   4.766   2.280  13.630 -1.0223 -0.3234  2.1649
 6996TIP3    H242480   4.918   2.283  13.639 -0.9029  1.8847  0.2229
 6997TIP3   OH242481   0.452   3.469   0.847  0.3477  0.3391  0.4785
 6997TIP3    H142482   0.476   3.469   0.940  0.3547  0.4323  0.4766
 6997TIP3    H242483   0.356   3.468   0.848  0.3260  1.4368  0.4924
 6998TIP3   OH242484   3.500   6.612  15.171 -0.4408  0.2771  0.2711
 6998TIP3    H142485   3.437   6.668  15.126 -0.3524  0.5118  0.4324
 6998TIP3    H242486   3.585   6.638  15.135 -0.3397  0.6733  0.7752
 6999TIP3   OH242487   2.408   4.212  16.812  0.1344 -0.3685  0.2792
 6999TIP3    H142488   2.389   4.139  16.871 -0.0448 -1.0398 -0.5993
 6999TIP3    H242489   2.491   4.189  16.771 -0.0997 -0.2581 -0.2672
 7000TIP3   OH242490   2.965   4.993   5.243 -0.1766  0.1854  0.2125
 7000TIP3    H142491   2.913   4.930   5.195 -1.8329  2.4709 -1.1681
 7000TIP3    H242492   3.056   4.970   5.222 -0.7760  0.6515 -3.6432
 7001TIP3   OH242493   4.355   1.737   1.535  0.1758  0.1459  1.0589
 7001TIP3    H142494   4.318   1.798   1.600 -1.6159  0.0099  0.2372
 7001TIP3    H242495   4.320   1.652   1.560 -1.9913  0.3298 -0.9870
 7002TIP3   OH242496   3.678   1.908  16.786 -0.2932 -0.0579  0.5689
 7002TIP3    H142497   3.694   1.903  16.692  0.9191 -0.9833  0.7885
 7002TIP3    H242498   3.717   1.991  16.813 -0.3222  0.0397  0.3074
 7003TIP3   OH242499   5.438   1.570  11.886  0.8500 -0.0665  0.0044
 7003TIP3    H142500   5.441   1.572  11.982 -0.8968 -0.8586  0.1192
 7003TIP3    H242501   5.496   1.641  11.859  0.1647  1.2060  1.6835
 7004TIP3   OH242502   0.711   2.805   3.475  0.1877 -0.4970 -0.5552
 7004TIP3    H142503   0.736   2.810   3.567 -0.0402 -0.6244 -0.4855
 7004TIP3    H242504   0.772   2.863   3.430 -0.9158  1.0633 -0.0847
 7005TIP3   OH242505   6.597   4.049  11.686 -0.3847  0.3059  0.4995
 7005TIP3    H142506   6.682   4.004  11.688  0.0694  1.1873  2.3934
 7005TIP3    H242507   6.562   4.027  11.600  1.8570  0.0952 -0.4495
 7006TIP3   OH242508   6.597   1.810   3.984  0.1777  0.2485 -0.5213
 7006TIP3    H142509   6.629   1.809   4.074 -3.0684 -0.5199  0.7976
 7006TIP3    H242510   6.553   1.725   3.974  1.8704 -0.4147 -3.5055
 7007TIP3   OH242511   2.604   3.652   2.187 -0.1934 -0.2394 -0.1941
 7007TIP3    H142512   2.611   3.557   2.193 -1.0747 -0.4887 -2.2735
 7007TIP3    H242513   2.564   3.668   2.101 -0.4754  1.9922  0.2875
 7008TIP3   OH242514   5.491   2.426  11.985  0.0427  0.2319 -0.0333
 7008TIP3    H142515   5.526   2.503  11.940  1.1901 -1.3842 -2.0554
 7008TIP3    H242516   5.423   2.393  11.927 -1.9306  0.8544  1.8190
 7009TIP3   OH242517   5.453   1.554   5.758  0.4447  0.7150  0.1634
 7009TIP3    H142518   5.456   1.484   5.693  0.5014 -0.3583  1.2870
 7009TIP3    H242519   5.363   1.588   5.752  0.0892 -0.1659  0.3122
 7010TIP3   OH242520   4.321   3.655  15.085  0.6859  0.0734 -0.2803
 7010TIP3    H142521   4.392   3.649  15.148  1.1914  0.8618 -0.7524
 7010TIP3    H242522   4.272   3.733  15.112  0.1012 -0.3555 -0.0706
 7011TIP3   OH242523   3.951   3.991   0.662  0.0864 -0.3937  0.5851
 7011TIP3    H142524   3.974   4.067   0.609  3.5145 -2.7002 -1.6169
 7011TIP3    H242525   3.884   3.945   0.611 -0.6974  0.1690  1.0729
 7012TIP3   OH242526   6.004   3.965  13.980  0.0331  0.2511 -0.5868
 7012TIP3    H142527   5.950   4.031  14.023 -1.2373 -2.1437  1.7920
 7012TIP3    H242528   6.094   3.996  13.993 -0.5447  2.1289 -0.7466
 7013TIP3   OH242529   4.269   5.135   4.463 -0.1844  0.7083 -0.3475
 7013TIP3    H142530   4.327   5.189   4.517 -0.7686 -0.1462  1.1721
 7013TIP3    H242531   4.321   5.117   4.384  0.4545  2.4772 -0.3857
 7014TIP3   OH242532   0.623   5.607   0.649  0.0007  0.2262  0.1108
 7014TIP3    H142533   0.571   5.652   0.583  0.3179  0.3259 -0.0724
 7014TIP3    H242534   0.656   5.529   0.606  1.9004  1.3159 -0.5122
 7015TIP3   OH242535   0.110   1.080   0.303  0.7476 -0.0606  0.2340
 7015TIP3    H142536   0.168   1.014   0.343  0.0305 -0.4522  0.6591
 7015TIP3    H242537   0.023   1.039   0.306  0.3600  0.7503  0.1276
 7016TIP3   OH242538   3.960   1.986   2.430 -0.6649 -0.0794  0.2021
 7016TIP3    H142539   4.028   2.041   2.470 -0.3439 -0.4832  0.2164
 7016TIP3    H242540   4.007   1.911   2.395 -1.1415 -0.5273  0.5080
 7017TIP3   OH242541   1.212   1.826   0.493 -0.6733  0.5846 -0.1146
 7017TIP3    H142542   1.168   1.824   0.578 -0.7692  1.4910 -0.1406
 7017TIP3    H242543   1.141   1.838   0.429 -0.4235  1.9386 -0.1634
 7018TIP3   OH242544   6.317   0.097   1.732  0.3318 -0.0015 -0.0297
 7018TIP3    H142545   6.342   0.174   1.783 -2.7830  0.8497  0.3945
 7018TIP3    H242546   6.260   0.132   1.664 -2.3869 -2.0326  1.0705
 7019TIP3   OH242547   4.146   2.043   2.176  0.3822 -0.3613 -0.4373
 7019TIP3    H142548   4.225   2.008   2.217  0.9453  0.0245 -1.1803
 7019TIP3    H242549   4.126   1.980   2.106 -1.1344 -1.5545  0.9949
 7020TIP3   OH242550   1.970   5.857   5.796 -0.1980  0.3321  0.3377
 7020TIP3    H142551   1.960   5.927   5.861  0.4362  2.0032 -1.2692
 7020TIP3    H242552   1.971   5.777   5.847 -2.4098  1.3443  2.1670
 7021TIP3   OH242553   1.522   1.662  13.412  0.6842 -0.0893  0.2823
 7021TIP3    H142554   1.589   1.637  13.476  2.1405  0.2150 -1.0745
 7021TIP3    H242555   1.517   1.757  13.419  0.6732 -0.0780  0.1245
 7022TIP3   OH242556   5.665   2.663   5.955  0.7701  0.0358 -0.2182
 7022TIP3    H142557   5.571   2.680   5.949  0.4617 -1.7960 -1.2147
 7022TIP3    H242558   5.706   2.740   5.915 -0.3126  0.6454 -0.1792
 7023TIP3   OH242559   0.277   6.273   6.238  0.7278 -0.1100  0.3962
 7023TIP3    H142560   0.222   6.309   6.308 -1.4044 -1.7526 -0.3408
 7023TIP3    H242561   0.345   6.224   6.284  0.1955 -0.0019  1.3224
 7024TIP3   OH242562   0.895   5.171  15.898 -0.2907  0.2809  0.4495
 7024TIP3    H142563   0.801   5.184  15.893 -0.4244 -0.9168 -0.7015
 7024TIP3    H242564   0.933   5.252  15.864 -0.8458  1.1497  1.7959
 7025TIP3   OH242565   6.281   4.934   0.166 -0.9212  0.2111  0.0889
 7025TIP3    H142566   6.363   4.956   0.209 -0.6576  1.4335 -0.9691
 7025TIP3    H242567   6.265   4.843   0.189  1.0698 -0.2629 -0.2281
 7026TIP3   OH242568   0.021   5.672   6.348  0.3340  0.1305 -0.1798
 7026TIP3    H142569  -0.027   5.599   6.309  0.3818  0.2027 -0.3730
 7026TIP3    H242570   0.111   5.640   6.358  0.4299  0.2766 -0.5693
 7027TIP3   OH242571   6.138   4.569   3.095 -0.2468  0.0591  0.1994
 7027TIP3    H142572   6.138   4.608   3.008 -2.7583  0.3848  0.2777
 7027TIP3    H242573   6.126   4.643   3.154 -0.0641 -0.3307  0.7372
 7028TIP3   OH242574   2.023   4.302  13.709 -0.7964 -0.1875 -0.0862
 7028TIP3    H142575   2.052   4.270  13.794 -1.4129 -1.3127 -0.2699
 7028TIP3    H242576   1.948   4.359  13.730 -0.0779  0.6715  0.2045
 7029TIP3   OH242577   2.900   0.389   5.266  0.5611  0.9545  0.0139
 7029TIP3    H142578   2.836   0.451   5.232 -0.0792  0.1961 -0.1968
 7029TIP3    H242579   2.932   0.430   5.347 -2.1976  0.1850  1.6343
 7030TIP3   OH242580   3.710   1.433  13.909 -0.2332  0.2489  0.5815
 7030TIP3    H142581   3.707   1.528  13.897 -2.8200  0.4112  1.9235
 7030TIP3    H242582   3.619   1.407  13.921  0.3471 -2.5184 -0.2755
 7031TIP3   OH242583   3.554   2.733   3.585 -0.1226  0.1222 -0.1034
 7031TIP3    H142584   3.550   2.696   3.497  0.1744 -0.3241  0.0680
 7031TIP3    H242585   3.475   2.701   3.629 -0.3371  0.4509 -0.2461
 7032TIP3   OH242586   1.083   5.999   4.830 -0.5851 -0.3564  0.5257
 7032TIP3    H142587   1.054   5.973   4.743  0.3052  3.2727 -1.0573
 7032TIP3    H242588   1.156   5.941   4.850 -0.5346 -0.9873 -1.3168
 7033TIP3   OH242589   3.442   1.896   3.685 -0.0263  0.1577 -0.2381
 7033TIP3    H142590   3.503   1.956   3.641  0.5744  0.8517  1.4616
 7033TIP3    H242591   3.396   1.951   3.749  1.4949 -1.3479  2.3364
 7034TIP3   OH242592   0.840   1.178   2.924  0.2775  0.6477 -0.4005
 7034TIP3    H142593   0.889   1.197   2.844 -0.9757  3.4238 -0.6292
 7034TIP3    H242594   0.870   1.244   2.986 -1.4912  0.9649  0.1654
 7035TIP3   OH242595   3.192   6.477   2.966 -0.4982 -0.1130  0.2877
 7035TIP3    H142596   3.185   6.414   3.038 -0.5871  1.9098  2.1817
 7035TIP3    H242597   3.148   6.555   2.999  2.0544  1.9078 -0.7687
 7036TIP3   OH242598   4.788   5.427   4.554  0.2249 -0.3545 -0.1616
 7036TIP3    H142599   4.732   5.502   4.533  0.0512 -0.6169 -0.6585
 7036TIP3    H242600   4.877   5.461   4.551  0.0644  0.4429  2.1441
 7037TIP3   OH242601   1.741   0.205   5.683  1.0276 -0.1873  0.8420
 7037TIP3    H142602   1.720   0.137   5.747  1.7033 -0.8681  0.3684
 7037TIP3    H242603   1.798   0.161   5.620  1.8730  0.9487  0.7833
 7038TIP3   OH242604   4.003   0.735   3.985  0.7375  0.1496  0.0974
 7038TIP3    H142605   3.915   0.762   3.961  0.8786  0.3355 -0.2123
 7038TIP3    H242606   4.021   0.781   4.067  0.3879 -0.2180  0.3861
 7039TIP3   OH242607   2.174   2.962   4.873  0.0263  0.5855  0.3675
 7039TIP3    H142608   2.262   2.937   4.903  0.7192 -0.3977 -2.1932
 7039TIP3    H242609   2.122   2.967   4.953  2.1035 -0.0713  1.8514
 7040TIP3   OH242610   3.079   3.331   6.119  0.8125  0.4059 -0.1528
 7040TIP3    H142611   3.161   3.318   6.071 -0.3533  0.4016 -2.2601
 7040TIP3    H242612   3.090   3.415   6.163  2.2490  0.0110  0.3132
 7041TIP3   OH242613   4.206   3.393   5.663  0.6580 -0.1300  0.9755
 7041TIP3    H142614   4.151   3.443   5.723  1.2908  0.1626  1.3201
 7041TIP3    H242615   4.266   3.458   5.625  0.2936 -0.3118  0.0435
 7042TIP3   OH242616   0.689   3.608  11.874  0.3111 -0.3293 -0.1008
 7042TIP3    H142617   0.626   3.542  11.899  0.8585 -0.2241  1.6845
 7042TIP3    H242618   0.763   3.595  11.933 -0.0258  2.5608  1.1576
 7043TIP3   OH242619   1.156   5.808   5.172 -0.1748 -0.0611 -0.2553
 7043TIP3    H142620   1.151   5.770   5.085 -1.9456 -0.1851 -0.1391
 7043TIP3    H242621   1.076   5.777   5.216  1.0063 -0.5596  1.6399
 7044TIP3   OH242622   1.497   5.449   4.031  0.5505  0.7098 -0.2808
 7044TIP3    H142623   1.504   5.541   4.055  4.6534  0.1371  1.3826
 7044TIP3    H242624   1.551   5.441   3.953  1.9663 -0.5870  0.7871
 7045TIP3   OH242625   4.549   1.682   1.301 -0.2882  0.0454 -0.3473
 7045TIP3    H142626   4.634   1.726   1.296 -0.1650 -0.2622 -0.9548
 7045TIP3    H242627   4.522   1.695   1.392  1.0467 -1.0330  0.2417
 7046TIP3   OH242628   1.167   1.925   4.855  0.5801  0.0936  0.0642
 7046TIP3    H142629   1.142   1.890   4.940  2.3781  1.8576  1.4097
 7046TIP3    H242630   1.202   1.849   4.807 -0.1776 -0.8641  0.9807
 7047TIP3   OH242631   4.310   3.677   5.125 -0.1338  0.4529 -0.2603
 7047TIP3    H142632   4.362   3.606   5.164  1.6254  1.1484 -1.2577
 7047TIP3    H242633   4.221   3.642   5.123  0.6176 -1.6248 -0.4305
 7048TIP3   OH242634   3.139   0.005   0.253 -0.0341  0.2963 -0.6246
 7048TIP3    H142635   3.051   0.012   0.288 -0.0802 -0.6130 -0.5465
 7048TIP3    H242636   3.138   0.060   0.174 -0.0732  1.9174  0.4623
 7049TIP3   OH242637   0.660   1.163   1.121  0.1584  0.5193  0.5096
 7049TIP3    H142638   0.740   1.135   1.075 -0.6533 -0.2181 -0.4924
 7049TIP3    H242639   0.614   1.218   1.058 -0.3057  0.6394  0.9489
 7050TIP3   OH242640   0.712   3.099   3.103  0.1386 -0.1356 -0.2196
 7050TIP3    H142641   0.641   3.145   3.058 -0.1616 -0.6880 -0.3191
 7050TIP3    H242642   0.678   3.083   3.191  0.3524  0.0843 -0.0968
 7051TIP3   OH242643   5.668   4.336  13.741  0.4716  0.2547 -0.2526
 7051TIP3    H142644   5.689   4.285  13.820  0.6707  1.1447  0.2921
 7051TIP3    H242645   5.752   4.374  13.715  0.3484  0.2052 -0.7292
 7052TIP3   OH242646   0.677   5.369   0.925  0.2117 -0.2701 -0.5221
 7052TIP3    H142647   0.605   5.306   0.914 -0.5508  0.4226  0.3986
 7052TIP3    H242648   0.728   5.335   0.999 -0.3570  0.3136  0.1543
 7053TIP3   OH242649   3.232   3.925  13.473  0.4631 -0.0526 -0.3581
 7053TIP3    H142650   3.301   3.900  13.412  0.0731  0.7053 -1.1351
 7053TIP3    H242651   3.230   4.021  13.469 -0.9967 -0.0780 -0.7797
 7054TIP3   OH242652   6.255   3.920   2.868 -0.2762 -0.1057 -0.1985
 7054TIP3    H142653   6.262   3.831   2.834  0.3086 -0.1219 -0.0469
 7054TIP3    H242654   6.239   3.974   2.791 -1.0906 -0.3946 -0.2347
 7055TIP3   OH242655   4.475   5.056   3.748 -0.1807 -0.7184 -0.0635
 7055TIP3    H142656   4.540   5.092   3.689 -0.3759 -0.3879 -0.0777
 7055TIP3    H242657   4.526   5.018   3.820  0.0736 -1.4937 -0.6415
 7056TIP3   OH242658   4.842   5.765  14.862  0.2002  0.0192 -0.1350
 7056TIP3    H142659   4.936   5.784  14.856  0.3011  0.1813  1.4931
 7056TIP3    H242660   4.835   5.671  14.843  0.4908  0.2787 -1.6810
 7057TIP3   OH242661   5.363   2.657   3.417 -0.3759  0.2591 -0.5922
 7057TIP3    H142662   5.293   2.654   3.482 -0.6365 -1.0247 -0.9030
 7057TIP3    H242663   5.318   2.671   3.334 -0.2653 -0.4075 -0.7732
 7058TIP3   OH242664   4.077   2.814  13.234 -0.0345 -0.4756 -0.1918
 7058TIP3    H142665   4.065   2.719  13.242 -1.7196 -0.3206 -0.5636
 7058TIP3    H242666   4.000   2.852  13.276  0.8364  0.7587  0.3500
 7059TIP3   OH242667   4.104   4.322   6.128 -0.2475 -0.3548 -0.4441
 7059TIP3    H142668   4.118   4.416   6.118 -2.9578  0.0677 -1.0022
 7059TIP3    H242669   4.141   4.284   6.047  1.5031  0.0806  0.1013
 7060TIP3   OH242670   4.071   1.733  11.112 -0.5249 -0.3044  0.0614
 7060TIP3    H142671   4.052   1.823  11.140  0.5427 -0.5523  1.7120
 7060TIP3    H242672   4.036   1.728  11.023 -0.5443  1.7664 -0.0977
 7061TIP3   OH242673   3.873   5.913   1.658 -0.2518  0.0660  0.0714
 7061TIP3    H142674   3.919   5.853   1.600 -0.9390 -1.1246  0.7288
 7061TIP3    H242675   3.937   5.983   1.675  0.0694  0.2847 -1.8257
 7062TIP3   OH242676   4.588   4.544  16.334  0.8686  0.5691 -0.2283
 7062TIP3    H142677   4.650   4.616  16.328  0.9188  0.6786  1.1509
 7062TIP3    H242678   4.582   4.525  16.428  0.4075 -0.8293 -0.5095
 7063TIP3   OH242679   2.906   4.418  14.335 -0.3175  0.0151  0.0246
 7063TIP3    H142680   2.819   4.383  14.314  0.0344 -0.2425 -1.0820
 7063TIP3    H242681   2.949   4.348  14.384 -1.2149  0.6899  1.8665
 7064TIP3   OH242682   0.661   1.321  10.930 -0.0178  0.2956  0.0013
 7064TIP3    H142683   0.620   1.261  10.992  0.1775  0.0209 -0.1327
 7064TIP3    H242684   0.590   1.347  10.871 -0.2969  0.8812  0.5810
 7065TIP3   OH242685   3.645   1.441   4.080  0.5459  0.0975 -0.4937
 7065TIP3    H142686   3.634   1.534   4.060  0.1094  0.4352  1.1717
 7065TIP3    H242687   3.579   1.397   4.027 -1.6696  1.0983  1.2422
 7066TIP3   OH242688   2.982   6.492   3.379 -0.9390  0.0146  0.2475
 7066TIP3    H142689   2.972   6.422   3.314 -0.1808 -0.7402  0.9207
 7066TIP3    H242690   2.982   6.446   3.463 -2.1798  1.0027  0.8244
 7067TIP3   OH242691   1.876   2.919   5.375  0.4940 -0.0016  0.0579
 7067TIP3    H142692   1.847   2.877   5.456  2.4845  0.5166  1.1093
 7067TIP3    H242693   1.886   2.846   5.313 -2.7566 -0.2232 -0.3908
 7068TIP3   OH242694   4.605   0.039  14.774  0.1016  0.2412 -0.2501
 7068TIP3    H142695   4.588  -0.031  14.837  5.0784 -1.4639 -0.3705
 7068TIP3    H242696   4.588  -0.001  14.689  1.4302 -0.3715 -0.2487
 7069TIP3   OH242697   1.201   0.318  16.069  0.3374  0.2443  0.5351
 7069TIP3    H142698   1.180   0.226  16.082  0.3023 -0.0842 -1.4851
 7069TIP3    H242699   1.143   0.346  15.999  1.8694  1.1802 -0.4271
 7070TIP3   OH242700   3.209   2.921   1.809 -0.0601 -0.1116 -0.3564
 7070TIP3    H142701   3.269   2.996   1.818 -0.2634  0.1681 -1.2119
 7070TIP3    H242702   3.137   2.955   1.756  0.6648 -1.3778 -2.2408
 7071TIP3   OH242703   6.097   5.463  11.741 -0.5093 -0.1377 -0.2609
 7071TIP3    H142704   6.132   5.541  11.783 -0.2352  0.1162 -0.9467
 7071TIP3    H242705   6.003   5.480  11.734 -0.7492 -0.6800  1.2838
 7072TIP3   OH242706   6.638   5.784   5.024  0.4031  0.6100 -0.5600
 7072TIP3    H142707   6.678   5.862   5.064  0.3961 -0.9181  2.7731
 7072TIP3    H242708   6.546   5.807   5.015  0.7332  1.6518 -1.5195
 7073TIP3   OH242709   5.669   1.387  12.391  0.0043  0.4368  0.2026
 7073TIP3    H142710   5.590   1.418  12.436  0.1225  2.1974 -0.6839
 7073TIP3    H242711   5.645   1.391  12.298  0.8375  0.1069 -0.0288
 7074TIP3   OH242712   3.501   5.560  12.348 -0.4502  0.0377  0.1382
 7074TIP3    H142713   3.514   5.601  12.434 -2.3305  0.1886  0.3977
 7074TIP3    H242714   3.565   5.602  12.291  0.6455  0.1323  1.4069
 7075TIP3   OH242715   3.407   3.315   2.086 -0.1280  0.2853  0.1014
 7075TIP3    H142716   3.476   3.251   2.096 -1.1192 -0.9599 -0.7907
 7075TIP3    H242717   3.426   3.382   2.152  2.7461  0.7847 -1.1147
 7076TIP3   OH242718   6.827   1.730  12.815 -0.1673  0.0742 -0.5662
 7076TIP3    H142719   6.732   1.723  12.826 -0.3381 -0.1292 -1.9755
 7076TIP3    H242720   6.856   1.639  12.805  0.3480  0.0442  0.9347
 7077TIP3   OH242721   5.194   3.438   2.247 -0.2682 -0.1503 -0.2619
 7077TIP3    H142722   5.285   3.442   2.217  0.2147  1.3166  1.2422
 7077TIP3    H242723   5.191   3.361   2.304 -0.1054 -0.4829 -0.6956
 7078TIP3   OH242724   0.061   5.931   6.093  0.5118  0.7892 -0.0134
 7078TIP3    H142725   0.075   5.872   6.019  2.4117  0.2489  0.7261
 7078TIP3    H242726   0.134   5.994   6.089 -0.3631  1.8718  0.3688
 7079TIP3   OH242727   1.777   4.242  12.298  0.2288  0.3512 -0.2211
 7079TIP3    H142728   1.872   4.232  12.288  0.1977 -0.2510  0.0585
 7079TIP3    H242729   1.744   4.153  12.306 -0.4196  0.5321 -0.7817
 7080TIP3   OH242730   0.508   0.759   5.703  0.2153 -0.0619  0.7782
 7080TIP3    H142731   0.542   0.785   5.789 -1.4284 -0.4686  1.5988
 7080TIP3    H242732   0.425   0.806   5.695  0.4943  0.2185 -0.7476
 7081TIP3   OH242733   6.365   5.068  12.657 -0.5135  0.0387  0.2702
 7081TIP3    H142734   6.412   5.135  12.706 -1.8432  0.4725  0.9975
 7081TIP3    H242735   6.322   5.015  12.724  0.5752 -1.6398 -0.2719
 7082TIP3   OH242736   5.932   0.892  12.735 -0.1908  0.1663 -0.4730
 7082TIP3    H142737   6.025   0.900  12.756 -0.1343 -0.2689 -0.5487
 7082TIP3    H242738   5.930   0.867  12.643 -0.3478 -0.8018 -0.2198
 7083TIP3   OH242739   6.426   5.592  12.095 -0.0909 -0.5618  0.2466
 7083TIP3    H142740   6.478   5.607  12.175  0.4754 -0.4197 -0.1407
 7083TIP3    H242741   6.397   5.679  12.069  0.7209 -0.4623 -0.3577
 7084TIP3   OH242742   6.366   4.211   5.660 -0.2501 -0.2204  0.0004
 7084TIP3    H142743   6.390   4.202   5.752 -0.8421  2.1671  0.4475
 7084TIP3    H242744   6.279   4.170   5.654 -0.2845 -0.2366  0.5224
 7085TIP3   OH242745   2.260   3.066   1.011  0.8618  0.4645  0.0937
 7085TIP3    H142746   2.263   3.032   1.101  3.1831  0.3302  0.0262
 7085TIP3    H242747   2.223   2.995   0.960  0.3671  0.1951  0.8114
 7086TIP3   OH242748   0.135   6.357   5.095  0.0634 -0.5662 -0.5707
 7086TIP3    H142749   0.192   6.371   5.019  0.9686 -1.5740 -0.1064
 7086TIP3    H242750   0.150   6.433   5.151  0.1821 -0.3264 -0.9246
 7087TIP3   OH242751   6.281   4.303  13.457  0.0975  0.0173  0.1553
 7087TIP3    H142752   6.338   4.291  13.381 -0.5682 -1.1593 -0.1716
 7087TIP3    H242753   6.228   4.380  13.435  1.2561  0.8982  0.3002
 7088TIP3   OH242754   6.247   2.737  13.687  0.2371 -0.4690 -0.0340
 7088TIP3    H142755   6.228   2.646  13.709 -0.2001 -0.6728 -1.1861
 7088TIP3    H242756   6.342   2.745  13.695  0.1886 -0.7668  0.9654
 7089TIP3   OH242757   4.987   0.127  11.265 -0.1823 -0.8130 -0.2223
 7089TIP3    H142758   5.077   0.138  11.233 -0.8929  1.7825 -1.6917
 7089TIP3    H242759   4.934   0.170  11.199 -2.2450  0.4265  2.0906
 7090TIP3   OH242760   5.113   6.785   4.148 -0.0230 -0.4514  0.5570
 7090TIP3    H142761   5.023   6.781   4.180 -0.7784 -1.1258 -1.4451
 7090TIP3    H242762   5.166   6.795   4.226 -1.8608  0.4775  1.7658
 7091TIP3   OH242763   2.353   4.858  15.278 -0.1346 -0.1607  0.2087
 7091TIP3    H142764   2.294   4.830  15.348  0.7967 -2.6237  0.1193
 7091TIP3    H242765   2.342   4.791  15.209  2.2926 -0.3930 -0.0315
 7092TIP3   OH242766   6.297   2.905  12.592 -0.5544  0.6289 -0.0668
 7092TIP3    H142767   6.244   2.905  12.672  0.3910  1.8253  0.6100
 7092TIP3    H242768   6.357   2.979  12.604  1.0320 -0.4526 -0.9380
 7093TIP3   OH242769   4.410   2.984   2.083  0.3482 -0.0961  0.1002
 7093TIP3    H142770   4.394   3.068   2.127 -1.1387  0.5908 -1.6536
 7093TIP3    H242771   4.333   2.931   2.103 -0.4417  0.2856 -1.6934
 7094TIP3   OH242772   5.226   3.126  12.630 -0.4187  0.6556 -0.6969
 7094TIP3    H142773   5.198   3.180  12.556 -0.1058  0.0460 -1.2655
 7094TIP3    H242774   5.321   3.123  12.622 -0.3260  1.1551  0.1338
 7095TIP3   OH242775   2.988   1.103   2.965  0.3023  0.1252 -0.3892
 7095TIP3    H142776   3.045   1.172   2.997  1.8613 -0.0864 -2.4634
 7095TIP3    H242777   3.048   1.039   2.926 -1.2944 -0.3287 -2.2880
 7096TIP3   OH242778   0.242   5.437  13.092 -0.3397 -0.2581 -0.4784
 7096TIP3    H142779   0.279   5.401  13.173 -0.8687  1.4829  0.5857
 7096TIP3    H242780   0.315   5.441  13.031  0.3072 -0.5909  0.2622
 7097TIP3   OH242781   1.985   0.180  12.400 -0.7076 -0.8272 -0.0515
 7097TIP3    H142782   2.023   0.253  12.350 -0.2667 -1.1255 -0.1687
 7097TIP3    H242783   1.959   0.117  12.333 -2.0185 -0.3622 -0.0091
 7098TIP3   OH242784   4.325   3.446  14.287 -0.3301  0.2541 -0.1110
 7098TIP3    H142785   4.401   3.486  14.328 -0.0363 -0.3686 -0.0322
 7098TIP3    H242786   4.353   3.423  14.199 -0.3551 -0.1732 -0.0107
 7099TIP3   OH242787   1.279   2.759  12.169 -0.0979  0.5041  0.0587
 7099TIP3    H142788   1.361   2.765  12.218  0.6961 -2.3528 -0.7407
 7099TIP3    H242789   1.234   2.841  12.189  2.8651  2.1671  0.6269
 7100TIP3   OH242790   3.391   5.918   6.179 -0.2624  0.2512  0.3019
 7100TIP3    H142791   3.355   5.859   6.245 -1.4644  0.2538 -0.3208
 7100TIP3    H242792   3.382   6.005   6.218  0.8069  0.1181  0.9020
 7101TIP3   OH242793   1.429   3.681  14.166  0.4778 -0.0345  0.0414
 7101TIP3    H142794   1.502   3.631  14.131  0.1673  0.3682 -1.2486
 7101TIP3    H242795   1.378   3.707  14.089  0.1806  1.5480  0.7197
 7102TIP3   OH242796   4.491   5.399   6.307  0.0027 -0.4545  0.0087
 7102TIP3    H142797   4.564   5.439   6.356  1.3870 -1.4130 -1.1634
 7102TIP3    H242798   4.432   5.365   6.374  1.0391 -0.3585  1.0034
 7103TIP3   OH242799   0.139   0.797   3.018 -0.0562 -0.6738  0.4745
 7103TIP3    H142800   0.059   0.802   3.069 -0.7486 -2.2585 -0.3928
 7103TIP3    H242801   0.206   0.770   3.080 -0.4071 -0.3668  0.9935
 7104TIP3   OH242802   2.458   6.570   1.515  0.0057  0.6537  0.2164
 7104TIP3    H142803   2.464   6.652   1.466  0.7979  0.8178  0.5802
 7104TIP3    H242804   2.519   6.581   1.588 -0.4557  0.0405  0.7078
 7105TIP3   OH242805   5.856   6.809  12.221 -0.4639 -1.1678 -0.6232
 7105TIP3    H142806   5.928   6.826  12.161  0.4159 -2.1530  0.1000
 7105TIP3    H242807   5.777   6.813  12.167 -0.0983  1.7068 -1.1277
 7106TIP3   OH242808   3.167   5.924   1.314  0.2308  0.3205  0.2832
 7106TIP3    H142809   3.250   5.947   1.356  1.7278 -3.8697  0.1093
 7106TIP3    H242810   3.108   5.908   1.387  0.6636 -0.0808  0.5520
 7107TIP3   OH242811   4.671   4.706  15.710  0.1761 -0.0334  1.0594
 7107TIP3    H142812   4.758   4.702  15.670 -1.2211 -0.8292 -2.2926
 7107TIP3    H242813   4.653   4.800  15.717  1.1732  0.1370  1.5558
 7108TIP3   OH242814   4.501   3.482   0.188  0.1201 -0.4849 -0.0504
 7108TIP3    H142815   4.560   3.409   0.169 -0.4706 -0.9451 -0.1550
 7108TIP3    H242816   4.508   3.539   0.111  0.9336 -0.1860  0.2353
 7109TIP3   OH242817   4.801   0.578   4.872 -0.4404  0.3866 -0.1744
 7109TIP3    H142818   4.803   0.587   4.967 -0.4046 -2.2316  0.1664
 7109TIP3    H242819   4.725   0.521   4.856 -2.0251  2.8248 -1.9967
 7110TIP3   OH242820   6.322   1.766  11.487  0.4448 -0.1234 -0.3407
 7110TIP3    H142821   6.406   1.738  11.450  1.2047 -0.8110  1.7629
 7110TIP3    H242822   6.326   1.861  11.484  2.4812 -0.0243  2.0127
 7111TIP3   OH242823   1.133   6.535   5.660  0.1594 -0.0635  0.3132
 7111TIP3    H142824   1.049   6.581   5.656 -0.7336 -1.5637  1.2299
 7111TIP3    H242825   1.164   6.533   5.569 -0.5253  0.9448  0.0428
 7112TIP3   OH242826   6.327   5.380  15.938  0.4700  0.2112  0.6301
 7112TIP3    H142827   6.362   5.395  16.026  1.0449  0.4040  0.3728
 7112TIP3    H242828   6.403   5.352  15.887  0.0438 -0.3777  0.3111
 7113TIP3   OH242829   4.076   2.430   3.516  0.5167  0.6506 -0.3961
 7113TIP3    H142830   4.141   2.402   3.580 -0.2165 -0.5080 -0.1343
 7113TIP3    H242831   4.010   2.477   3.568  0.8055  1.2623 -0.5698
 7114TIP3   OH242832   3.755   5.864  11.807 -0.0381  0.0935 -0.8787
 7114TIP3    H142833   3.760   5.769  11.804 -0.7908  0.0065  0.0758
 7114TIP3    H242834   3.819   5.890  11.874 -1.6045  0.0291  0.7472
 7115TIP3   OH242835   5.889   2.466   2.829  0.2314 -0.0412  0.1577
 7115TIP3    H142836   5.840   2.511   2.898 -3.0084  0.5472 -2.2875
 7115TIP3    H242837   5.931   2.537   2.780 -1.2893  0.0071 -1.1283
 7116TIP3   OH242838   0.416   6.659  13.942  0.1459 -0.8766  0.5114
 7116TIP3    H142839   0.332   6.623  13.970 -0.3745  0.2611  0.4763
 7116TIP3    H242840   0.429   6.736  13.998  0.0010  0.3452 -1.0559
 7117TIP3   OH242841   5.125   4.082  11.746  0.2800  0.2364 -0.2757
 7117TIP3    H142842   5.212   4.044  11.759 -0.1692 -1.1703 -1.1195
 7117TIP3    H242843   5.126   4.164  11.796  2.2788  0.5520 -0.7732
 7118TIP3   OH242844   0.676   2.316   5.834 -0.0358 -0.8438  0.4310
 7118TIP3    H142845   0.728   2.328   5.914 -0.5830 -0.4476  0.7285
 7118TIP3    H242846   0.727   2.360   5.766 -1.0307  1.5315  1.1250
 7119TIP3   OH242847   0.205   6.547   5.284 -0.1682  0.7023  0.5933
 7119TIP3    H142848   0.251   6.470   5.319 -1.0570 -0.3760 -0.5071
 7119TIP3    H242849   0.275   6.610   5.266  0.5018  0.4740  2.2488
 7120TIP3   OH242850   2.863   3.014   1.077  0.3913 -0.0943 -0.0112
 7120TIP3    H142851   2.880   3.012   1.171 -2.5944 -1.7064  0.6062
 7120TIP3    H242852   2.899   2.931   1.044 -0.3002 -0.4451  0.0980
 7121TIP3   OH242853   5.805   0.964   3.510 -0.2511 -0.4216 -0.5183
 7121TIP3    H142854   5.715   0.933   3.502 -0.4303 -0.1149  0.2163
 7121TIP3    H242855   5.830   0.943   3.599 -0.2979  1.2838 -0.0607
 7122TIP3   OH242856   4.235   4.203  16.831 -0.5448  1.0798 -0.1825
 7122TIP3    H142857   4.204   4.168  16.748 -0.4445 -1.3956  0.7155
 7122TIP3    H242858   4.162   4.187  16.892 -0.0686  1.4868  0.5090
 7123TIP3   OH242859   0.857   1.297   2.257  0.0957  0.1233  0.2380
 7123TIP3    H142860   0.914   1.235   2.302  2.7707  1.0629 -1.6294
 7123TIP3    H242861   0.901   1.381   2.264 -1.2617  0.9847 -0.9576
 7124TIP3   OH242862   1.086   3.489   6.407  0.2685 -0.2693 -0.0094
 7124TIP3    H142863   1.068   3.400   6.377  0.5867  0.1213 -1.4723
 7124TIP3    H242864   1.182   3.495   6.409  0.3020  0.5748 -1.7874
 7125TIP3   OH242865   3.645   0.298   5.733  0.1186 -0.1007  0.3508
 7125TIP3    H142866   3.624   0.353   5.808  2.1513 -0.0303  0.9357
 7125TIP3    H242867   3.663   0.212   5.771 -0.3934 -0.4821 -0.2490
 7126TIP3   OH242868   4.997   2.547   5.082  0.2929 -0.7236  0.0723
 7126TIP3    H142869   5.064   2.479   5.095  2.3354  1.0337 -0.5591
 7126TIP3    H242870   4.991   2.590   5.167 -0.3709 -1.1521  0.2439
 7127TIP3   OH242871   1.680   4.156   5.504  0.0709 -0.0132  0.7671
 7127TIP3    H142872   1.745   4.141   5.436 -0.6690  0.1855 -0.0091
 7127TIP3    H242873   1.666   4.070   5.543 -0.2720 -0.3499 -0.0648
 7128TIP3   OH242874   2.014   1.499  15.929 -0.1262 -0.9207 -0.4293
 7128TIP3    H142875   1.937   1.494  15.986  0.3077  0.4709  0.3254
 7128TIP3    H242876   2.002   1.580  15.880  1.1346 -0.3760  0.1255
 7129TIP3   OH242877   6.500   2.658  13.242  0.1481  0.3280 -0.4548
 7129TIP3    H142878   6.422   2.677  13.294  0.7983  1.8617  0.0449
 7129TIP3    H242879   6.469   2.659  13.151 -0.7505 -1.0124 -0.1814
 7130TIP3   OH242880   4.251   4.465   4.838 -0.5074  0.4702  0.1951
 7130TIP3    H142881   4.236   4.378   4.875  0.0200  1.1278  2.0703
 7130TIP3    H242882   4.166   4.508   4.841 -0.5853  0.3228  0.0986
 7131TIP3   OH242883   1.222   0.525   6.260 -0.0635  0.6485 -0.1036
 7131TIP3    H142884   1.149   0.469   6.236 -1.1469  1.3802  1.3289
 7131TIP3    H242885   1.287   0.512   6.190 -1.6244  0.1266 -1.5166
 7132TIP3   OH242886   1.838   6.243   0.838 -0.3104 -0.1386 -0.5402
 7132TIP3    H142887   1.857   6.205   0.924 -2.7029  2.5092  1.3352
 7132TIP3    H242888   1.850   6.170   0.777  0.5776 -2.3930  2.1077
 7133TIP3   OH242889   5.173   6.157  14.917  0.4175  0.1632 -0.0842
 7133TIP3    H142890   5.095   6.181  14.966  0.4547 -0.8146  0.4880
 7133TIP3    H242891   5.198   6.236  14.869  0.5774  1.2599  1.7368
 7134TIP3   OH242892   3.314   1.461   6.607 -0.7030  0.1166 -0.4879
 7134TIP3    H142893   3.381   1.501   6.551 -0.2591 -0.1054 -0.1255
 7134TIP3    H242894   3.312   1.369   6.581 -1.0039  0.1628 -0.6292
 7135TIP3   OH242895   3.922   1.210   3.340  0.1985  0.1180  0.5809
 7135TIP3    H142896   3.989   1.225   3.273 -1.8628  1.6557 -1.2927
 7135TIP3    H242897   3.941   1.276   3.408  0.1917  1.0041 -0.2579
 7136TIP3   OH242898   6.648   1.019  13.339  0.3671  0.0296 -0.0001
 7136TIP3    H142899   6.689   0.938  13.370 -0.2639 -0.6880 -0.9666
 7136TIP3    H242900   6.706   1.089  13.370  0.9201 -0.7878  0.8618
 7137TIP3   OH242901   3.530   0.171   1.958 -0.3782 -0.2547 -0.0312
 7137TIP3    H142902   3.512   0.183   2.052 -0.1442  0.2261 -0.0436
 7137TIP3    H242903   3.488   0.088   1.936  0.2799 -0.7954  0.6919
 7138TIP3   OH242904   0.019   6.185   3.174  0.3734 -0.2694  0.2605
 7138TIP3    H142905   0.108   6.203   3.205  0.8564 -4.6924  2.1262
 7138TIP3    H242906  -0.037   6.215   3.246  0.6133 -0.3792  0.4956
 7139TIP3   OH242907   2.558   4.161   4.541 -0.0522 -0.0570 -0.6808
 7139TIP3    H142908   2.534   4.235   4.484 -1.2154  0.9377  1.0223
 7139TIP3    H242909   2.598   4.202   4.618 -0.5368 -1.2129  0.2132
 7140TIP3   OH242910   5.020   5.936  16.814  0.4013  0.7328  0.5580
 7140TIP3    H142911   5.007   5.842  16.827 -0.2207  0.7346 -0.0407
 7140TIP3    H242912   5.114   5.944  16.798  0.7795  0.4234  2.3150
 7141TIP3   OH242913   3.567   0.626   3.776  0.6127  0.1344 -0.4933
 7141TIP3    H142914   3.497   0.666   3.724  0.3107  0.8298  0.4209
 7141TIP3    H242915   3.527   0.547   3.813 -0.2113  1.2977  1.2373
 7142TIP3   OH242916   1.891   0.598  16.358 -0.4987 -0.4166 -0.2979
 7142TIP3    H142917   1.857   0.664  16.418 -0.1373 -0.2636 -0.2581
 7142TIP3    H242918   1.844   0.518  16.381  0.5028 -0.6625  1.0237
 7143TIP3   OH242919   5.559   0.074  11.195 -0.3813  0.3987 -0.6061
 7143TIP3    H142920   5.517   0.126  11.127  1.5049  2.5003 -0.2836
 7143TIP3    H242921   5.652   0.095  11.187 -0.0288  0.3594  2.2583
 7144TIP3   OH242922   6.420   2.610   4.206  0.2564  0.3638 -0.3025
 7144TIP3    H142923   6.475   2.586   4.281  0.8755  1.2161 -0.4596
 7144TIP3    H242924   6.415   2.706   4.211  0.9837  0.5096 -1.8093
 7145TIP3   OH242925   1.902   4.833  16.783  0.3700 -0.4722 -0.4414
 7145TIP3    H142926   1.845   4.757  16.777 -1.7397  0.8126  1.4837
 7145TIP3    H242927   1.910   4.865  16.694 -2.3821 -0.4588 -0.7656
 7146TIP3   OH242928   0.002   2.798   3.233 -0.0127 -0.3114  0.1307
 7146TIP3    H142929   0.065   2.767   3.299  0.3005 -1.7059 -0.7834
 7146TIP3    H242930  -0.046   2.869   3.277  1.3156 -0.0835  1.2802
 7147TIP3   OH242931   3.830   1.296   1.461 -0.3135 -0.3346  0.4246
 7147TIP3    H142932   3.741   1.287   1.427 -0.1030  0.1955 -0.3121
 7147TIP3    H242933   3.870   1.363   1.405  0.0070  0.7084  1.8659
 7148TIP3   OH242934   2.080   2.644  16.707 -0.6200  1.0687 -0.0898
 7148TIP3    H142935   2.088   2.731  16.668  1.0109  0.7504 -0.5335
 7148TIP3    H242936   2.144   2.591  16.660 -1.2708 -0.2708  0.4865
 7149TIP3   OH242937   5.172   2.591   0.241 -0.4785 -0.7226 -0.4234
 7149TIP3    H142938   5.178   2.518   0.179  0.9481 -0.2215 -0.9174
 7149TIP3    H242939   5.262   2.609   0.266 -1.0235 -0.9540  1.9075
 7150TIP3   OH242940   0.438   6.555   0.632  0.0591  0.1117 -0.2028
 7150TIP3    H142941   0.466   6.620   0.568  0.0591  0.7203  0.3934
 7150TIP3    H242942   0.513   6.545   0.690 -1.0450  2.2354  1.7921
 7151TIP3   OH242943   5.172   0.859   1.061  0.0169  0.2633  0.6511
 7151TIP3    H142944   5.130   0.875   0.977  1.3795 -0.7983 -0.2803
 7151TIP3    H242945   5.100   0.857   1.124 -1.1212  0.2407 -0.6031
 7152TIP3   OH242946   1.410   1.069   2.608  0.4431 -0.0835  0.0391
 7152TIP3    H142947   1.327   1.020   2.611 -1.0756  2.2293 -1.0323
 7152TIP3    H242948   1.398   1.138   2.673  1.9292 -0.2201  0.4809
 7153TIP3   OH242949   0.373   1.409   0.720 -0.4109 -0.1486  0.3266
 7153TIP3    H142950   0.380   1.430   0.813 -0.6157  1.3693  0.0173
 7153TIP3    H242951   0.283   1.377   0.709 -0.6242  0.3865  0.5135
 7154TIP3   OH242952   2.323   1.613   0.511 -0.0401 -0.1367  0.5003
 7154TIP3    H142953   2.405   1.576   0.545  0.0438  0.0764  0.5350
 7154TIP3    H242954   2.294   1.551   0.444  1.0118  0.5928 -0.6873
 7155TIP3   OH242955   4.657   1.465   2.483 -0.2957 -0.4709  0.1965
 7155TIP3    H142956   4.574   1.509   2.500 -0.5178 -1.0937  0.7923
 7155TIP3    H242957   4.645   1.424   2.397 -0.7038 -0.7724  0.3941
 7156TIP3   OH242958   4.163   5.657   1.823 -0.3166 -0.5813 -0.2109
 7156TIP3    H142959   4.155   5.676   1.729 -0.3118 -0.5330 -0.2017
 7156TIP3    H242960   4.184   5.742   1.862 -2.5764 -0.1162  0.1234
 7157TIP3   OH242961   0.386   5.159   4.663  0.2607  0.1155  0.1295
 7157TIP3    H142962   0.447   5.148   4.736 -1.8871  0.7325  2.1351
 7157TIP3    H242963   0.408   5.246   4.627  0.9115  0.0940  0.4562
 7158TIP3   OH242964   4.161   4.853   4.135 -0.2096 -0.5809 -0.1267
 7158TIP3    H142965   4.087   4.875   4.192  0.9880 -0.4048  1.4183
 7158TIP3    H242966   4.138   4.891   4.050 -0.3535  2.5787  1.1956
 7159TIP3   OH242967   0.867   1.971   5.157 -0.2193  0.3774 -0.4098
 7159TIP3    H142968   0.840   2.031   5.087  0.0467  0.1987 -0.6672
 7159TIP3    H242969   0.795   1.975   5.221 -1.2020 -0.6259 -1.4038
 7160TIP3   OH242970   4.934   6.468  15.059 -0.4952 -0.7901  0.1604
 7160TIP3    H142971   4.884   6.436  14.984  0.5215 -1.5791 -0.1968
 7160TIP3    H242972   4.961   6.557  15.034 -0.8762 -0.7338 -0.0494
 7161TIP3   OH242973   6.058   0.990   3.417  0.8948 -0.2946 -0.0134
 7161TIP3    H142974   6.047   1.064   3.358  0.5664 -0.4907 -0.1986
 7161TIP3    H242975   5.971   0.952   3.425  0.9476 -0.3085  0.5475
 7162TIP3   OH242976   3.693   2.611  15.942  0.5113  0.3890 -0.4933
 7162TIP3    H142977   3.696   2.593  15.848  0.1523  0.9509 -0.6159
 7162TIP3    H242978   3.641   2.539  15.978  0.0243  0.5647 -0.8304
 7163TIP3   OH242979   1.189   2.668   0.805  0.0644  0.1299  0.4987
 7163TIP3    H142980   1.192   2.724   0.727 -1.7587 -0.2372  0.1085
 7163TIP3    H242981   1.108   2.694   0.850  0.5755 -0.3627  1.7407
 7164TIP3   OH242982   1.654   5.025  16.204  0.0138 -0.6588  0.6371
 7164TIP3    H142983   1.613   4.980  16.130 -0.0249 -1.9384  1.4065
 7164TIP3    H242984   1.691   4.955  16.257 -0.7437  0.1416  2.3066
 7165TIP3   OH242985   2.576   1.922  12.339  0.1448 -0.2030  0.1224
 7165TIP3    H142986   2.632   1.917  12.261 -1.1355  0.5139 -0.8803
 7165TIP3    H242987   2.595   2.008  12.377  0.0964 -0.1679  0.0674
 7166TIP3   OH242988   5.638   6.528  12.300 -0.1078 -0.0266  0.3384
 7166TIP3    H142989   5.574   6.599  12.296  2.2676  2.2003 -2.4340
 7166TIP3    H242990   5.701   6.555  12.366  0.9776  0.7441 -0.9482
 7167TIP3   OH242991   0.122   0.621   0.654  0.3123  0.2246  0.2654
 7167TIP3    H142992   0.166   0.706   0.647  0.7659 -0.1143 -1.5017
 7167TIP3    H242993   0.074   0.612   0.572  0.0596 -1.1183  0.5446
 7168TIP3   OH242994   2.735   4.440   0.300  0.0440 -0.3368  0.3728
 7168TIP3    H142995   2.714   4.521   0.252 -1.7434 -1.3774 -0.7191
 7168TIP3    H242996   2.821   4.457   0.338 -0.7830  2.5374  1.2221
 7169TIP3   OH242997   0.002   0.671  13.161 -0.3660 -0.8466  0.2364
 7169TIP3    H142998   0.097   0.680  13.160 -0.3024 -1.3422  1.1196
 7169TIP3    H242999  -0.030   0.753  13.125  0.3572 -0.0858  1.2878
 7170TIP3   OH243000   2.550   0.116  11.788  0.2486  0.1911  0.2538
 7170TIP3    H143001   2.477   0.055  11.787 -1.1762  1.7628 -2.1922
 7170TIP3    H243002   2.607   0.087  11.717  2.1496 -1.0226  2.1344
 7171TIP3   OH243003   5.559   6.010   3.297  0.2928  0.5070 -0.2533
 7171TIP3    H143004   5.585   5.958   3.373 -0.6887 -0.9181 -0.8565
 7171TIP3    H243005   5.624   5.989   3.230 -0.1336  0.0236 -0.5140
 7172TIP3   OH243006   2.102   3.535  14.219 -0.3781 -0.3073  0.1044
 7172TIP3    H143007   2.175   3.559  14.275 -0.2730 -0.6004  0.0932
 7172TIP3    H243008   2.049   3.615  14.213 -0.0753 -0.1053  0.1334
 7173TIP3   OH243009   5.622   6.332   3.989  0.0255 -0.0023  0.4130
 7173TIP3    H143010   5.655   6.339   4.079 -0.6280 -1.6103  0.8152
 7173TIP3    H243011   5.599   6.422   3.965  2.5435  0.8628  0.9081
 7174TIP3   OH243012   2.098   4.491   3.693 -0.3600 -0.2806  0.7781
 7174TIP3    H143013   2.035   4.563   3.691 -1.2675 -1.0676 -0.7510
 7174TIP3    H243014   2.163   4.514   3.627 -1.4773 -1.5110 -0.8376
 7175TIP3   OH243015   0.828   3.074  16.712  0.2625  0.4084 -0.4018
 7175TIP3    H143016   0.864   3.153  16.672  0.5448  0.5053  0.0382
 7175TIP3    H243017   0.733   3.089  16.713  0.4154  1.4846  1.1942
 7176TIP3   OH243018   3.532   2.406  16.053 -0.3645 -0.0266  0.8378
 7176TIP3    H143019   3.476   2.429  16.127 -1.3774 -1.5235  0.5645
 7176TIP3    H243020   3.579   2.328  16.082  0.1224  0.0748  0.3353
 7177TIP3   OH243021   5.358   4.120  16.228 -0.0614  0.5072 -0.2204
 7177TIP3    H143022   5.426   4.104  16.163 -0.3128  0.2615 -0.4243
 7177TIP3    H243023   5.401   4.172  16.296  0.5670 -0.3534  0.0601
 7178TIP3   OH243024   0.770   6.771   2.910 -0.7878  0.2402 -0.7368
 7178TIP3    H143025   0.724   6.741   2.988  0.2250  0.0011 -0.2099
 7178TIP3    H243026   0.828   6.841   2.941  1.0361 -1.1271 -0.8551
 7179TIP3   OH243027   0.721   5.810  11.911  0.1616  0.2152 -0.2398
 7179TIP3    H143028   0.794   5.871  11.925  2.8342 -2.6915 -0.5286
 7179TIP3    H243029   0.694   5.827  11.821  1.4177  0.4588 -0.5990
 7180TIP3   OH243030   0.822   4.984   5.528  0.0960  0.0676  0.1062
 7180TIP3    H143031   0.889   5.009   5.592  0.5786  0.5672 -0.5847
 7180TIP3    H243032   0.856   5.015   5.444 -0.8857  0.0984 -0.2907
 7181TIP3   OH243033   3.621   2.162   5.630  0.5093 -0.0398  0.2073
 7181TIP3    H143034   3.665   2.134   5.710  2.3102  0.7194 -0.4745
 7181TIP3    H243035   3.578   2.244   5.655 -1.4384 -1.2492  1.1268
 7182TIP3   OH243036   2.098   0.486   0.124 -0.5077 -0.0978 -0.2977
 7182TIP3    H143037   2.072   0.576   0.104 -1.5314 -0.3530 -0.1351
 7182TIP3    H243038   2.046   0.462   0.200 -0.3021 -0.8644 -0.3960
 7183TIP3   OH243039   5.611   1.618  12.780  0.4120  0.3747 -0.3976
 7183TIP3    H143040   5.560   1.571  12.845  0.3672 -0.2635 -0.8805
 7183TIP3    H243041   5.656   1.687  12.829  0.3318 -0.0542  0.2882
 7184TIP3   OH243042   0.961   3.469  13.659 -0.4206 -0.3376 -0.4474
 7184TIP3    H143043   0.888   3.411  13.681 -1.5315  1.1512 -0.0696
 7184TIP3    H243044   0.980   3.451  13.567 -1.6880 -0.3109 -0.7190
 7185TIP3   OH243045   2.149   3.660   3.691 -0.2382  0.0080 -0.4337
 7185TIP3    H143046   2.075   3.600   3.684 -0.4487  0.1257  0.5826
 7185TIP3    H243047   2.110   3.745   3.710  0.0679  0.4616 -1.7667
 7186TIP3   OH243048   6.081   0.726  12.260 -0.0580 -0.3744 -0.2127
 7186TIP3    H143049   6.087   0.631  12.268  0.5758 -0.3292 -0.0973
 7186TIP3    H243050   6.151   0.750  12.200  1.0041  0.1888  1.1912
 7187TIP3   OH243051   5.760   4.595  12.158  0.8399 -0.3350  0.3663
 7187TIP3    H143052   5.771   4.597  12.254  1.6274 -1.0485  0.2986
 7187TIP3    H243053   5.849   4.581  12.125  1.1174  2.9389 -0.6095
 7188TIP3   OH243054   0.632   6.119  13.568  0.4176 -0.3463 -0.4115
 7188TIP3    H143055   0.672   6.059  13.632  2.1973 -0.8396 -1.8982
 7188TIP3    H243056   0.660   6.206  13.596 -0.9175 -0.2867  0.8809
 7189TIP3   OH243057   4.425   1.379  13.921 -0.0981  0.0428  0.2571
 7189TIP3    H143058   4.436   1.474  13.921 -1.6573  0.2594  1.2954
 7189TIP3    H243059   4.511   1.345  13.897  1.3537  1.6456  2.8007
 7190TIP3   OH243060   4.691   2.231  15.090  0.0421  0.1821 -0.7227
 7190TIP3    H143061   4.740   2.270  15.162 -1.8248  0.6646  0.3599
 7190TIP3    H243062   4.691   2.137  15.110 -0.1601  0.2735 -0.2791
 7191TIP3   OH243063   0.182   1.031  15.374 -0.0219 -0.1448 -0.3140
 7191TIP3    H143064   0.160   1.077  15.455 -5.0814  0.8395 -1.8930
 7191TIP3    H243065   0.232   1.094  15.323  0.6501  0.3124  0.8799
 7192TIP3   OH243066   0.497   6.318   4.168  0.4720 -0.1017 -0.3224
 7192TIP3    H143067   0.499   6.409   4.140  1.6540  0.6464  1.9126
 7192TIP3    H243068   0.553   6.272   4.106 -0.5076  0.5827 -1.7466
 7193TIP3   OH243069   0.976   2.287   4.946  0.0758  0.0203  0.3222
 7193TIP3    H143070   1.016   2.301   4.861  0.6194  0.2560  0.6127
 7193TIP3    H243071   0.892   2.245   4.927  0.4768 -0.5036 -0.2856
 7194TIP3   OH243072   4.432   0.993  12.633 -0.4548  0.0622 -0.0341
 7194TIP3    H143073   4.522   0.970  12.653  0.4218  2.4994 -0.7983
 7194TIP3    H243074   4.433   1.016  12.540 -2.2975 -1.5789 -0.5394
 7195TIP3   OH243075   2.390   2.568  14.474  0.1097  0.0449 -0.0543
 7195TIP3    H143076   2.390   2.642  14.535 -1.9641 -1.4565  1.8947
 7195TIP3    H243077   2.479   2.533  14.480  0.6217  1.3295  0.2720
 7196TIP3   OH243078   5.258   2.827   0.881  0.3419 -0.2136 -0.7102
 7196TIP3    H143079   5.263   2.757   0.947 -2.9258 -0.5452 -0.6578
 7196TIP3    H243080   5.225   2.903   0.930  2.2279  0.9353 -1.1229
 7197TIP3   OH243081   2.959   6.139  13.418  0.0811 -0.3620  0.0688
 7197TIP3    H143082   2.953   6.065  13.479 -1.7013 -1.0770 -0.8958
 7197TIP3    H243083   2.988   6.099  13.336  0.9545  0.3470  0.0178
 7198TIP3   OH243084   2.815   5.334   4.199 -0.1253  0.7557  0.0904
 7198TIP3    H143085   2.864   5.326   4.117  0.6925  0.8340  0.5655
 7198TIP3    H243086   2.768   5.251   4.206  1.0804  0.0664  0.3509
 7199TIP3   OH243087   1.252   3.662  15.207  0.6103 -0.4632 -0.5700
 7199TIP3    H143088   1.302   3.717  15.148  0.9966  1.7559  1.6701
 7199TIP3    H243089   1.281   3.688  15.295 -1.0740 -2.4583  0.6806
 7200TIP3   OH243090   1.648   0.542  13.556  0.4482  0.3340  0.4311
 7200TIP3    H143091   1.584   0.479  13.588 -0.3586  0.6310 -0.5825
 7200TIP3    H243092   1.597   0.607  13.508  1.3602  1.3058  0.7257
 7201TIP3   OH243093   3.286   5.099   5.031 -0.3620 -0.1507 -0.3837
 7201TIP3    H143094   3.259   5.128   5.118  2.5020 -0.0033  0.5591
 7201TIP3    H243095   3.215   5.043   5.002 -2.3632  1.4469  1.1383
 7202TIP3   OH243096   1.154   4.012  12.836  0.4810 -1.1157 -0.0190
 7202TIP3    H143097   1.167   3.918  12.852 -0.9400 -1.5098 -0.9160
 7202TIP3    H243098   1.083   4.036  12.895 -0.8627 -1.2368 -1.4991
 7203TIP3   OH243099   4.407   1.870  14.439 -0.0652  0.1277 -0.5474
 7203TIP3    H143100   4.369   1.958  14.441  1.2135  0.6915  0.7969
 7203TIP3    H243101   4.346   1.815  14.487  0.5030  0.9106  1.1310
 7204TIP3   OH243102   5.882   1.012  11.333  0.0333  0.2703 -0.1853
 7204TIP3    H143103   5.861   0.966  11.252 -1.1054  0.6811 -0.1352
 7204TIP3    H243104   5.877   1.105  11.309  1.6592  0.4072 -0.1236
 7205TIP3   OH243105   4.467   1.758  15.727  0.4578 -0.5192 -0.2807
 7205TIP3    H143106   4.420   1.702  15.664  0.2521 -1.1253  0.3968
 7205TIP3    H243107   4.528   1.808  15.673 -0.8425  0.1636 -1.1623
 7206TIP3   OH243108   2.619   3.572  15.187 -0.8987 -0.0645 -0.3901
 7206TIP3    H143109   2.687   3.620  15.233 -1.9574  1.3411 -0.2145
 7206TIP3    H243110   2.630   3.596  15.095 -0.6924 -0.4509 -0.4711
 7207TIP3   OH243111   0.498   2.061  13.047 -0.6860 -0.3319  0.0767
 7207TIP3    H143112   0.425   2.122  13.047 -0.2281  0.2252 -0.4154
 7207TIP3    H243113   0.461   1.979  13.081 -0.8800  0.6871  2.5296
 7208TIP3   OH243114   3.516   1.832   4.337 -0.3378  0.4320  0.2670
 7208TIP3    H143115   3.558   1.807   4.419  0.5155 -0.3820 -0.4068
 7208TIP3    H243116   3.449   1.766   4.323 -2.5818  2.2031  1.7943
 7209TIP3   OH243117   0.163   0.746   6.230  0.0038 -0.2373 -0.1329
 7209TIP3    H143118   0.192   0.655   6.224 -0.1698 -0.2027 -2.9772
 7209TIP3    H243119   0.068   0.741   6.230 -0.0094 -0.0511  0.3100
 7210TIP3   OH243120   2.786   4.319   3.567  0.1886 -0.4103 -0.1128
 7210TIP3    H143121   2.707   4.358   3.604 -0.8251 -0.9291 -1.6285
 7210TIP3    H243122   2.804   4.243   3.622 -0.9205 -0.8206 -0.2972
 7211TIP3   OH243123   2.464   5.666   3.097  0.0178  0.1146 -0.0009
 7211TIP3    H143124   2.439   5.661   3.190 -0.1055  0.6715 -0.0045
 7211TIP3    H243125   2.455   5.758   3.075 -0.4727 -0.1030 -0.7202
 7212TIP3   OH243126   2.592   5.628  10.558 -0.0810  0.1050 -0.1087
 7212TIP3    H143127   2.660   5.666  10.614  1.4959 -1.9143 -0.5082
 7212TIP3    H243128   2.568   5.547  10.603 -0.8615 -0.1341 -0.9426
 7213TIP3   OH243129   5.503   6.530   6.070  0.1135 -0.7313  0.5084
 7213TIP3    H143130   5.565   6.564   6.134  0.1325 -0.0847  0.1481
 7213TIP3    H243131   5.452   6.606   6.041  1.7973 -0.4804 -2.1428
 7214TIP3   OH243132   2.980   3.351  12.385 -0.1892 -0.4174  0.0218
 7214TIP3    H143133   2.902   3.388  12.345  1.8306  2.3882 -1.7156
 7214TIP3    H243134   3.019   3.297  12.316  1.7862  2.0793 -0.9535
 7215TIP3   OH243135   5.035   6.773   0.568  0.2065 -0.3339  0.2141
 7215TIP3    H143136   5.013   6.810   0.482  0.5528 -0.1356  0.2110
 7215TIP3    H243137   4.949   6.759   0.610  0.0433  1.8077  0.7696
 7216TIP3   OH243138   5.821   6.123  15.529  0.1796 -0.2124 -0.0779
 7216TIP3    H143139   5.861   6.208  15.511  0.2317  0.0043  1.0243
 7216TIP3    H243140   5.742   6.142  15.579  1.5570 -0.8954  2.5431
 7217TIP3   OH243141   0.664   6.517   0.186 -0.4834 -0.4485  0.3852
 7217TIP3    H143142   0.736   6.533   0.247 -0.2846  2.0435 -0.3738
 7217TIP3    H243143   0.585   6.526   0.238 -0.3009  0.9602  0.4501
 7218TIP3   OH243144   0.448   0.587  14.051  0.6576 -0.5963 -0.8563
 7218TIP3    H143145   0.533   0.554  14.021  0.9974 -0.8801  0.3675
 7218TIP3    H243146   0.452   0.582  14.146  1.0149  3.6099 -0.4450
 7219TIP3   OH243147   0.161   0.831  15.983 -0.1275 -0.4648 -0.0188
 7219TIP3    H143148   0.215   0.755  16.005 -1.3613 -1.6063 -0.7545
 7219TIP3    H243149   0.086   0.825  16.042  0.6098  1.2658  1.1998
 7220TIP3   OH243150   1.238   5.897   5.617  0.0019 -0.1047 -0.2242
 7220TIP3    H143151   1.205   5.940   5.538  0.0462 -0.8302 -0.6464
 7220TIP3    H243152   1.331   5.885   5.600 -0.3344 -2.0834 -0.9489
 7221TIP3   OH243153   4.059   0.822  10.865 -0.2095 -0.1698  0.0469
 7221TIP3    H143154   4.056   0.893  10.801 -0.7038 -0.1608  0.0780
 7221TIP3    H243155   4.005   0.753  10.827  1.4297 -1.1306 -0.6871
 7222TIP3   OH243156   1.393   1.757  16.296 -0.3478  0.1356 -0.1415
 7222TIP3    H143157   1.302   1.785  16.308 -0.7235 -0.0856 -2.0354
 7222TIP3    H243158   1.391   1.707  16.214  1.6788  1.0401 -0.7953
 7223TIP3   OH243159   5.697   4.936  15.085  0.3344 -0.2080 -0.2009
 7223TIP3    H143160   5.791   4.925  15.095  0.0418 -0.8342  2.6837
 7223TIP3    H243161   5.659   4.862  15.131 -1.6156 -0.3527 -1.8959
 7224TIP3   OH243162   3.896   3.721   5.682 -0.2698 -0.5071 -0.3260
 7224TIP3    H143163   3.909   3.666   5.605 -1.1218 -0.7022 -0.3388
 7224TIP3    H243164   3.939   3.673   5.753 -0.2056 -0.7381 -0.5204
 7225TIP3   OH243165   3.771   5.904  11.541 -0.7228 -0.3780 -0.1585
 7225TIP3    H143166   3.779   5.906  11.637 -1.9272  0.3383 -0.0564
 7225TIP3    H243167   3.859   5.880  11.511 -0.0388  0.4366  1.0864
 7226TIP3   OH243168   4.740   4.534   1.771 -0.0773 -0.3709 -0.3218
 7226TIP3    H143169   4.745   4.447   1.731  1.6382 -0.4924  0.0636
 7226TIP3    H243170   4.814   4.582   1.733 -1.1839  1.0369 -0.7581
 7227TIP3   OH243171   1.862   4.684  11.854  0.1399 -0.6697 -0.0318
 7227TIP3    H143172   1.795   4.709  11.918  0.2636 -0.1508 -0.1016
 7227TIP3    H243173   1.919   4.623  11.901  0.2247 -0.2970  0.3492
 7228TIP3   OH243174   6.423   1.818   2.441 -0.2305 -0.1957 -0.1821
 7228TIP3    H143175   6.407   1.741   2.495  0.1903 -0.1958 -0.0536
 7228TIP3    H243176   6.503   1.856   2.476 -1.6361  1.6146  1.2704
 7229TIP3   OH243177   3.733   3.091   0.465  0.2350  0.1300 -0.5008
 7229TIP3    H143178   3.698   3.002   0.459 -0.3012  0.3441 -0.6358
 7229TIP3    H243179   3.825   3.079   0.488 -0.2622 -0.4014  1.3790
 7230TIP3   OH243180   4.781   1.034  12.960 -0.4736 -1.1037  0.4046
 7230TIP3    H143181   4.761   0.953  13.007 -1.3157 -0.5153  1.0900
 7230TIP3    H243182   4.861   1.067  13.002  0.8595 -2.3975 -0.9763
 7231TIP3   OH243183   3.527   4.458   1.060  0.4547  0.2935  0.1008
 7231TIP3    H143184   3.516   4.527   0.994  1.0673  1.0971  0.8093
 7231TIP3    H243185   3.582   4.393   1.018 -1.2592 -0.4731 -1.0728
 7232TIP3   OH243186   2.537   6.527   3.216 -0.3179  0.2288 -0.6074
 7232TIP3    H143187   2.504   6.489   3.297 -1.1919  0.8597 -0.6539
 7232TIP3    H243188   2.617   6.478   3.198 -1.0344 -1.1122 -0.3018
 7233TIP3   OH243189   4.615   6.576  14.388  0.1558 -0.4287  0.3265
 7233TIP3    H143190   4.634   6.482  14.390  1.0820 -0.2657 -0.2230
 7233TIP3    H243191   4.584   6.593  14.299  1.2594  0.0015  0.0041
 7234TIP3   OH243192   5.177   0.159   0.084 -0.0757  0.6116 -0.5888
 7234TIP3    H143193   5.232   0.163   0.162 -1.9514 -0.2969  0.8439
 7234TIP3    H243194   5.223   0.098   0.026  0.4441 -0.1267  0.5632
 7235TIP3   OH243195   2.040   3.657   2.782  0.1344 -0.0705  0.2255
 7235TIP3    H143196   1.973   3.621   2.723 -0.6937  3.8043 -1.5166
 7235TIP3    H243197   2.123   3.642   2.736 -0.3638  1.6257 -1.3168
 7236TIP3   OH243198   4.756   5.133  17.171  0.2672  0.0008 -0.0555
 7236TIP3    H143199   4.734   5.112  17.080 -1.0252  1.0520 -0.0247
 7236TIP3    H243200   4.836   5.185  17.165  0.5681 -0.4993 -0.5210
 7237TIP3   OH243201   1.250   3.004  16.599 -0.0352 -0.3984  0.9028
 7237TIP3    H143202   1.228   3.095  16.584 -0.3643 -0.3199  1.8140
 7237TIP3    H243203   1.294   3.003  16.684  1.5840 -0.8444  0.1139
 7238TIP3   OH243204   6.556   2.498   4.940  0.0732  0.0405 -0.1327
 7238TIP3    H143205   6.611   2.429   4.905 -0.8872 -0.0495 -1.5361
 7238TIP3    H243206   6.564   2.570   4.877  1.6498  1.5367  1.6828
 7239TIP3   OH243207   3.415   6.596   5.532  0.2098 -0.1085  0.5706
 7239TIP3    H143208   3.329   6.565   5.561 -0.6867  1.6293 -0.0673
 7239TIP3    H243209   3.438   6.539   5.459 -1.8185  1.1466 -1.1868
 7240TIP3   OH243210   0.457   4.464   1.334  0.3524 -0.4677 -0.0529
 7240TIP3    H143211   0.460   4.395   1.268 -0.2212 -1.9622  1.4242
 7240TIP3    H243212   0.523   4.439   1.398  0.3882  0.5563  0.3294
 7241TIP3   OH243213   4.912   2.341   0.252 -0.2869  0.2386  0.2938
 7241TIP3    H143214   4.917   2.386   0.336 -1.3994 -0.5618  0.8180
 7241TIP3    H243215   4.913   2.248   0.275 -1.5671  0.0134 -0.4896
 7242TIP3   OH243216   4.275   6.002  15.499 -0.0879 -0.4899 -0.0360
 7242TIP3    H143217   4.353   6.015  15.446  0.5494  0.6021  1.1194
 7242TIP3    H243218   4.308   5.993  15.589 -1.2570 -0.5534  0.4085
 7243TIP3   OH243219   0.956   6.772  12.641 -0.1680  0.0484 -0.1097
 7243TIP3    H143220   0.983   6.853  12.598  1.1368 -0.8248 -1.0281
 7243TIP3    H243221   0.863   6.784  12.660  0.1466  2.0316  0.4431
 7244TIP3   OH243222   4.588   2.037   5.728 -0.1856  0.1327  0.4356
 7244TIP3    H143223   4.570   1.955   5.682  1.2302  0.2474 -0.3694
 7244TIP3    H243224   4.534   2.102   5.683 -1.2857 -0.3070  1.0502
 7245TIP3   OH243225   5.651   6.335   4.945 -0.3562  0.2687 -0.3688
 7245TIP3    H143226   5.737   6.321   4.986 -0.6783 -0.2414  0.1408
 7245TIP3    H243227   5.616   6.412   4.989 -0.6029 -0.1423  0.1688
 7246TIP3   OH243228   1.174   6.411  16.238  0.3452 -0.1962 -0.3809
 7246TIP3    H143229   1.262   6.388  16.209  0.8094  0.5355  0.3675
 7246TIP3    H243230   1.162   6.501  16.209 -0.2175 -0.3452 -0.6098
 7247TIP3   OH243231   3.797   6.138  13.604 -0.4081 -0.1533  0.1602
 7247TIP3    H143232   3.734   6.124  13.675 -3.0531  4.1028 -0.9742
 7247TIP3    H243233   3.875   6.171  13.648 -1.3370  0.6913  1.2498
 7248TIP3   OH243234   2.768   4.385   6.560 -0.0348 -0.3699  1.0029
 7248TIP3    H143235   2.818   4.335   6.624  2.1870 -1.8323 -1.6491
 7248TIP3    H243236   2.800   4.475   6.570  2.3381 -1.0615  0.2101
 7249TIP3   OH243237   4.855   6.604   2.294 -0.5063  0.1587  0.2069
 7249TIP3    H143238   4.794   6.624   2.223 -1.0942 -0.3277  0.5591
 7249TIP3    H243239   4.933   6.655   2.274 -0.6658  0.0330 -0.7767
 7250TIP3   OH243240   5.234   4.797  12.740  0.1556 -0.0414  0.5903
 7250TIP3    H143241   5.233   4.752  12.824  1.5934 -2.7724 -0.6889
 7250TIP3    H243242   5.156   4.852  12.740 -1.7330 -2.4969  2.4254
 7251TIP3   OH243243   0.335   1.068   4.970  0.1825 -0.2415  0.2488
 7251TIP3    H143244   0.418   1.100   4.934  2.0227  0.0950  4.2477
 7251TIP3    H243245   0.343   0.973   4.968  0.5625 -0.2136  0.3969
 7252TIP3   OH243246   6.080   1.428  12.659 -0.1754 -0.1362  0.6193
 7252TIP3    H143247   5.989   1.451  12.641 -0.8191 -1.9913  1.2399
 7252TIP3    H243248   6.084   1.421  12.754  1.5435  3.2438  0.9445
 7253TIP3   OH243249   2.216   0.790   4.214 -0.3099  0.0302 -0.0702
 7253TIP3    H143250   2.246   0.793   4.305  0.3193 -0.9278 -0.2181
 7253TIP3    H243251   2.257   0.865   4.172 -0.4966  0.4005  0.4055
 7254TIP3   OH243252   4.689   4.727   4.285  0.2320  0.2287 -0.2590
 7254TIP3    H143253   4.722   4.699   4.370  2.1282  0.0755 -0.9951
 7254TIP3    H243254   4.610   4.778   4.305 -0.2991 -1.1724  1.4485
 7255TIP3   OH243255   1.174   2.296   3.485 -0.1467 -0.5042  0.3801
 7255TIP3    H143256   1.125   2.325   3.408 -0.3173  0.1857  0.7450
 7255TIP3    H243257   1.190   2.203   3.469 -1.6872 -0.7797  0.3111
 7256TIP3   OH243258   1.860   2.425  12.198  0.2047 -0.0747  0.1476
 7256TIP3    H143259   1.907   2.381  12.270 -2.3879 -1.5391  1.0920
 7256TIP3    H243260   1.868   2.518  12.217  0.6868 -0.3926  1.6103
 7257TIP3   OH243261   3.572   3.841  15.043 -0.6422 -0.5472 -0.6479
 7257TIP3    H143262   3.518   3.906  14.998  0.3499  1.2371  0.6128
 7257TIP3    H243263   3.519   3.811  15.116  0.1356  1.5823  0.8951
 7258TIP3   OH243264   3.346   0.799  10.718  0.4167 -0.4250 -0.1617
 7258TIP3    H143265   3.442   0.797  10.716  0.4661  1.1555 -0.8363
 7258TIP3    H243266   3.323   0.881  10.674 -1.1702  0.2458  1.7655
 7259TIP3   OH243267   0.399   4.444   5.471 -0.2314 -0.1090  0.2715
 7259TIP3    H143268   0.452   4.381   5.422 -0.6756 -0.4318  0.2018
 7259TIP3    H243269   0.462   4.491   5.525  0.0235 -1.1404  0.9036
 7260TIP3   OH243270   1.228   5.982  14.853 -0.2911 -0.3943 -0.4391
 7260TIP3    H143271   1.157   5.964  14.915 -0.7287 -1.3962 -1.2108
 7260TIP3    H243272   1.189   5.968  14.767  0.5039  0.3008 -0.9236
 7261TIP3   OH243273   0.479   1.710   0.400  0.1616  0.0979  0.4503
 7261TIP3    H143274   0.537   1.783   0.425 -0.6033  0.7057  0.4960
 7261TIP3    H243275   0.391   1.748   0.404 -0.1263 -0.3127 -1.3450
 7262TIP3   OH243276   0.635   0.432  11.458 -0.0625 -0.0530 -0.1049
 7262TIP3    H143277   0.604   0.427  11.548 -1.5845  0.5902 -0.5447
 7262TIP3    H243278   0.643   0.341  11.429 -0.0363 -0.2509  0.5252
 7263TIP3   OH243279   5.162   2.434  11.200 -0.1689  0.2209 -0.2991
 7263TIP3    H143280   5.208   2.373  11.142  0.9076  0.4349  0.3039
 7263TIP3    H243281   5.109   2.487  11.140  0.2944 -0.0925 -1.0117
 7264TIP3   OH243282   5.665   4.484  14.976 -0.3718  0.2330 -1.2056
 7264TIP3    H143283   5.733   4.474  15.042 -0.0510  0.6174 -1.4768
 7264TIP3    H243284   5.583   4.481  15.026 -0.1672 -0.3532 -0.8965
 7265TIP3   OH243285   0.611   2.540   3.506 -0.5312 -0.0878  0.3150
 7265TIP3    H143286   0.635   2.633   3.502 -1.6563  0.2386  0.7646
 7265TIP3    H243287   0.692   2.496   3.531  0.0491  0.7596 -0.0114
 7266TIP3   OH243288   3.412   2.675  13.583  0.1699 -0.0125  0.0788
 7266TIP3    H143289   3.410   2.747  13.520  0.2324  0.7990  0.9813
 7266TIP3    H243290   3.359   2.607  13.543 -0.6090  0.8636 -0.4226
 7267TIP3   OH243291   3.073   2.755  14.196  0.0729 -0.1153 -0.5882
 7267TIP3    H143292   3.125   2.826  14.234  0.9132 -0.4612 -1.0661
 7267TIP3    H243293   3.109   2.743  14.108  0.5138 -1.6861 -0.2297
 7268TIP3   OH243294   6.058   4.380   2.647 -0.5383  0.6962  0.2003
 7268TIP3    H143295   5.979   4.427   2.618  0.1084  1.6288 -0.0965
 7268TIP3    H243296   6.060   4.301   2.594 -1.3332  0.6100  0.2879
 7269TIP3   OH243297   2.428   5.361   4.851  0.1076  0.3592 -0.1095
 7269TIP3    H143298   2.336   5.364   4.825 -0.2292  1.7531  1.1167
 7269TIP3    H243299   2.426   5.326   4.940  1.0469 -2.2051 -0.9910
 7270TIP3   OH243300   5.511   5.012   5.095  0.4542 -0.1318 -0.1727
 7270TIP3    H143301   5.456   4.954   5.042  0.7278  0.4828 -1.1404
 7270TIP3    H243302   5.578   5.043   5.035  0.0638  1.5403  0.2162
 7271TIP3   OH243303   4.637   3.147  15.211 -0.0600 -0.5268  0.1095
 7271TIP3    H143304   4.630   3.232  15.167 -0.1433 -1.0829 -0.9649
 7271TIP3    H243305   4.588   3.087  15.155 -0.2025 -1.2459  0.9896
 7272TIP3   OH243306   6.612   4.444   4.566 -0.1323  0.0965  0.3350
 7272TIP3    H143307   6.516   4.445   4.562 -0.1782  1.2074  1.0418
 7272TIP3    H243308   6.641   4.463   4.477 -0.5166 -1.9936 -0.2771
 7273TIP3   OH243309   0.493   2.159   5.998  1.0457  0.5339 -0.3659
 7273TIP3    H143310   0.410   2.204   5.982  1.3931  0.9341 -1.1091
 7273TIP3    H243311   0.559   2.217   5.960  1.6029 -0.0996 -0.3818
 7274TIP3   OH243312   5.548   0.545   1.143 -0.3911 -0.3788 -0.4489
 7274TIP3    H143313   5.527   0.505   1.228  0.3286  0.5151  0.1706
 7274TIP3    H243314   5.642   0.564   1.148 -0.5782  0.7610 -0.9824
 7275TIP3   OH243315   1.242   4.932   5.613  0.1227  0.0797  0.3597
 7275TIP3    H143316   1.288   4.860   5.656 -0.1341  0.2231  0.8910
 7275TIP3    H243317   1.254   4.916   5.520 -1.0455 -1.4084  0.4230
 7276TIP3   OH243318   4.334   1.806   1.188  0.2069  0.4909  0.1080
 7276TIP3    H143319   4.292   1.744   1.129  2.2596 -0.8680 -0.0038
 7276TIP3    H243320   4.411   1.761   1.221  0.0741  1.8463  2.5287
 7277TIP3   OH243321   5.150   6.211  11.603 -0.4612  0.2066  0.2577
 7277TIP3    H143322   5.182   6.202  11.693 -0.5974  1.3945  0.4382
 7277TIP3    H243323   5.084   6.280  11.608 -0.1759  0.5678 -0.8254
 7278TIP3   OH243324   0.480   0.618  11.343 -0.5492  0.0867 -0.6633
 7278TIP3    H143325   0.514   0.549  11.399 -0.5429  0.6349  0.0352
 7278TIP3    H243326   0.548   0.633  11.278  1.1909  2.0207  1.4348
 7279TIP3   OH243327   4.403   5.757  12.009 -0.2257 -0.6291 -0.2126
 7279TIP3    H143328   4.425   5.730  12.098  0.9561 -0.1537 -0.3438
 7279TIP3    H243329   4.313   5.726  11.996  0.2151 -2.3221  0.5013
 7280TIP3   OH243330   3.718   4.913  12.660  0.1932 -0.0401  0.4700
 7280TIP3    H143331   3.651   4.920  12.728  0.3675  0.0862  0.6303
 7280TIP3    H243332   3.693   4.835  12.610 -0.4069  0.3453  0.1571
 7281TIP3   OH243333   4.879   1.066  16.844 -0.4344 -0.0505 -0.3774
 7281TIP3    H143334   4.911   1.152  16.868  0.4700 -0.5807  0.3940
 7281TIP3    H243335   4.887   1.014  16.924 -0.4321 -0.9928 -0.9704
 7282TIP3   OH243336   4.375   0.513  16.491 -0.0078  0.0462 -0.4440
 7282TIP3    H143337   4.422   0.572  16.550 -1.0986 -0.4438  0.9554
 7282TIP3    H243338   4.295   0.560  16.468 -0.5987 -0.6329  0.1980
 7283TIP3   OH243339   5.568   5.388  13.444  0.2276 -0.0788  0.1040
 7283TIP3    H143340   5.570   5.382  13.348  0.6319 -0.0579  0.1112
 7283TIP3    H243341   5.659   5.384  13.470  0.3005  2.2627  0.3671
 7284TIP3   OH243342   5.124   0.944  11.312  0.1253  0.0646  0.2379
 7284TIP3    H143343   5.061   0.875  11.293 -0.2242 -0.2949  2.4458
 7284TIP3    H243344   5.207   0.912  11.275 -0.2579 -1.0561  0.3135
 7285TIP3   OH243345   5.925   4.682   4.634 -0.4262 -0.1040  0.2128
 7285TIP3    H143346   5.964   4.769   4.622  0.3256 -0.3444  0.8811
 7285TIP3    H243347   5.957   4.652   4.719  1.1252 -1.9591 -0.9466
 7286TIP3   OH243348   1.706   1.822  15.630 -0.0710  0.1492 -0.6484
 7286TIP3    H143349   1.787   1.786  15.595 -0.6939 -1.9998 -0.0194
 7286TIP3    H243350   1.641   1.807  15.561 -0.2418  0.5240 -0.5714
 7287TIP3   OH243351   0.260   1.215  14.657  0.5983  0.3356  0.4092
 7287TIP3    H143352   0.300   1.290  14.612  0.0991 -0.7489 -1.9957
 7287TIP3    H243353   0.321   1.142  14.641  0.2657 -0.1603  1.3069
 7288TIP3   OH243354   2.709   1.381  13.606 -0.0039  0.1233  0.1737
 7288TIP3    H143355   2.729   1.289  13.587 -2.9277 -0.5331 -0.2202
 7288TIP3    H243356   2.648   1.378  13.679  0.2476  1.8057  0.4916
 7289TIP3   OH243357   2.009   1.290   1.740 -0.0083  0.0641 -0.1189
 7289TIP3    H143358   2.020   1.287   1.835 -0.6590 -0.8108 -0.0499
 7289TIP3    H243359   2.009   1.383   1.718  0.1413  0.2751  0.7378
 7290TIP3   OH243360   0.810   2.689   1.355  0.1405 -0.0721 -0.2069
 7290TIP3    H143361   0.882   2.652   1.407 -1.5161 -2.2225  0.7318
 7290TIP3    H243362   0.768   2.752   1.413  0.5928  0.3784 -0.3620
 7291TIP3   OH243363   4.530   0.881  10.277 -0.9624  0.2499 -0.4341
 7291TIP3    H143364   4.549   0.856  10.368 -0.1205 -1.6600 -1.0795
 7291TIP3    H243365   4.597   0.946  10.256  0.4648 -1.1581 -0.4288
 7292TIP3   OH243366   2.899   0.039  15.702  0.3514  0.2984 -0.6611
 7292TIP3    H143367   2.841  -0.014  15.757 -1.8949  1.1204 -2.1207
 7292TIP3    H243368   2.953   0.087  15.765 -0.5940 -0.4363  0.7826
 7293TIP3   OH243369   6.011   5.446  12.796  0.5160 -0.1552  0.1887
 7293TIP3    H143370   6.046   5.423  12.711 -0.7447 -0.3807 -0.2870
 7293TIP3    H243371   6.085   5.435  12.856  1.2537 -0.5768 -0.7713
 7294TIP3   OH243372   4.192   0.159   2.471 -0.1082 -0.2906 -0.2245
 7294TIP3    H143373   4.280   0.134   2.443  0.0904  0.1877 -0.0376
 7294TIP3    H243374   4.137   0.085   2.445  0.4700 -0.9578  0.3855
 7295TIP3   OH243375   0.102   5.757   4.666 -0.7846 -0.6809  0.1461
 7295TIP3    H143376   0.154   5.756   4.586 -0.7855 -2.5475  0.1173
 7295TIP3    H243377   0.028   5.814   4.646  0.3892  0.7162 -0.3694
 7296TIP3   OH243378   6.337   6.516   1.971  0.7149 -0.1256 -0.3449
 7296TIP3    H143379   6.319   6.592   2.025 -2.2881 -0.3890 -0.8081
 7296TIP3    H243380   6.387   6.457   2.027 -2.8408 -0.6991  2.5377
 7297TIP3   OH243381   2.374   5.266  14.811  0.2127 -0.5413  0.3218
 7297TIP3    H143382   2.349   5.209  14.738 -3.1965  1.2899 -0.1902
 7297TIP3    H243383   2.420   5.339  14.770 -0.9918  0.0863  0.0194
 7298TIP3   OH243384   5.940   6.062  14.885  0.5812  0.7686 -0.2147
 7298TIP3    H143385   5.875   5.994  14.865  1.4580 -0.5560  1.2668
 7298TIP3    H243386   5.941   6.117  14.806  0.0033 -1.0453 -1.5699
 7299TIP3   OH243387   3.421   2.571  12.137 -0.6514  0.2932  0.2924
 7299TIP3    H143388   3.450   2.547  12.225  2.4444 -2.2641 -1.2155
 7299TIP3    H243389   3.344   2.516  12.121  0.8033 -1.8831  0.2958
 7300TIP3   OH243390   0.821   3.332   0.626  0.0458  0.2062  0.0902
 7300TIP3    H143391   0.874   3.401   0.585 -0.2355  0.3120 -0.1035
 7300TIP3    H243392   0.741   3.329   0.573 -0.0148 -0.1570  0.1988
 7301TIP3   OH243393   2.135   6.500  17.106  0.5169 -0.5807  0.0858
 7301TIP3    H143394   2.098   6.414  17.127 -0.9776 -0.2012 -0.8161
 7301TIP3    H243395   2.230   6.487  17.110  0.3486 -1.6997  2.1534
 7302TIP3   OH243396   4.191   0.834  16.506 -0.3115 -0.3784 -0.2520
 7302TIP3    H143397   4.195   0.910  16.565  0.1032 -0.9712  0.5045
 7302TIP3    H243398   4.259   0.852  16.441  0.1479 -0.3294  0.2266
 7303TIP3   OH243399   4.924   0.538   3.576  0.8920  0.6372  0.9037
 7303TIP3    H143400   4.893   0.459   3.531  1.3476  0.9311  0.0501
 7303TIP3    H243401   4.853   0.601   3.564  0.5707  0.4045  1.5011
 7304TIP3   OH243402   2.402   0.763   1.283 -0.0236  0.1646 -0.1229
 7304TIP3    H143403   2.334   0.696   1.275 -0.6414  0.4518  1.9807
 7304TIP3    H243404   2.453   0.736   1.360  0.2930  1.6233  0.2015
 7305TIP3   OH243405   4.225   3.358  14.860  0.0996 -0.1793  0.4952
 7305TIP3    H143406   4.181   3.427  14.909 -0.8002 -0.6997  0.4359
 7305TIP3    H243407   4.219   3.386  14.768  1.6068  0.6937  0.6176
 7306TIP3   OH243408   0.382   3.445  12.926  0.1498  0.4157  0.0595
 7306TIP3    H143409   0.375   3.530  12.969  0.9684  0.8954 -0.7163
 7306TIP3    H243410   0.380   3.465  12.833  1.6084 -0.2777 -0.1536
 7307TIP3   OH243411   3.090   3.728   6.064  0.0878 -0.5621  0.3074
 7307TIP3    H143412   3.026   3.798   6.073  0.9808  0.2290  0.7079
 7307TIP3    H243413   3.083   3.679   6.145  0.2664 -0.2283  0.5280
 7308TIP3   OH243414   0.453   1.399   3.724 -0.2403 -0.2517  0.1552
 7308TIP3    H143415   0.516   1.389   3.795  1.8132 -1.9922 -1.7658
 7308TIP3    H243416   0.437   1.310   3.693 -0.7008  0.4741 -1.8375
 7309TIP3   OH243417   3.299   1.588   4.322  0.1669  0.1758 -0.5568
 7309TIP3    H143418   3.329   1.497   4.317  1.9514  0.6366  0.7732
 7309TIP3    H243419   3.253   1.602   4.239 -2.0067 -2.5247  0.0421
 7310TIP3   OH243420   3.833   4.513  11.724  0.1726  0.0058 -0.2276
 7310TIP3    H143421   3.828   4.568  11.645  0.5770  0.4231  0.0322
 7310TIP3    H243422   3.813   4.425  11.693 -0.1979  0.2527 -0.7035
 7311TIP3   OH243423   6.105   3.545  13.477 -0.1272 -0.4246  0.3530
 7311TIP3    H143424   6.152   3.473  13.434 -0.4138  0.0671 -0.7954
 7311TIP3    H243425   6.022   3.506  13.505 -0.1591 -0.6151 -0.0016
 7312TIP3   OH243426   4.800   5.761   6.605 -0.3698  0.0156  0.9928
 7312TIP3    H143427   4.846   5.711   6.538 -1.5609  1.0736 -0.6723
 7312TIP3    H243428   4.869   5.811   6.649  0.2937  0.2735 -0.2983
 7313TIP3   OH243429   6.744   1.936  14.686 -0.0088  0.0138 -0.0605
 7313TIP3    H143430   6.663   1.982  14.709 -0.4343 -1.1215  0.8070
 7313TIP3    H243431   6.724   1.844  14.701  1.5825 -0.2592  0.5875
 7314TIP3   OH243432   4.500   4.945   4.462  0.3411 -0.0657 -1.0005
 7314TIP3    H143433   4.545   4.971   4.381  1.0151 -2.4403 -1.4715
 7314TIP3    H243434   4.434   4.882   4.432 -2.9543  2.7214 -0.2413
 7315TIP3   OH243435   1.797   6.506  17.140  0.2721  0.4613  0.2870
 7315TIP3    H143436   1.822   6.528  17.050  1.5227  0.9331  0.7243
 7315TIP3    H243437   1.776   6.590  17.181  1.7615  0.5104  1.0080
 7316TIP3   OH243438   3.652   2.263  13.410 -0.0439  0.4217 -0.3192
 7316TIP3    H143439   3.716   2.232  13.474 -1.0162  0.9730  0.9901
 7316TIP3    H243440   3.627   2.185  13.361 -1.7301 -0.8209  2.2592
 7317TIP3   OH243441   6.445   6.688   1.609 -0.2097 -0.7403 -0.1926
 7317TIP3    H143442   6.447   6.767   1.662 -0.6237 -0.1235 -1.0641
 7317TIP3    H243443   6.513   6.632   1.646 -0.3794 -0.2627  0.8634
 7318TIP3   OH243444   6.725   2.225   4.225  0.7104 -0.1052  0.0967
 7318TIP3    H143445   6.643   2.259   4.189 -0.6841 -2.2103  1.1227
 7318TIP3    H243446   6.782   2.217   4.149 -1.0161 -1.2712 -1.1433
 7319TIP3   OH243447   4.760   0.856  12.384  0.1384  0.2609  0.5580
 7319TIP3    H143448   4.834   0.825  12.331  1.3690  2.3922  0.8861
 7319TIP3    H243449   4.733   0.780  12.435  1.3567 -0.8807 -0.4156
 7320TIP3   OH243450   5.512   5.297  14.663 -0.0141  0.9486  0.1032
 7320TIP3    H143451   5.476   5.244  14.734  2.4164 -0.3054  0.4875
 7320TIP3    H243452   5.495   5.246  14.583 -0.9693  1.4150 -0.0107
 7321TIP3   OH243453   6.147   2.156   1.220  0.3871  0.2862 -0.2430
 7321TIP3    H143454   6.210   2.123   1.155  0.0069 -1.3025  0.1476
 7321TIP3    H243455   6.080   2.201   1.168  0.1663 -0.8287 -0.9608
 7322TIP3   OH243456   1.675   3.653  16.476  0.2663 -0.0028  0.1093
 7322TIP3    H143457   1.641   3.670  16.564 -0.2333 -1.0989  0.1395
 7322TIP3    H243458   1.631   3.717  16.421 -0.0726  0.1219  0.5192
 7323TIP3   OH243459   3.844   1.239  10.835 -0.1679  0.4059 -0.6455
 7323TIP3    H143460   3.871   1.197  10.753  1.8064  0.1159  0.1013
 7323TIP3    H243461   3.774   1.300  10.809 -0.6810 -0.8128 -2.2724
 7324TIP3   OH243462   6.247   5.666   5.684 -0.2297  0.1290 -0.1053
 7324TIP3    H143463   6.161   5.702   5.705  0.3768  1.5639 -0.0192
 7324TIP3    H243464   6.265   5.604   5.755 -1.7425 -1.2196 -0.8111
 7325TIP3   OH243465   0.656   5.844   1.159  0.1593 -0.1813 -0.4268
 7325TIP3    H143466   0.676   5.927   1.117 -1.2396  0.1326 -0.5204
 7325TIP3    H243467   0.658   5.780   1.087  0.0951 -0.0385 -0.5565
 7326TIP3   OH243468   2.405   2.642  15.334  0.1410  0.1564 -0.2950
 7326TIP3    H143469   2.333   2.602  15.383  0.9227 -1.3061 -0.2889
 7326TIP3    H243470   2.461   2.681  15.401 -0.1143  0.3993 -0.2226
 7327TIP3   OH243471   2.677   5.081   5.572  0.1754 -0.5371  0.3587
 7327TIP3    H143472   2.709   5.122   5.652  1.1508  0.2809 -0.4185
 7327TIP3    H243473   2.706   4.989   5.580  1.3636 -0.1812  0.4036
 7328TIP3   OH243474   6.742   4.650   3.398  0.5808  0.1637 -0.7462
 7328TIP3    H143475   6.739   4.576   3.458 -0.3910  0.0531 -0.9242
 7328TIP3    H243476   6.680   4.628   3.328  1.8242  0.2054 -1.9006
 7329TIP3   OH243477   6.746   3.519  15.553 -0.0425 -0.2674 -0.4111
 7329TIP3    H143478   6.769   3.489  15.641 -0.6046 -1.8090 -0.7683
 7329TIP3    H243479   6.777   3.449  15.495 -0.9427  0.0651 -1.3222
 7330TIP3   OH243480   0.816   5.750   2.856  0.0139  0.1822 -0.1633
 7330TIP3    H143481   0.899   5.730   2.898  1.1977  2.4187 -1.2568
 7330TIP3    H243482   0.810   5.846   2.858 -0.7401  0.3201 -3.2720
 7331TIP3   OH243483   5.777   4.545   2.763  0.5650 -0.1569 -0.3747
 7331TIP3    H143484   5.830   4.486   2.816  1.2324  0.1275 -0.7121
 7331TIP3    H243485   5.832   4.622   2.749  0.2055 -0.0087 -1.0426
 7332TIP3   OH243486   5.876   0.745   3.294 -0.1282  0.1494 -0.2767
 7332TIP3    H143487   5.968   0.730   3.314 -0.7315 -1.0992  2.0238
 7332TIP3    H243488   5.831   0.666   3.326 -2.1294  1.3464  0.0926
 7333TIP3   OH243489   5.365   5.297  17.058  0.0302  0.0845 -0.0935
 7333TIP3    H143490   5.390   5.206  17.072  0.6802  0.2440 -0.1904
 7333TIP3    H243491   5.343   5.302  16.965  1.8486  0.4450 -0.5319
 7334TIP3   OH243492   2.845   1.098  12.927 -0.3960  0.3296 -0.1873
 7334TIP3    H143493   2.837   1.088  12.832 -0.3519 -1.5415 -0.0394
 7334TIP3    H243494   2.776   1.043  12.963 -0.9738  1.6949  0.8875
 7335TIP3   OH243495   0.262   6.358   2.999  0.4865 -0.4813 -0.4748
 7335TIP3    H143496   0.326   6.401   3.056  1.4291 -0.6896 -1.3381
 7335TIP3    H243497   0.284   6.265   3.005 -1.3180 -0.8787  1.1110
 7336TIP3   OH243498   0.368   3.093  10.738 -0.0894 -0.1352  0.3706
 7336TIP3    H143499   0.444   3.045  10.769  2.5532  3.2497 -0.2649
 7336TIP3    H243500   0.298   3.027  10.731  1.9103 -2.8915  3.6948
 7337TIP3   OH243501   4.864   2.664  17.133  0.2204 -0.2604 -0.7538
 7337TIP3    H143502   4.888   2.580  17.172  3.8728  0.3932 -1.2701
 7337TIP3    H243503   4.893   2.730  17.196  0.9810  0.6822 -2.0438
 7338TIP3   OH243504   6.807   2.046   3.647  0.4756 -0.0783 -0.5073
 7338TIP3    H143505   6.725   2.039   3.695 -0.0883 -2.2679 -1.6752
 7338TIP3    H243506   6.792   2.119   3.586 -0.8799 -0.8431 -1.1468
 7339TIP3   OH243507   1.858   6.796  15.162 -0.3175  0.0966  0.4759
 7339TIP3    H143508   1.843   6.738  15.087 -0.9074  0.1222  0.5708
 7339TIP3    H243509   1.779   6.848  15.168 -1.4286 -1.6684  2.6883
 7340TIP3   OH243510   1.071   3.378   1.520 -0.6419 -0.2633 -0.6424
 7340TIP3    H143511   1.030   3.463   1.502  0.4189  0.2940 -0.5494
 7340TIP3    H243512   1.065   3.368   1.615  0.0122  0.1415 -0.5493
 7341TIP3   OH243513   4.383   3.630   5.594  0.3057 -0.1778  0.0286
 7341TIP3    H143514   4.326   3.673   5.658 -1.6706 -0.0391 -1.7241
 7341TIP3    H243515   4.458   3.600   5.646 -1.3221 -0.3553  2.4586
 7342TIP3   OH243516   2.228   1.136  14.109 -0.3573 -0.1882 -0.5386
 7342TIP3    H143517   2.249   1.075  14.038  1.4105 -0.0834 -0.1521
 7342TIP3    H243518   2.201   1.216  14.064 -0.8089 -0.6229 -1.0677
 7343TIP3   OH243519   1.695   2.916  15.480 -0.5859  0.3516 -0.2033
 7343TIP3    H143520   1.740   2.917  15.565  0.1650 -2.8725 -0.4385
 7343TIP3    H243521   1.745   2.977  15.426 -1.0124  2.3962  1.5498
 7344TIP3   OH243522   5.097   4.748   4.445  0.1809 -0.8288 -0.3284
 7344TIP3    H143523   5.097   4.666   4.396  0.1551 -0.2706 -1.2909
 7344TIP3    H243524   5.007   4.759   4.473 -0.1783 -0.3535 -1.5792
 7345TIP3   OH243525   5.251   0.541  15.093  0.2510 -0.4578 -0.0291
 7345TIP3    H143526   5.240   0.500  15.008  0.7843 -0.1212 -0.2640
 7345TIP3    H243527   5.219   0.630  15.081  0.9248 -0.2159 -0.0552
 7346TIP3   OH243528   2.245   3.423  13.136 -0.3404 -0.4175  0.3125
 7346TIP3    H143529   2.169   3.481  13.135  0.3944  0.6169  1.3017
 7346TIP3    H243530   2.281   3.432  13.225  2.4513  1.2236 -0.8305
 7347TIP3   OH243531   2.814   0.533   0.747 -0.4629 -0.2478 -0.6955
 7347TIP3    H143532   2.856   0.461   0.795 -1.8238 -1.2291 -0.9199
 7347TIP3    H243533   2.822   0.508   0.655 -1.5800 -0.4934 -0.7359
 7348TIP3   OH243534   2.787   2.025  15.457  0.2881 -0.5144 -0.1459
 7348TIP3    H143535   2.792   2.069  15.373  1.5431  1.0064  0.6779
 7348TIP3    H243536   2.740   1.944  15.439 -0.0796  0.1003 -2.1578
 7349TIP3   OH243537   2.250   5.821  12.443 -0.0926 -0.2921  0.4985
 7349TIP3    H143538   2.258   5.910  12.407  0.2773 -0.7424 -0.5859
 7349TIP3    H243539   2.168   5.822  12.492 -0.0924  0.6464  0.4934
 7350TIP3   OH243540   5.202   6.288   3.716  0.2980 -0.9285  0.0141
 7350TIP3    H143541   5.157   6.209   3.744  1.1733 -1.2583  0.5433
 7350TIP3    H243542   5.160   6.313   3.634 -1.5395 -0.6040  1.0147
 7351TIP3   OH243543   6.161   1.295   1.157  0.0348 -0.7148  0.9811
 7351TIP3    H143544   6.072   1.298   1.191 -0.0649 -0.9259  0.7436
 7351TIP3    H243545   6.160   1.353   1.081  0.4122  0.2345  1.6811
 7352TIP3   OH243546   4.858   0.347   3.110  0.6633 -0.0507  0.0754
 7352TIP3    H143547   4.858   0.432   3.066 -1.7274  0.1353  0.3127
 7352TIP3    H243548   4.767   0.318   3.105  1.0529 -1.6869  1.7441
 7353TIP3   OH243549   1.405   0.090  16.501  0.4160  0.3000 -0.3471
 7353TIP3    H143550   1.481   0.116  16.448 -0.1240  1.2719 -0.6722
 7353TIP3    H243551   1.443   0.059  16.583  1.1778  0.6540 -0.5517
 7354TIP3   OH243552   6.049   6.632  10.766 -0.0051 -0.2458 -0.1906
 7354TIP3    H143553   5.968   6.607  10.812  0.8192 -1.0067  0.8993
 7354TIP3    H243554   6.118   6.582  10.810  1.0698  0.3843 -1.1061
 7355TIP3   OH243555   3.701   3.449   5.717  0.1548 -0.0748  0.1625
 7355TIP3    H143556   3.633   3.488   5.662  0.8386  0.2063 -0.4941
 7355TIP3    H243557   3.669   3.360   5.734 -0.8299  0.3596  0.6624
 7356TIP3   OH243558   1.651   4.695  15.700  0.0393  0.1080 -0.0025
 7356TIP3    H143559   1.624   4.755  15.631  3.4394  1.5156 -0.2915
 7356TIP3    H243560   1.569   4.671  15.744 -1.8659  1.8636 -2.3286
 7357TIP3   OH243561   5.933   6.053  11.881  0.2519  0.1810 -0.2041
 7357TIP3    H143562   5.897   6.112  11.814  1.0190 -1.5594 -2.2721
 7357TIP3    H243563   5.867   6.053  11.951 -1.2283  1.1021 -1.5371
 7358TIP3   OH243564   6.598   2.093   0.587  0.1959  0.0667  0.8350
 7358TIP3    H143565   6.621   2.167   0.643  1.0712  0.3148  0.1591
 7358TIP3    H243566   6.639   2.112   0.502  1.3480 -1.6867  0.9356
 7359TIP3   OH243567   1.044   5.912  13.788 -0.1675 -0.1501 -0.4318
 7359TIP3    H143568   0.997   5.937  13.708  0.0216  0.3800 -0.3761
 7359TIP3    H243569   1.095   5.835  13.762 -1.4932 -1.1136 -0.3459
 7360TIP3   OH243570   6.567   3.697   2.126  0.0883  0.0169 -0.0723
 7360TIP3    H143571   6.564   3.697   2.030 -0.1573  0.7034 -0.0710
 7360TIP3    H243572   6.544   3.608   2.151  0.0863 -0.1477 -0.6490
 7361TIP3   OH243573   4.227   3.629   4.009  0.0574 -0.2419 -0.1955
 7361TIP3    H143574   4.266   3.650   4.094  0.8999  1.0889 -0.8848
 7361TIP3    H243575   4.136   3.658   4.017  0.5231  1.3080 -0.2357
 7362TIP3   OH243576   0.857   2.558  15.723 -0.1964  0.0289 -0.0213
 7362TIP3    H143577   0.904   2.556  15.806 -2.3614 -0.2851  1.2720
 7362TIP3    H243578   0.769   2.586  15.746 -0.7139  0.4912 -2.3166
 7363TIP3   OH243579   3.690   1.218   4.779  0.0421  0.0345  0.2250
 7363TIP3    H143580   3.668   1.146   4.720 -0.3603 -0.6571  1.1989
 7363TIP3    H243581   3.608   1.267   4.790  0.3255  0.7080 -0.4785
 7364TIP3   OH243582   5.115   1.051  13.832 -0.2123  0.3758 -0.2193
 7364TIP3    H143583   5.209   1.047  13.850 -0.2131  0.7704 -0.1243
 7364TIP3    H243584   5.080   0.969  13.868  0.0469  0.3699  0.0155
 7365TIP3   OH243585   1.266   4.868  14.402 -0.1216  0.4758 -0.6241
 7365TIP3    H143586   1.224   4.832  14.480 -2.9851  0.1893 -2.1765
 7365TIP3    H243587   1.291   4.957  14.427 -0.5429  0.2350  0.7518
 7366TIP3   OH243588   5.726   6.794   5.275 -0.0430  0.4954  0.1887
 7366TIP3    H143589   5.664   6.800   5.348  2.8344  0.6211  2.8099
 7366TIP3    H243590   5.745   6.886   5.252 -0.0211  0.4681  0.0969
 7367TIP3   OH243591   1.869   4.957   0.275 -0.5801 -0.4609 -0.0616
 7367TIP3    H143592   1.788   5.005   0.257  0.0809  0.3653 -0.9184
 7367TIP3    H243593   1.938   5.022   0.264  0.1509 -0.8216  1.8838
 7368TIP3   OH243594   5.948   2.362  12.260 -0.1468 -0.4235 -0.1284
 7368TIP3    H143595   5.907   2.343  12.344 -0.5860  0.2356 -0.1848
 7368TIP3    H243596   5.875   2.381  12.201  0.2288  0.8762 -0.2019
 7369TIP3   OH243597   6.702   0.493  15.283  0.2144 -0.0602 -0.2489
 7369TIP3    H143598   6.748   0.572  15.313  0.5261 -0.7575  1.1937
 7369TIP3    H243599   6.762   0.453  15.220 -0.3135  1.2769 -1.6409
 7370TIP3   OH243600   6.305   5.122  16.053  0.1870 -0.5376 -0.0220
 7370TIP3    H143601   6.288   5.053  15.989 -1.5045 -0.8382  0.6989
 7370TIP3    H243602   6.247   5.194  16.028  0.8162  0.0413  0.1373
 7371TIP3   OH243603   2.080   5.739  11.608 -0.1613  0.3464 -0.2651
 7371TIP3    H143604   2.043   5.684  11.539 -1.0934  1.2962 -0.5661
 7371TIP3    H243605   2.098   5.680  11.680  1.2687 -0.7577 -1.4672
 7372TIP3   OH243606   0.640   1.324  14.202 -0.2412  0.5127 -0.3884
 7372TIP3    H143607   0.554   1.308  14.242  0.1114  2.3964  1.3068
 7372TIP3    H243608   0.631   1.407  14.157  0.2533 -0.1028 -1.6681
 7373TIP3   OH243609   4.128   0.701  17.126  0.2035  0.3447  0.4069
 7373TIP3    H143610   4.162   0.786  17.155  0.0848  0.1366  1.1917
 7373TIP3    H243611   4.163   0.639  17.189  0.4050 -0.2161 -0.2474
 7374TIP3   OH243612   0.380   6.558  11.929 -0.2386  0.4407 -0.1232
 7374TIP3    H143613   0.432   6.573  12.008  0.3723  1.6207 -0.7246
 7374TIP3    H243614   0.413   6.622  11.866 -0.1696 -0.9632 -1.6029
 7375TIP3   OH243615   3.783   2.755   1.046  0.5209 -0.1111 -0.0161
 7375TIP3    H143616   3.790   2.830   0.987  1.1868  0.4631  0.7645
 7375TIP3    H243617   3.722   2.784   1.115  0.5861 -0.3710  0.1528
 7376TIP3   OH243618   0.227   3.742  14.182 -0.3524 -0.1713  0.1479
 7376TIP3    H143619   0.151   3.794  14.208 -0.3028  0.2684 -0.5504
 7376TIP3    H243620   0.295   3.767  14.244 -0.0044  1.4499 -0.8256
 7377TIP3   OH243621   0.300   2.678   1.027  0.3320 -0.4752 -0.5108
 7377TIP3    H143622   0.382   2.688   0.978 -0.1374 -0.6320 -1.3430
 7377TIP3    H243623   0.319   2.610   1.091  0.9859 -0.2051 -0.4054
 7378TIP3   OH243624   6.154   6.643  11.593  0.0515  0.2083  0.1683
 7378TIP3    H143625   6.198   6.719  11.632 -0.1511  0.6264 -0.4060
 7378TIP3    H243626   6.117   6.596  11.667 -0.7170  1.2376  0.4497
 7379TIP3   OH243627   0.815   4.894   2.215 -0.1251 -0.6730  0.1106
 7379TIP3    H143628   0.790   4.804   2.197 -0.4504 -0.1715 -2.3285
 7379TIP3    H243629   0.734   4.935   2.248 -0.1920 -1.0777  0.4511
 7380TIP3   OH243630   5.606   1.794  11.804 -0.1616  0.2277 -0.0134
 7380TIP3    H143631   5.566   1.871  11.846 -0.5018  0.0682 -0.0463
 7380TIP3    H243632   5.698   1.800  11.828 -0.0772  0.9415 -0.4520
 7381TIP3   OH243633   5.946   1.720  12.715 -0.4593 -0.2919  0.3661
 7381TIP3    H143634   5.956   1.664  12.792 -2.9720 -2.0686 -0.4802
 7381TIP3    H243635   5.988   1.672  12.644  1.3394  1.0715  0.4499
 7382TIP3   OH243636   1.490   4.004   1.924  0.2465 -0.6077 -0.1315
 7382TIP3    H143637   1.522   3.992   2.013 -0.2466  1.4154  0.3698
 7382TIP3    H243638   1.562   4.048   1.878 -0.2870  0.2816 -0.1289
 7383TIP3   OH243639   4.522   2.645   0.346 -0.4039 -0.0637  0.1282
 7383TIP3    H143640   4.613   2.643   0.374 -0.3865 -0.4502  0.0379
 7383TIP3    H243641   4.489   2.729   0.379 -0.0372  0.0427  0.2212
 7384TIP3   OH243642   0.613   2.054  12.159 -0.0519  0.3338  0.3954
 7384TIP3    H143643   0.630   2.144  12.189  1.6554  0.3784 -0.5468
 7384TIP3    H243644   0.700   2.015  12.151 -0.5243 -0.3227 -2.4428
 7385TIP3   OH243645   6.189   5.232  14.526  0.0626  0.1945  0.0047
 7385TIP3    H143646   6.169   5.268  14.613 -0.1571  0.6284 -0.2195
 7385TIP3    H243647   6.103   5.204  14.492 -0.3903  2.8475 -1.3173
 7386TIP3   OH243648   6.076   4.344   1.473 -0.0762 -0.1060 -0.1974
 7386TIP3    H143649   6.113   4.415   1.526  2.5874 -1.1978 -0.4415
 7386TIP3    H243650   6.023   4.294   1.534  1.3844 -0.2416  1.0272
 7387TIP3   OH243651   5.462   5.462   3.155  0.2826 -0.2856 -0.2461
 7387TIP3    H143652   5.411   5.539   3.179  1.0844 -0.2049  1.3564
 7387TIP3    H243653   5.421   5.390   3.203 -0.4821 -0.8931 -1.7578
 7388TIP3   OH243654   6.792   1.307  16.541  0.2996  0.5492  0.1145
 7388TIP3    H143655   6.854   1.341  16.476 -0.1415 -1.2058 -1.3282
 7388TIP3    H243656   6.841   1.306  16.623  1.8724  0.1340 -0.7862
 7389TIP3   OH243657   5.388   1.899   6.098  0.0636 -0.6231  0.1590
 7389TIP3    H143658   5.457   1.842   6.064 -1.5054 -2.6142  0.1029
 7389TIP3    H243659   5.425   1.938   6.177  1.9861  0.1122 -1.0406
 7390TIP3   OH243660   3.744   6.302   0.606 -0.5662  0.2654  0.2407
 7390TIP3    H143661   3.808   6.348   0.660  0.4927 -0.8860  0.0227
 7390TIP3    H243662   3.672   6.282   0.666 -0.6271  1.3577  0.5480
 7391TIP3   OH243663   4.529   4.995  13.247 -0.2877 -0.1913  0.3378
 7391TIP3    H143664   4.455   4.965  13.300 -1.9361  0.9467 -1.2120
 7391TIP3    H243665   4.575   4.914  13.224 -0.9363 -0.9176  1.4662
 7392TIP3   OH243666   3.694   2.619  12.871 -0.2144 -0.3993  0.2912
 7392TIP3    H143667   3.736   2.611  12.957  0.4214  0.9596  0.1326
 7392TIP3    H243668   3.765   2.643  12.812 -1.0298  0.9950 -0.1723
 7393TIP3   OH243669   1.175   3.668   3.412  0.4212  0.4717  0.1979
 7393TIP3    H143670   1.216   3.754   3.404 -0.7275  1.0994  0.7775
 7393TIP3    H243671   1.219   3.614   3.347 -1.0321  2.3725 -2.5771
 7394TIP3   OH243672   4.049   2.936  12.148  0.5339  0.2016 -0.0250
 7394TIP3    H143673   4.041   3.031  12.147  1.4281  0.2811 -0.2284
 7394TIP3    H243674   4.143   2.919  12.152  0.5313 -0.6563 -2.1411
 7395TIP3   OH243675   1.521   0.715  13.392 -0.2278 -0.4248  0.7334
 7395TIP3    H143676   1.509   0.809  13.404 -0.1263 -0.4370  0.9344
 7395TIP3    H243677   1.486   0.697  13.304 -0.1964 -0.1915  0.6724
 7396TIP3   OH243678   4.636   2.381   0.160 -0.1777  0.4626 -0.1326
 7396TIP3    H143679   4.610   2.333   0.238 -0.9764 -0.1101 -0.7376
 7396TIP3    H243680   4.732   2.374   0.159 -0.2319 -0.4775  0.1906
 7397TIP3   OH243681   5.727   5.671   3.595 -0.3298  0.0531 -0.1080
 7397TIP3    H143682   5.698   5.702   3.680 -0.8440 -0.1864 -0.1880
 7397TIP3    H243683   5.770   5.746   3.555 -1.4494  0.6485 -0.2531
 7398TIP3   OH243684   1.204   1.184  17.160  0.5994 -0.4172  0.1527
 7398TIP3    H143685   1.224   1.240  17.084  0.7477  2.1422  1.9455
 7398TIP3    H243686   1.108   1.179  17.161  0.6350 -2.5056 -1.5163
 7399TIP3   OH243687   1.520   0.545  15.513 -0.3404  0.3446 -0.4826
 7399TIP3    H143688   1.552   0.631  15.487  0.5942  0.0773 -0.2481
 7399TIP3    H243689   1.575   0.483  15.466  0.2746 -0.1343  0.8177
 7400TIP3   OH243690   5.369   1.205  12.355  0.0553  0.0652  0.2732
 7400TIP3    H143691   5.327   1.247  12.430  0.0807  0.7905 -0.1115
 7400TIP3    H243692   5.357   1.112  12.370  1.2866  0.1209  1.9054
 7401TIP3   OH243693   1.791   2.348  15.127 -0.1138 -0.3203 -0.1618
 7401TIP3    H143694   1.808   2.266  15.173  0.0026 -0.8907 -1.2008
 7401TIP3    H243695   1.701   2.371  15.151  0.0948 -0.3518  0.7103
 7402TIP3   OH243696   5.954   6.600  11.189  0.1474 -0.0850 -0.1534
 7402TIP3    H143697   5.930   6.566  11.103  1.7249  0.1737 -0.7343
 7402TIP3    H243698   5.952   6.524  11.247 -3.0644  0.0900  0.1426
 7403TIP3   OH243699   2.498   0.234   1.473  0.3040  0.7694 -0.2287
 7403TIP3    H143700   2.554   0.308   1.448 -0.2267  0.5539 -2.2182
 7403TIP3    H243701   2.427   0.273   1.524  1.1349  1.3240  0.5337
 7404TIP3   OH243702   3.602   5.057  13.311  0.4730 -0.5764  0.2315
 7404TIP3    H143703   3.539   5.095  13.372 -1.4383 -0.6546 -1.5633
 7404TIP3    H243704   3.564   5.073  13.224  1.6040 -2.9678 -0.8092
 7405TIP3   OH243705   5.189   3.004  16.587 -0.3794  0.2219 -0.3218
 7405TIP3    H143706   5.107   3.024  16.632 -0.9691  0.3500 -1.4233
 7405TIP3    H243707   5.246   3.080  16.605 -0.5652  0.2268  0.2695
 7406TIP3   OH243708   3.709   5.270   4.425  0.2803 -0.3297  0.7378
 7406TIP3    H143709   3.649   5.284   4.351  2.0629 -0.7959 -0.8714
 7406TIP3    H243710   3.654   5.230   4.493 -1.3771 -0.0656 -0.3726
 7407TIP3   OH243711   2.398   6.175   1.544  0.1992  0.0913 -0.3154
 7407TIP3    H143712   2.492   6.164   1.550  0.0042 -1.2347  0.6629
 7407TIP3    H243713   2.369   6.107   1.483 -0.1598  0.3671 -0.4626
 7408TIP3   OH243714   2.488   6.058   5.579  0.2130 -0.1766  0.5999
 7408TIP3    H143715   2.416   6.119   5.562  1.0463  0.7404  0.2140
 7408TIP3    H243716   2.446   5.977   5.607 -1.0969 -0.5282 -2.1293
 7409TIP3   OH243717   3.760   2.005  12.914 -0.1578 -0.3546 -0.4331
 7409TIP3    H143718   3.798   2.024  13.000 -0.9826  0.8577 -0.3146
 7409TIP3    H243719   3.749   2.091  12.874 -0.6346 -0.8522 -1.3917
 7410TIP3   OH243720   1.340   2.974   0.960  0.7554 -0.3440  0.5523
 7410TIP3    H143721   1.352   2.910   0.890  1.7878 -1.1980  1.4846
 7410TIP3    H243722   1.245   2.985   0.966  0.6130 -0.9733 -0.3472
 7411TIP3   OH243723   6.543   2.407   5.452  0.1362  0.2527 -0.0577
 7411TIP3    H143724   6.499   2.325   5.476  0.0423 -0.4313 -2.3136
 7411TIP3    H243725   6.529   2.464   5.527 -0.8469 -1.3935  1.0927
 7412TIP3   OH243726   5.223   3.665  15.326 -0.1769  0.3652  0.0630
 7412TIP3    H143727   5.270   3.582  15.336  1.8456  1.2146 -1.6982
 7412TIP3    H243728   5.141   3.641  15.282 -0.0016 -0.7866  0.3383
 7413TIP3   OH243729   1.840   0.927   2.463  0.7959  0.0729  0.0055
 7413TIP3    H143730   1.812   0.928   2.372  1.4948  1.0572 -0.2081
 7413TIP3    H243731   1.913   0.865   2.465 -0.0365 -0.9334  0.1668
 7414TIP3   OH243732   6.735   5.243   0.025  0.0228 -0.1265 -0.0835
 7414TIP3    H143733   6.814   5.230   0.077  0.8570  0.6454 -1.1111
 7414TIP3    H243734   6.678   5.170   0.050  0.6506 -0.1515  1.3956
 7415TIP3   OH243735   4.414   1.133  14.437 -0.0622  0.2579 -0.1614
 7415TIP3    H143736   4.417   1.187  14.516 -3.5674  0.6654 -0.1193
 7415TIP3    H243737   4.420   1.043  14.470 -0.1398  0.4603  0.4211
 7416TIP3   OH243738   4.018   5.458   4.575 -0.1731 -0.5049 -0.4395
 7416TIP3    H143739   3.981   5.370   4.572 -1.0033 -0.2699  1.4406
 7416TIP3    H243740   4.053   5.466   4.664 -0.3029  1.1398 -0.5125
 7417TIP3   OH243741   5.171   4.126  14.903  0.0686  0.1001  0.7244
 7417TIP3    H143742   5.244   4.182  14.931  0.4923 -0.3956  0.6072
 7417TIP3    H243743   5.150   4.156  14.815  0.8975 -0.5252  0.3028
 7418TIP3   OH243744   3.891   2.073   5.443 -0.1864 -0.2833 -0.0144
 7418TIP3    H143745   3.810   2.103   5.485  1.1361  1.8503  1.2278
 7418TIP3    H243746   3.891   2.117   5.358  0.5293  1.3069  0.7702
 7419TIP3   OH243747   0.365   5.530   4.024  0.2343  0.5293 -0.2036
 7419TIP3    H143748   0.283   5.524   4.072 -0.2539 -0.0272 -1.0959
 7419TIP3    H243749   0.431   5.499   4.086 -0.1672  1.2929  0.6301
 7420TIP3   OH243750   6.064   6.746  12.708  0.2682  0.0709 -0.5710
 7420TIP3    H143751   6.066   6.840  12.725 -0.8178 -0.1363  0.8188
 7420TIP3    H243752   5.973   6.720  12.722  0.8512 -1.4713  0.7868
 7421TIP3   OH243753   0.156   1.659  11.538 -0.3753 -0.0865  0.1379
 7421TIP3    H143754   0.215   1.650  11.612 -0.4164  1.2609  0.3560
 7421TIP3    H243755   0.072   1.626  11.570 -0.5147  0.9232  0.8711
 7422TIP3   OH243756   3.694   4.871  11.962  0.8445  0.4615  0.0205
 7422TIP3    H143757   3.787   4.854  11.979  1.0974  0.3068 -1.3934
 7422TIP3    H243758   3.685   4.860  11.867 -1.3442 -3.0135  0.4870
 7423TIP3   OH243759   4.129   5.227  12.771  0.0299  0.5123 -0.6110
 7423TIP3    H143760   4.104   5.320  12.773  0.0123  0.4990  0.8905
 7423TIP3    H243761   4.121   5.198  12.862 -1.9364 -1.5036 -1.3404
 7424TIP3   OH243762   4.484   3.720   2.013  0.3084 -0.5625 -0.1369
 7424TIP3    H143763   4.459   3.646   1.958  2.0239 -0.5192 -1.0471
 7424TIP3    H243764   4.476   3.796   1.955 -1.1523 -0.0357  0.7007
 7425TIP3   OH243765   5.126   5.329   2.251 -0.2337 -0.0656  0.7518
 7425TIP3    H143766   5.078   5.406   2.219 -0.8898 -0.9136 -0.4165
 7425TIP3    H243767   5.098   5.319   2.342 -0.7695  0.5973  0.6709
 7426TIP3   OH243768   5.749   5.691  12.400 -0.0790 -0.6131 -0.3624
 7426TIP3    H143769   5.677   5.684  12.462  0.8673 -2.2837  0.6412
 7426TIP3    H243770   5.820   5.642  12.442  0.6909 -1.5406 -2.6361
 7427TIP3   OH243771   1.669   2.230   3.205  0.0134 -0.1102 -0.2261
 7427TIP3    H143772   1.742   2.280   3.169  0.3359 -0.4147 -0.0122
 7427TIP3    H243773   1.594   2.289   3.201  0.0204 -0.1633 -1.4633
 7428TIP3   OH243774   4.453   3.991  12.674  0.1460 -0.3875 -0.1787
 7428TIP3    H143775   4.514   4.020  12.607  1.6891 -0.9918  0.9138
 7428TIP3    H243776   4.402   3.922  12.632  0.4600 -0.1468 -0.9805
 7429TIP3   OH243777   3.285   5.057  12.477  0.5116 -0.2533 -0.2816
 7429TIP3    H143778   3.285   5.076  12.571 -0.6525 -0.9603 -0.1100
 7429TIP3    H243779   3.354   4.992  12.466  1.8041  1.0597 -0.2170
 7430TIP3   OH243780   3.350   2.877   5.213 -0.2220  0.4089 -0.1427
 7430TIP3    H143781   3.432   2.860   5.168 -1.5821 -0.1642 -2.5997
 7430TIP3    H243782   3.314   2.954   5.169 -0.7684  0.9990  1.2764
 7431TIP3   OH243783   1.500   5.993   2.147 -0.2344 -0.2675 -0.0259
 7431TIP3    H143784   1.542   6.056   2.206  0.6669 -1.5453  0.7544
 7431TIP3    H243785   1.432   5.952   2.201 -0.4643 -0.3338 -0.3644
 7432TIP3   OH243786   3.270   4.795  12.836 -0.8541 -0.7812 -0.2213
 7432TIP3    H143787   3.259   4.890  12.844  0.0581 -0.3675 -3.0289
 7432TIP3    H243788   3.186   4.765  12.800 -0.0552 -0.4832 -2.5081
 7433TIP3   OH243789   4.733   2.371  16.393  0.0685 -1.0911  0.3009
 7433TIP3    H143790   4.820   2.393  16.358  0.5739 -1.5657  1.2256
 7433TIP3    H243791   4.679   2.359  16.315  0.4451  0.6773 -0.2797
 7434TIP3   OH243792   4.497   5.980   2.402  0.4984 -0.2059  0.8009
 7434TIP3    H143793   4.478   5.934   2.484 -0.3905 -1.2501  0.0467
 7434TIP3    H243794   4.572   5.933   2.365 -1.3381 -2.1550 -0.7096
 7435TIP3   OH243795   4.644   5.723   3.884  0.1639  0.4370 -0.7371
 7435TIP3    H143796   4.638   5.642   3.833 -1.3997  0.3046 -0.3909
 7435TIP3    H243797   4.553   5.754   3.891 -0.1084 -0.6799  3.7429
 7436TIP3   OH243798   5.045   5.389  12.981  0.0396 -0.4198 -0.1374
 7436TIP3    H143799   5.104   5.324  13.018  1.0654 -0.0386 -1.0568
 7436TIP3    H243800   4.962   5.343  12.971  0.1658 -0.9730  1.1383
 7437TIP3   OH243801   2.530   3.257  10.846 -0.0068  0.2210  0.1689
 7437TIP3    H143802   2.481   3.269  10.765  1.7153  1.8333 -0.7185
 7437TIP3    H243803   2.619   3.235  10.817  0.7988  1.4241  1.5710
 7438TIP3   OH243804   0.687   4.254  13.387  0.4195  0.0188 -1.1369
 7438TIP3    H143805   0.686   4.301  13.304 -2.0364 -2.0903 -2.4593
 7438TIP3    H243806   0.607   4.202  13.386  0.3772 -0.2646  2.5106
 7439TIP3   OH243807   0.196   6.611   0.482 -0.2003  0.1530  0.2538
 7439TIP3    H143808   0.246   6.635   0.405  1.2647 -0.1459  1.0697
 7439TIP3    H243809   0.262   6.588   0.548 -1.3926  0.3556  1.5851
 7440TIP3   OH243810   6.714   3.809   4.928 -0.2760 -0.2305 -0.0504
 7440TIP3    H143811   6.739   3.804   5.021 -0.4944  0.7417  0.0649
 7440TIP3    H243812   6.620   3.826   4.929 -0.0959  0.8232 -0.4391
 7441TIP3   OH243813   4.151   3.641  14.225  0.7738  0.0439  0.1759
 7441TIP3    H143814   4.194   3.566  14.264  0.5005 -0.2574 -0.0980
 7441TIP3    H243815   4.082   3.604  14.170  0.2309  0.5151  0.5216
 7442TIP3   OH243816   3.860   0.619  13.802  0.5043 -0.2420 -0.3340
 7442TIP3    H143817   3.868   0.712  13.823 -1.0941 -0.1007 -0.2689
 7442TIP3    H243818   3.791   0.614  13.736  2.3389 -1.1535 -2.3257
 7443TIP3   OH243819   4.442   4.863   4.174 -0.4100 -0.0843 -0.1811
 7443TIP3    H143820   4.350   4.880   4.150 -0.8931 -0.4092  1.3234
 7443TIP3    H243821   4.485   4.844   4.091 -1.4689  1.1323 -1.0521
 7444TIP3   OH243822   2.557   6.333   4.364 -0.2924  0.3443 -0.5197
 7444TIP3    H143823   2.588   6.243   4.374 -0.5568  0.2377 -0.6394
 7444TIP3    H243824   2.570   6.353   4.271  1.1735  0.9652 -0.2036
 7445TIP3   OH243825   0.400   1.386  13.987  0.0044  0.3311 -0.1027
 7445TIP3    H143826   0.450   1.439  13.925 -0.1084  0.6441  0.0674
 7445TIP3    H243827   0.438   1.299  13.981  0.3450  0.4871 -0.2242
 7446TIP3   OH243828   1.433   6.670   2.881 -0.1163 -0.5709  0.2420
 7446TIP3    H143829   1.450   6.760   2.854 -1.4494 -0.0225  1.1201
 7446TIP3    H243830   1.428   6.620   2.799 -1.4438  0.5499 -0.3803
 7447TIP3   OH243831   5.005   3.213   2.841 -0.2573  0.5069  0.3892
 7447TIP3    H143832   5.052   3.241   2.763  0.1249  0.6385  0.6644
 7447TIP3    H243833   5.072   3.205   2.908 -0.4230 -0.6373  0.4391
 7448TIP3   OH243834   2.193   0.400  16.012  0.4442  0.2728  0.0101
 7448TIP3    H143835   2.127   0.469  16.008  1.3045  1.0506 -2.7135
 7448TIP3    H243836   2.150   0.328  16.059 -2.2724  0.8374 -1.3993
 7449TIP3   OH243837   4.686   3.387  13.300  0.1451 -0.3644  0.6865
 7449TIP3    H143838   4.690   3.478  13.273  2.6764 -0.3432  0.9030
 7449TIP3    H243839   4.691   3.390  13.396  1.0076 -0.7306  0.6612
 7450TIP3   OH243840   4.070   6.714   0.528 -0.0882 -0.2727  0.4025
 7450TIP3    H143841   3.978   6.730   0.505 -0.2615  0.0725  1.2927
 7450TIP3    H243842   4.079   6.619   0.524 -0.5050 -0.3140  0.3628
 7451TIP3   OH243843   5.733   2.957  15.827  0.2502 -1.1134  0.1771
 7451TIP3    H143844   5.698   2.936  15.741  1.6791  2.5648 -1.4871
 7451TIP3    H243845   5.814   2.906  15.833  0.7484 -0.5271 -1.2101
 7452TIP3   OH243846   3.173   6.214   1.204 -0.3091 -0.1908  0.2033
 7452TIP3    H143847   3.099   6.237   1.148  0.1475  0.5730 -0.1025
 7452TIP3    H243848   3.152   6.127   1.237 -0.4201 -0.8146 -1.4228
 7453TIP3   OH243849   5.331   3.383  12.766  0.5387  0.4958 -0.7624
 7453TIP3    H143850   5.251   3.331  12.752  0.0677  1.0764 -0.2837
 7453TIP3    H243851   5.299   3.472  12.783  1.0308  0.1575  2.7712
 7454TIP3   OH243852   4.571   1.687   2.702  0.2817 -0.3045 -0.3026
 7454TIP3    H143853   4.503   1.621   2.692  0.7728 -0.7753 -0.5889
 7454TIP3    H243854   4.594   1.685   2.794 -0.1504 -0.0822 -0.1880
 7455TIP3   OH243855   1.841   6.784  12.227  0.6224  0.3440 -0.6233
 7455TIP3    H143856   1.835   6.694  12.194  0.7764  0.1198 -0.0530
 7455TIP3    H243857   1.867   6.836  12.151 -2.6781  0.4682 -1.8367
 7456TIP3   OH243858   1.804   2.034   5.482  0.1748 -0.6000  0.8754
 7456TIP3    H143859   1.735   1.972   5.504  0.3862 -0.9784  0.5032
 7456TIP3    H243860   1.885   1.991   5.510  0.2657 -0.1790  1.2697
 7457TIP3   OH243861   4.811   0.819   0.158  0.2839  0.0520  0.3285
 7457TIP3    H143862   4.906   0.834   0.156  0.4140 -0.4678  1.5753
 7457TIP3    H243863   4.775   0.900   0.193  0.2627  0.2723 -0.2037
 7458TIP3   OH243864   4.357   1.936   0.109  0.3835  0.6544 -0.2377
 7458TIP3    H143865   4.443   1.896   0.099 -0.8462 -1.8028 -1.7477
 7458TIP3    H243866   4.339   1.977   0.025 -0.7121 -0.5907 -0.6411
 7459TIP3   OH243867   4.521   2.978  13.159  0.3130  0.4652  0.1891
 7459TIP3    H143868   4.556   2.898  13.120  1.1469  1.0021 -0.2119
 7459TIP3    H243869   4.592   3.010  13.215 -0.5532  0.1607  1.5088
 7460TIP3   OH243870   0.952   5.290   1.501  0.4959  0.1134  0.2099
 7460TIP3    H143871   0.948   5.211   1.556  2.0580 -0.0840  0.0866
 7460TIP3    H243872   1.024   5.273   1.440 -0.4025  0.8521 -1.0968
 7461TIP3   OH243873   0.073   2.752  16.728 -0.0549  0.3034 -0.3064
 7461TIP3    H143874   0.093   2.729  16.638  1.9442  0.7022 -0.0136
 7461TIP3    H243875   0.104   2.843  16.737  1.7961 -0.3969  1.2908
 7462TIP3   OH243876   4.323   0.258  12.232  0.4670  0.5332 -0.2024
 7462TIP3    H143877   4.334   0.213  12.315 -0.6773  0.7451  0.0750
 7462TIP3    H243878   4.288   0.192  12.173  1.6453  0.2787 -0.6387
 7463TIP3   OH243879   3.956   5.638  16.546  0.0112 -0.1465  0.2302
 7463TIP3    H143880   3.883   5.698  16.562  0.8143  0.7761  0.5170
 7463TIP3    H243881   4.029   5.675  16.596  0.8363 -0.7269 -0.5177
 7464TIP3   OH243882   6.610   5.454  14.119  0.1013  0.1729 -0.4704
 7464TIP3    H143883   6.562   5.507  14.183 -0.5583 -0.5490 -0.3544
 7464TIP3    H243884   6.547   5.438  14.049  0.3837 -0.2222 -0.6354
 7465TIP3   OH243885   3.726   5.419   0.386 -0.3819  0.6692  0.4218
 7465TIP3    H143886   3.782   5.418   0.464 -0.8699 -2.3257  0.8457
 7465TIP3    H243887   3.651   5.364   0.409 -1.6696  1.5245 -1.4248
 7466TIP3   OH243888   1.263   5.695  12.072 -0.0492  0.4449  0.5354
 7466TIP3    H143889   1.237   5.767  12.129  1.7673  1.7864 -0.2142
 7466TIP3    H243890   1.354   5.715  12.049  0.1901 -1.5838 -0.4969
 7467TIP3   OH243891   6.411   5.932  13.729 -0.7502  0.4707  0.2414
 7467TIP3    H143892   6.465   5.997  13.773 -0.6916  0.1068  0.7075
 7467TIP3    H243893   6.472   5.885  13.672 -0.7345  0.6184  0.1361
 7468TIP3   OH243894   4.360   2.455   4.384  0.1747  0.4218 -0.1541
 7468TIP3    H143895   4.297   2.428   4.451  0.9495  2.4070  1.4718
 7468TIP3    H243896   4.369   2.378   4.327 -2.0897 -0.6276  0.7742
 7469TIP3   OH243897   1.874   2.494   2.255  0.0546  0.3051  0.4628
 7469TIP3    H143898   1.832   2.409   2.267 -1.8299  1.3222  1.5922
 7469TIP3    H243899   1.941   2.479   2.188 -2.5397 -1.3067 -2.0020
 7470TIP3   OH243900   1.102   5.063  13.546  0.4981 -0.2008  0.1308
 7470TIP3    H143901   1.080   4.988  13.491  0.0718  0.4259 -0.5720
 7470TIP3    H243902   1.154   5.026  13.617  0.3047 -1.1585 -0.2093
 7471TIP3   OH243903   5.776   5.044   3.218  0.2639  0.4342 -0.4687
 7471TIP3    H143904   5.763   4.973   3.155  3.0959 -0.1801 -0.5311
 7471TIP3    H243905   5.755   5.124   3.170 -0.5056 -0.1921 -1.2124
 7472TIP3   OH243906   0.707   6.250   3.992  0.7372  0.5740 -0.1261
 7472TIP3    H143907   0.673   6.317   3.933  0.6471  0.1501 -0.5601
 7472TIP3    H243908   0.796   6.279   4.013  0.4933  1.1325  0.1611
 7473TIP3   OH243909   4.264   3.229  16.740 -0.1618  0.0318  0.0694
 7473TIP3    H143910   4.266   3.315  16.782 -2.3178  1.0680 -1.6988
 7473TIP3    H243911   4.197   3.181  16.789 -1.2103  0.5212 -0.8352
 7474TIP3   OH243912   4.318   2.789   1.788  0.1917  0.0173 -0.4381
 7474TIP3    H143913   4.271   2.872   1.791 -1.3501 -0.8324  0.4279
 7474TIP3    H243914   4.409   2.813   1.773 -0.0402  1.9366  0.8490
 7475TIP3   OH243915   5.991   4.179  14.580  0.0818  0.0760  0.5203
 7475TIP3    H143916   6.084   4.179  14.556 -0.6079  1.2578 -2.7108
 7475TIP3    H243917   5.976   4.264  14.619  0.4339 -0.3331  1.5789
 7476TIP3   OH243918   5.540   1.272   5.424  0.2770  0.1518  1.0072
 7476TIP3    H143919   5.609   1.326   5.386  1.2791  0.0736  2.5995
 7476TIP3    H243920   5.510   1.217   5.352  1.5401  0.5258  0.1560
 7477TIP3   OH243921   3.186   4.487  13.623  0.0156  0.1175  0.0620
 7477TIP3    H143922   3.092   4.496  13.637  0.0740 -0.2821  0.7667
 7477TIP3    H243923   3.196   4.480  13.528 -0.9368 -2.3925  0.0494
 7478TIP3   OH243924   0.025   0.657   5.432  0.0601  0.4752  0.1763
 7478TIP3    H143925  -0.061   0.617   5.415 -0.2924  1.5000 -0.5689
 7478TIP3    H243926   0.079   0.629   5.358 -0.2257  1.4525 -0.4180
 7479TIP3   OH243927   4.592   0.985  13.445  0.4450 -0.2204 -0.1405
 7479TIP3    H143928   4.510   1.015  13.485 -0.2842 -0.2307 -1.5718
 7479TIP3    H243929   4.629   1.064  13.405  1.0863 -0.2476  0.3649
 7480TIP3   OH243930   2.271   6.076   5.001  0.1595 -0.7638 -0.0805
 7480TIP3    H143931   2.360   6.108   5.016 -0.8100  1.9625  0.4452
 7480TIP3    H243932   2.254   6.096   4.909 -1.2637  2.7607  0.7990
 7481TIP3   OH243933   5.200   0.381  12.027 -0.2369 -0.4091  1.1026
 7481TIP3    H143934   5.155   0.409  11.948  1.1177 -0.9881  0.0979
 7481TIP3    H243935   5.183   0.452  12.090 -0.2025  0.7436 -0.1290
 7482TIP3   OH243936   3.019   1.260  16.678  0.3970 -0.1823 -0.9268
 7482TIP3    H143937   3.064   1.190  16.633  0.8465  0.0646 -0.8658
 7482TIP3    H243938   3.015   1.332  16.615  2.3143  0.6836 -0.1309
 7483TIP3   OH243939   6.134   5.954  12.399 -0.1276  0.1118 -0.0490
 7483TIP3    H143940   6.078   5.927  12.327  1.9177  0.7822 -1.9969
 7483TIP3    H243941   6.129   6.050  12.400  1.8825  0.2903 -1.1330
 7484TIP3   OH243942   3.832   1.017   4.937  0.2914 -0.4330  0.3024
 7484TIP3    H143943   3.766   0.947   4.941  0.5507 -0.8946 -2.0091
 7484TIP3    H243944   3.782   1.096   4.919 -0.0234  0.1077  3.1128
 7485TIP3   OH243945   2.062   6.633  14.851 -0.2290  0.0997 -0.6516
 7485TIP3    H143946   2.031   6.544  14.834 -2.1929  0.9445 -1.8477
 7485TIP3    H243947   1.983   6.687  14.847  0.9694  1.9632 -0.3681
 7486TIP3   OH243948   2.020   1.393   3.062  0.0977  0.2307  0.2173
 7486TIP3    H143949   2.006   1.313   3.113  0.2807 -0.0667 -0.1989
 7486TIP3    H243950   2.060   1.453   3.124 -0.1366  0.0398  0.5628
 7487TIP3   OH243951   3.503   0.195   1.520 -0.0150  0.0790 -0.2266
 7487TIP3    H143952   3.465   0.258   1.459 -1.0800 -0.1314  0.1999
 7487TIP3    H243953   3.515   0.244   1.601 -2.5650 -0.6823  0.6797
 7488TIP3   OH243954   1.547   3.882   3.299  0.2070 -0.0377 -0.4677
 7488TIP3    H143955   1.554   3.861   3.205  3.4514  2.8846 -1.0683
 7488TIP3    H243956   1.619   3.834   3.340  0.6450  1.0015  0.0002
 7489TIP3   OH243957   6.492   3.922   4.638  0.1334 -0.2872  0.0839
 7489TIP3    H143958   6.510   4.016   4.632  1.0222 -0.3048  1.7812
 7489TIP3    H243959   6.578   3.881   4.625  0.5470 -0.6260  3.0580
 7490TIP3   OH243960   5.923   1.417   3.484  0.1705 -0.5146 -0.5288
 7490TIP3    H143961   5.856   1.372   3.432 -0.9038  0.1639  0.2259
 7490TIP3    H243962   5.921   1.372   3.569 -0.6281  0.6713  0.0980
 7491TIP3   OH243963   1.527   6.702   5.198 -0.5367  0.2395  0.1289
 7491TIP3    H143964   1.619   6.718   5.222 -0.1197  1.0612 -1.7936
 7491TIP3    H243965   1.477   6.759   5.256  0.1842  0.0623  0.9512
 7492TIP3   OH243966   5.220   6.665  17.168 -0.3492 -0.5205  0.4188
 7492TIP3    H143967   5.293   6.699  17.117 -0.4078 -0.4927  0.3544
 7492TIP3    H243968   5.143   6.677  17.112 -0.3583 -0.8273  0.3648
 7493TIP3   OH243969   5.964   0.104   2.724 -0.2338 -0.4121  0.0729
 7493TIP3    H143970   5.959   0.122   2.630  2.6248  0.8595  0.0549
 7493TIP3    H243971   5.926   0.182   2.764  0.6377  0.0946 -0.0567
 7494TIP3   OH243972   3.542   3.644  14.779 -0.0686 -0.0439 -0.8777
 7494TIP3    H143973   3.503   3.575  14.726  0.6399 -0.1299 -1.3035
 7494TIP3    H243974   3.471   3.707  14.793 -1.6426 -2.1887  2.0097
 7495TIP3   OH243975   0.295   4.511   0.255  0.3590 -0.2911  0.5553
 7495TIP3    H143976   0.252   4.452   0.193  0.4702  0.2561 -0.0583
 7495TIP3    H243977   0.287   4.468   0.340  1.5552 -1.8216 -0.0474
 7496TIP3   OH243978   0.825   4.484   1.463 -0.3186 -0.5717 -0.6288
 7496TIP3    H143979   0.899   4.518   1.512 -1.2952  0.1767  0.3876
 7496TIP3    H243980   0.784   4.421   1.521 -1.9100  0.8514 -0.1234
 7497TIP3   OH243981   2.593   1.754  12.863  0.1973 -0.1089  0.1751
 7497TIP3    H143982   2.664   1.818  12.862 -0.0354  0.1658  0.7907
 7497TIP3    H243983   2.604   1.705  12.782 -0.1040  1.2275 -0.6983
 7498TIP3   OH243984   2.915   5.729  12.834  0.3260  0.8373 -0.1170
 7498TIP3    H143985   3.008   5.733  12.812  0.5376  1.7765  0.8647
 7498TIP3    H243986   2.901   5.802  12.894 -0.5461 -0.6160  1.5734
 7499TIP3   OH243987   2.687   0.203   0.978  0.0124 -0.4032  0.1188
 7499TIP3    H143988   2.765   0.227   1.029 -0.2184 -0.9601  0.7437
 7499TIP3    H243989   2.664   0.116   1.010 -1.6259  0.2707  0.8484
 7500TIP3   OH243990   1.974   5.312   4.345  0.4897 -0.0219  0.0539
 7500TIP3    H143991   2.051   5.335   4.293  1.1255 -1.3160  0.4017
 7500TIP3    H243992   2.009   5.263   4.420 -0.5409  0.6115  0.9869
 7501TIP3   OH243993   5.932   1.447  12.336 -0.2058  0.2334 -0.4685
 7501TIP3    H143994   5.909   1.536  12.308 -1.6048 -0.5083 -1.7909
 7501TIP3    H243995   5.849   1.408  12.365  0.9067  0.5640  4.0043
 7502TIP3   OH243996   2.140   2.203  11.681  0.2255  0.6078  0.7864
 7502TIP3    H143997   2.175   2.292  11.679  0.0155  0.6741 -0.3550
 7502TIP3    H243998   2.215   2.147  11.660  0.1724  0.5661  0.7106
 7503TIP3   OH243999   3.184   6.357   4.807 -0.2193  0.0218  0.3097
 7503TIP3    H144000   3.167   6.404   4.889  0.7610  0.8662  0.0560
 7503TIP3    H244001   3.218   6.272   4.835 -0.8962 -0.1056  0.7758
 7504TIP3   OH244002   6.681   0.581  12.745  1.0681  0.1542  0.1183
 7504TIP3    H144003   6.604   0.527  12.764  0.1704  1.7510  1.2196
 7504TIP3    H244004   6.753   0.519  12.743 -0.0288 -1.1908  0.5876
 7505TIP3   OH244005   1.639   1.755   1.786  0.2864 -0.3903  0.2655
 7505TIP3    H144006   1.585   1.790   1.715 -0.3106 -2.8762 -0.6287
 7505TIP3    H244007   1.698   1.694   1.743 -0.5337 -2.4787  1.9179
 7506TIP3   OH244008   4.911   0.065   0.345 -0.1523  0.1513 -0.2065
 7506TIP3    H144009   4.962   0.010   0.287 -0.9362  0.8651 -1.6137
 7506TIP3    H244010   4.938   0.155   0.324  0.0872  0.3964  1.0556
 7507TIP3   OH244011   6.187   1.759   4.650  0.3513 -0.5350 -0.9022
 7507TIP3    H144012   6.133   1.809   4.589 -0.8918 -0.5890  0.1041
 7507TIP3    H244013   6.134   1.753   4.729  2.5162  0.8809  0.7674
 7508TIP3   OH244014   3.052   2.604   3.495  0.5823 -0.0160 -0.1102
 7508TIP3    H144015   3.008   2.682   3.460  0.9552  0.4596  0.4532
 7508TIP3    H244016   2.982   2.549   3.529  0.2233 -0.3972 -1.4009
 7509TIP3   OH244017   6.379   1.937  15.721 -0.1312  0.2484 -0.0995
 7509TIP3    H144018   6.383   1.860  15.777 -2.0580  1.2389  1.5296
 7509TIP3    H244019   6.430   2.004  15.767 -1.3059  0.9211  0.2773
 7510TIP3   OH244020   3.481   6.304   0.050 -0.1676  0.3691 -0.4045
 7510TIP3    H144021   3.421   6.230   0.045  0.4389 -0.0955 -0.9607
 7510TIP3    H244022   3.557   6.277   0.000  0.7887  0.6950  0.8383
 7511TIP3   OH244023   3.101   5.007   6.587  0.7367 -0.1858  0.2226
 7511TIP3    H144024   3.027   4.948   6.601  0.6618 -0.7942 -2.2726
 7511TIP3    H244025   3.152   5.001   6.667 -1.4161 -0.4640  1.6426
 7512TIP3   OH244026   3.406   4.549  13.755  0.0951 -0.5606 -0.5602
 7512TIP3    H144027   3.325   4.521  13.711 -1.4173  1.0714  1.0098
 7512TIP3    H244028   3.457   4.592  13.687 -1.1804 -0.0221 -1.2020
 7513TIP3   OH244029   5.598   2.628   5.698  0.3248  0.4511  0.2654
 7513TIP3    H144030   5.603   2.588   5.785 -1.0554 -1.2222 -0.3668
 7513TIP3    H244031   5.505   2.648   5.685  0.7075  2.0413 -0.2728
 7514TIP3   OH244032   0.077   0.514   4.098 -0.4450  0.3430 -0.0085
 7514TIP3    H144033   0.158   0.516   4.150  0.4218  1.0809 -1.3335
 7514TIP3    H244034   0.007   0.523   4.163  0.3922 -1.9502  1.3660
 7515TIP3   OH244035   3.118   4.656  16.472  0.2870 -0.0939 -0.0884
 7515TIP3    H144036   3.095   4.734  16.422  2.2179  0.2075 -0.5831
 7515TIP3    H244037   3.187   4.685  16.532 -1.3951 -0.6421  2.2306
 7516TIP3   OH244038   3.916   4.229  14.539 -0.1733 -0.2690 -0.5271
 7516TIP3    H144039   3.944   4.202  14.451  0.1537  1.3371 -0.9530
 7516TIP3    H244040   3.904   4.324  14.532 -0.7247 -0.1972  1.0190
 7517TIP3   OH244041   4.619   2.078  10.573  0.2718 -0.5082  0.0158
 7517TIP3    H144042   4.581   1.998  10.610  2.5436 -1.4143  0.5676
 7517TIP3    H244043   4.609   2.068  10.479 -1.6054 -0.2824  0.1606
 7518TIP3   OH244044   1.956   6.321   1.624  0.2764  0.2816 -0.0705
 7518TIP3    H144045   1.896   6.335   1.698  1.5914  0.2112  1.0521
 7518TIP3    H244046   1.899   6.296   1.551 -1.2249  1.9333  0.4693
 7519TIP3   OH244047   6.058   5.296   5.918  0.4296 -0.2478 -0.2039
 7519TIP3    H144048   6.088   5.207   5.938  1.7551  0.3867  0.7932
 7519TIP3    H244049   6.015   5.325   5.999 -0.0587  0.0077 -0.5488
 7520TIP3   OH244050   3.919   5.098  11.578  0.4589  0.3066 -0.1599
 7520TIP3    H144051   3.997   5.053  11.545  0.3389  1.3656 -2.0200
 7520TIP3    H244052   3.861   5.027  11.606 -0.1185 -0.8867 -3.8656
 7521TIP3   OH244053   4.340   0.476  10.890  0.5251  0.2250  0.0804
 7521TIP3    H144054   4.357   0.391  10.848 -0.9700 -0.4529  0.7650
 7521TIP3    H244055   4.244   0.479  10.900  0.5274  2.0773 -0.0749
 7522TIP3   OH244056   6.086   5.793  12.832  0.1127 -0.3310  0.3531
 7522TIP3    H144057   5.999   5.782  12.793  0.4610 -1.6908 -0.0683
 7522TIP3    H244058   6.140   5.826  12.761  0.3867 -1.3486  0.0756
 7523TIP3   OH244059   3.258   5.436  12.365  0.0044  0.2962  0.0612
 7523TIP3    H144060   3.320   5.509  12.367  0.1603  0.1535  0.5462
 7523TIP3    H244061   3.258   5.402  12.454 -1.1976  0.6459  0.2122
 7524TIP3   OH244062   6.359   1.680   5.185  0.0194 -0.6173  0.1627
 7524TIP3    H144063   6.355   1.758   5.130  0.0128 -0.3322  0.5681
 7524TIP3    H244064   6.435   1.693   5.241  0.9168 -1.5853 -0.7819
 7525TIP3   OH244065   3.106   1.465   3.295  0.0135 -0.4143  0.6287
 7525TIP3    H144066   3.156   1.513   3.361 -1.3310 -2.5912  3.4172
 7525TIP3    H244067   3.029   1.433   3.341 -1.8372 -0.7633 -2.4507
 7526TIP3   OH244068   3.463   0.837  13.701 -0.1687  0.4718 -0.8371
 7526TIP3    H144069   3.460   0.784  13.781  2.4861 -2.9356 -2.7385
 7526TIP3    H244070   3.544   0.887  13.709  1.1046 -1.2920 -2.0721
 7527TIP3   OH244071   1.410   3.808  11.471  0.3333 -0.1800  0.5239
 7527TIP3    H144072   1.489   3.862  11.470  0.3563 -0.1994  0.9449
 7527TIP3    H244073   1.338   3.870  11.464  0.3845 -0.1588  0.1832
 7528TIP3   OH244074   0.033   2.124  13.229  0.0346 -0.8473 -0.4557
 7528TIP3    H144075  -0.016   2.095  13.307  2.1912 -0.6260  1.0837
 7528TIP3    H244076   0.019   2.054  13.165 -2.4257 -0.6673 -0.2053
 7529TIP3   OH244077   4.331   0.948  12.040  0.5482 -0.2602 -0.2608
 7529TIP3    H144078   4.369   0.872  12.084  0.8998 -0.8234 -1.4911
 7529TIP3    H244079   4.294   1.001  12.110  2.5966 -0.2547  0.8831
 7530TIP3   OH244080   5.284   5.155  15.533  0.1157  0.0681  0.2987
 7530TIP3    H144081   5.254   5.225  15.476  0.5227  0.5432  0.6654
 7530TIP3    H244082   5.369   5.130  15.497  0.9844  1.2479  1.4288
 7531TIP3   OH244083   5.161   0.803  12.028 -0.4982 -0.2799 -0.6704
 7531TIP3    H144084   5.244   0.809  12.075 -0.0717 -3.1502 -0.8998
 7531TIP3    H244085   5.183   0.823  11.937  0.0247 -1.2245 -0.7660
 7532TIP3   OH244086   5.715   5.293   3.128  0.2438 -0.0671 -0.0542
 7532TIP3    H144087   5.639   5.352   3.129  0.8285  0.7452  2.2602
 7532TIP3    H244088   5.736   5.283   3.035 -1.4501  1.3004 -0.6444
 7533TIP3   OH244089   3.194   2.923  14.729 -0.5209 -0.1624 -0.2448
 7533TIP3    H144090   3.192   2.877  14.813 -0.7965 -1.3383 -0.8625
 7533TIP3    H244091   3.279   2.903  14.692 -0.6648 -0.2251 -0.5477
 7534TIP3   OH244092   1.859   0.349  13.969 -0.2457  0.0766  0.5984
 7534TIP3    H144093   1.853   0.386  14.057  0.7691  2.1871 -0.1452
 7534TIP3    H244094   1.768   0.340  13.941 -0.5775  1.5258  1.0734
 7535TIP3   OH244095   6.170   2.049   2.087  0.1252 -0.5865  0.1026
 7535TIP3    H144096   6.257   2.050   2.046  0.0763  1.5599 -0.0276
 7535TIP3    H244097   6.112   2.087   2.022 -0.5205 -0.0087  1.0031
 7536TIP3   OH244098   5.750   5.127  13.633 -0.3923 -0.2295  0.4414
 7536TIP3    H144099   5.707   5.042  13.631  2.3455 -1.7665  1.9791
 7536TIP3    H244100   5.771   5.145  13.541 -2.0656 -0.5677 -0.0415
 7537TIP3   OH244101   3.743   6.680  15.071  0.0885  0.4168  0.0780
 7537TIP3    H144102   3.816   6.684  15.010 -1.1755 -0.6555 -1.6186
 7537TIP3    H244103   3.746   6.763  15.118  1.8890  0.7264 -0.5284
 7538TIP3   OH244104   6.390   0.212  13.023  0.4578  0.1488 -0.0644
 7538TIP3    H144105   6.390   0.149  13.094  1.1377 -0.7679 -0.8577
 7538TIP3    H244106   6.425   0.293  13.062  0.9563 -0.3787  0.5983
 7539TIP3   OH244107   1.066   4.895   2.906  0.2767  0.0066  0.0652
 7539TIP3    H144108   1.007   4.822   2.891 -2.2434  1.7100  0.9407
 7539TIP3    H244109   1.035   4.934   2.988  1.8307  1.7440 -0.1080
 7540TIP3   OH244110   2.476   4.656   2.250 -0.2708  0.2091 -0.0576
 7540TIP3    H144111   2.477   4.643   2.155 -0.4356  1.1209 -0.1907
 7540TIP3    H244112   2.395   4.704   2.267 -0.3691 -0.1654  0.5799
 7541TIP3   OH244113   5.952   5.059   6.156 -0.3840  0.5403  0.2433
 7541TIP3    H144114   5.930   5.107   6.236 -0.6728 -1.0683  1.1712
 7541TIP3    H244115   5.870   5.058   6.106 -0.1553  1.7074 -0.1797
 7542TIP3   OH244116   2.384   5.257  15.099  0.3693 -0.0528  0.2483
 7542TIP3    H144117   2.318   5.266  15.030 -0.6935  0.9948  1.3502
 7542TIP3    H244118   2.423   5.344  15.106  0.9137 -0.3172  0.5534
 7543TIP3   OH244119   4.257   6.249  11.245  0.6190  0.9738 -0.2897
 7543TIP3    H144120   4.259   6.200  11.163  0.0879  0.7027 -0.1472
 7543TIP3    H244121   4.194   6.202  11.299  0.1029  1.8127 -0.1439
 7544TIP3   OH244122   1.472   4.432   1.192 -0.1422  0.4701 -0.0121
 7544TIP3    H144123   1.445   4.524   1.181  2.3953  1.4613  1.2795
 7544TIP3    H244124   1.515   4.410   1.109 -0.7742  0.4246 -0.3340
 7545TIP3   OH244125   4.090   1.767   0.262 -0.6838 -0.0306  0.2182
 7545TIP3    H144126   4.177   1.766   0.224 -1.1676  0.5812 -0.9678
 7545TIP3    H244127   4.043   1.836   0.214 -1.3083  0.8586  2.0115
 7546TIP3   OH244128   0.889   2.782  15.098 -0.1267  0.2113 -0.1624
 7546TIP3    H144129   0.911   2.689  15.090  1.2324  0.6613 -3.0301
 7546TIP3    H244130   0.799   2.782  15.129  0.5035 -1.9631  2.0693
 7547TIP3   OH244131   0.615   0.703   3.816  0.2488 -0.1235 -0.0660
 7547TIP3    H144132   0.679   0.700   3.746 -0.8177 -0.8655 -1.0430
 7547TIP3    H244133   0.621   0.618   3.860  0.1551 -0.0769  0.0405
 7548TIP3   OH244134   5.546   2.016   6.291  0.3638  0.0826  0.7413
 7548TIP3    H144135   5.637   1.987   6.289  0.2442 -0.2675 -0.5453
 7548TIP3    H244136   5.513   1.987   6.376  0.8692 -1.6351  0.3891
 7549TIP3   OH244137   0.042   0.091  15.953 -0.1032  0.0488  0.0054
 7549TIP3    H144138  -0.034   0.098  15.895 -0.5071 -2.7373  0.0867
 7549TIP3    H244139   0.117   0.113  15.896 -0.7857  1.2096 -0.4886
 7550TIP3   OH244140   2.743   4.358  12.339 -0.2622  0.1425  0.0920
 7550TIP3    H144141   2.815   4.420  12.327 -0.0882 -0.0095  0.3595
 7550TIP3    H244142   2.741   4.340  12.433  0.9658 -1.7826 -0.1914
 7551TIP3   OH244143   5.954   1.199  13.885 -0.0377  0.4786 -0.1790
 7551TIP3    H144144   5.941   1.175  13.977  0.6895 -1.2876 -0.4803
 7551TIP3    H244145   6.042   1.236  13.882  0.7591 -1.3271 -0.4309
 7552TIP3   OH244146   1.911   4.938  15.223 -0.4939 -0.1868  0.3904
 7552TIP3    H144147   1.877   5.014  15.270 -0.6466  0.7596 -1.1558
 7552TIP3    H244148   1.984   4.907  15.277 -1.6628 -0.1809  2.0368
 7553TIP3   OH244149   6.052   2.678  14.444 -0.3739 -0.3086  0.3753
 7553TIP3    H144150   6.128   2.678  14.502  1.0470  0.1905 -1.4169
 7553TIP3    H244151   6.069   2.749  14.382 -1.3078 -1.5106 -1.3240
 7554TIP3   OH244152   6.269   1.566  13.798 -0.4538 -0.4697 -0.5121
 7554TIP3    H144153   6.177   1.588  13.780 -0.2571  0.3467 -0.5699
 7554TIP3    H244154   6.308   1.649  13.824 -0.3443 -1.2979  2.1989
 7555TIP3   OH244155   1.033   4.093  10.809 -0.3054 -0.6769 -0.5822
 7555TIP3    H144156   1.099   4.031  10.777  0.5071 -0.0610 -0.1240
 7555TIP3    H244157   0.988   4.122  10.730 -0.0667 -1.1454 -0.8982
 7556TIP3   OH244158   5.399   0.846  14.448  0.0813 -0.5385  0.2149
 7556TIP3    H144159   5.436   0.864  14.362 -0.0894  1.5930  0.5448
 7556TIP3    H244160   5.445   0.906  14.507  0.0014 -1.7622  1.5974
 7557TIP3   OH244161   1.226   6.709  12.627  0.1250 -0.3295 -0.3084
 7557TIP3    H144162   1.145   6.746  12.593  1.3977  2.1644 -0.8744
 7557TIP3    H244163   1.275   6.681  12.550  0.3634 -0.6328 -0.0569
 7558TIP3   OH244164   4.236   2.681   2.147  0.4344  0.2923 -0.0385
 7558TIP3    H144165   4.176   2.633   2.091  0.8875 -0.7264  0.3306
 7558TIP3    H244166   4.323   2.662   2.113  0.8542 -1.5915  1.8591
 7559TIP3   OH244167   2.795   0.351   5.539  0.1442  0.2789 -0.0431
 7559TIP3    H144168   2.827   0.441   5.547  1.0957  0.2049 -2.2514
 7559TIP3    H244169   2.857   0.299   5.590  0.7196  0.6868 -0.3068
 7560TIP3   OH244170   1.284   5.002  16.845 -0.3242  0.0807  0.0708
 7560TIP3    H144171   1.237   5.068  16.896  1.3871  1.0253  0.4905
 7560TIP3    H244172   1.349   5.052  16.795  0.6185 -1.2234 -0.0581
 7561TIP3   OH244173   4.225   1.405  14.570  0.2641 -0.7222 -0.4121
 7561TIP3    H144174   4.300   1.351  14.594 -1.2709 -2.5400  0.5274
 7561TIP3    H244175   4.185   1.359  14.496  0.2601  0.4433 -1.1693
 7562TIP3   OH244176   5.869   3.628  13.721  0.2810  0.7146 -0.1941
 7562TIP3    H144177   5.909   3.553  13.677 -2.8162 -0.3229 -1.5082
 7562TIP3    H244178   5.784   3.638  13.679 -1.4616  1.8959  3.2305
 7563TIP3   OH244179   5.389   5.589  13.538  0.2588  0.0073 -0.3919
 7563TIP3    H144180   5.429   5.507  13.510  0.7723  0.3332 -0.6179
 7563TIP3    H244181   5.457   5.655  13.524 -0.6457  0.7146 -1.6318
 7564TIP3   OH244182   0.984   5.544   2.694 -0.2882  0.1897 -0.0438
 7564TIP3    H144183   0.968   5.491   2.615  0.2431 -0.9479  0.5973
 7564TIP3    H244184   0.911   5.607   2.695 -0.9801 -0.5710 -0.7819
 7565TIP3   OH244185   6.797   3.817  14.824 -0.0324 -0.1653 -0.6052
 7565TIP3    H144186   6.797   3.870  14.744  0.5746  0.3019 -0.3056
 7565TIP3    H244187   6.868   3.853  14.877  0.1677 -1.0608 -0.2391
 7566TIP3   OH244188   1.723   6.403  15.281 -0.1268  0.4461  0.5031
 7566TIP3    H144189   1.807   6.359  15.275 -0.3060  0.0009  1.0812
 7566TIP3    H244190   1.716   6.429  15.373 -1.0107 -0.3437  0.6843
 7567TIP3   OH244191   0.014   0.268   2.896  0.5076 -0.1240  0.1928
 7567TIP3    H144192  -0.057   0.210   2.868  0.9413 -0.5880  0.0450
 7567TIP3    H244193  -0.030   0.348   2.925 -0.0776 -0.4265  0.1429
 7568TIP3   OH244194   2.511   3.484  16.526 -0.2119  0.1336 -0.1702
 7568TIP3    H144195   2.510   3.543  16.450 -1.6400 -1.6369 -1.6018
 7568TIP3    H244196   2.584   3.425  16.509 -0.5234 -0.2535 -0.1645
 7569TIP3   OH244197   5.091   5.816   5.314  0.6649  0.1937  0.0194
 7569TIP3    H144198   5.156   5.759   5.354 -1.1797 -1.3406  1.0359
 7569TIP3    H244199   5.119   5.825   5.223  1.8897 -1.0089  0.2405
 7570TIP3   OH244200   0.025   4.171   1.410  0.3193 -0.2352  0.0509
 7570TIP3    H144201   0.069   4.251   1.383  0.4449  0.6025  2.5083
 7570TIP3    H244202   0.088   4.101   1.393  0.3946  0.2128 -1.6450
 7571TIP3   OH244203   5.762   2.212  10.809  0.5675 -0.1769  0.8187
 7571TIP3    H144204   5.789   2.170  10.727  1.5852  1.0273  0.5000
 7571TIP3    H244205   5.735   2.300  10.783 -0.2224 -0.1652  1.6376
 7572TIP3   OH244206   0.539   6.384  16.819  0.4865  0.1738  0.0989
 7572TIP3    H144207   0.497   6.436  16.751  1.2249  0.4527 -0.1633
 7572TIP3    H244208   0.483   6.308  16.831  0.1762  0.2969 -0.5829
 7573TIP3   OH244209   2.721   5.560  12.044 -0.0225  0.1119 -0.0720
 7573TIP3    H144210   2.788   5.625  12.062 -1.2427  1.0888  1.1120
 7573TIP3    H244211   2.696   5.526  12.130 -2.5531  1.3559 -0.2344
 7574TIP3   OH244212   2.653   5.462  12.297 -0.3588 -0.3539  0.0564
 7574TIP3    H144213   2.663   5.514  12.377  1.6112 -2.7437  1.4944
 7574TIP3    H244214   2.608   5.382  12.325  3.3932 -2.8173 -0.3385
 7575TIP3   OH244215   2.368   3.468  15.050  0.1204  0.5408  0.0555
 7575TIP3    H144216   2.400   3.470  14.959  2.3341 -0.5360  0.7382
 7575TIP3    H244217   2.411   3.543  15.092 -0.8848  1.0256  0.2356
 7576TIP3   OH244218   4.325   1.932   2.336  0.4947  0.0031  0.3990
 7576TIP3    H144219   4.260   1.862   2.343  0.2443  0.2371  0.4337
 7576TIP3    H244220   4.410   1.888   2.347  0.2676 -0.0411  2.2099
 7577TIP3   OH244221   5.732   2.705   4.987 -0.0279 -0.4458 -0.8203
 7577TIP3    H144222   5.698   2.655   5.062  0.1658 -0.0112 -0.4369
 7577TIP3    H244223   5.819   2.734   5.016 -0.1171  0.0645 -1.0578
 7578TIP3   OH244224   3.690   3.184  16.916  0.3695 -0.8841 -0.6072
 7578TIP3    H144225   3.617   3.155  16.862 -0.1984  1.8639 -1.4862
 7578TIP3    H244226   3.652   3.201  17.002  0.3194 -1.0040 -0.6073
 7579TIP3   OH244227   1.745   2.009   4.866  0.5205  0.3866  0.3229
 7579TIP3    H144228   1.835   2.042   4.858  0.8757 -0.2333  1.5344
 7579TIP3    H244229   1.691   2.088   4.866  0.9097  0.7273 -1.7157
 7580TIP3   OH244230   1.478   6.701  16.975 -0.3633 -0.1123  0.1641
 7580TIP3    H144231   1.537   6.628  16.957 -0.9062  0.1018 -3.1225
 7580TIP3    H244232   1.530   6.762  17.027  1.2146 -1.3448  0.1022
 7581TIP3   OH244233   4.949   2.604   2.676  0.7917 -0.2758 -0.1607
 7581TIP3    H144234   4.990   2.553   2.606 -0.5043 -2.1911  0.4002
 7581TIP3    H244235   4.881   2.655   2.632  2.8953  2.0917 -0.9256
 7582TIP3   OH244236   5.174   0.373   0.949  0.5021  0.0380  0.5098
 7582TIP3    H144237   5.099   0.384   0.891 -0.1759 -0.5272  1.2630
 7582TIP3    H244238   5.234   0.316   0.901  0.9642  1.3438 -0.5458
 7583TIP3   OH244239   1.773   2.077  14.393  0.4149 -0.3829  0.3973
 7583TIP3    H144240   1.762   2.153  14.450 -0.7210 -0.2300  0.0078
 7583TIP3    H244241   1.710   2.091  14.321  0.5062 -1.4598  0.0771
 7584TIP3   OH244242   5.779   4.693  13.261  0.2625 -0.4027  1.1105
 7584TIP3    H144243   5.870   4.696  13.231  0.5689 -0.0823  2.0275
 7584TIP3    H244244   5.749   4.605  13.236  0.6707 -0.3452  0.3871
 7585TIP3   OH244245   6.175   3.588   0.491 -0.3176  0.5765  0.0151
 7585TIP3    H144246   6.163   3.565   0.584  0.2578 -2.9599 -0.6329
 7585TIP3    H244247   6.269   3.583   0.477 -0.5672 -1.7120 -1.2725
 7586TIP3   OH244248   4.848   1.725   5.123 -0.4907 -0.0142  0.4754
 7586TIP3    H144249   4.821   1.687   5.039  2.0254  1.4906 -1.1928
 7586TIP3    H244250   4.854   1.819   5.105 -0.3254  0.4046  2.5062
 7587TIP3   OH244251   0.852   3.415   5.739  0.1595 -0.0062  0.1602
 7587TIP3    H144252   0.848   3.335   5.687 -0.9479  0.8391 -1.1121
 7587TIP3    H244253   0.945   3.431   5.752  0.4063 -1.1661 -0.0772
 7588TIP3   OH244254   0.373   0.507  15.831  0.0571 -0.8766  0.2579
 7588TIP3    H144255   0.397   0.598  15.814  2.3290 -1.0967  1.8028
 7588TIP3    H244256   0.304   0.488  15.768  0.4849  1.4901 -1.0391
 7589TIP3   OH244257   0.020   5.247  12.396  0.1547  0.6477 -0.1907
 7589TIP3    H144258   0.038   5.272  12.487  1.1835  0.8906 -0.4561
 7589TIP3    H244259   0.093   5.282  12.346  0.6205 -1.1792 -0.8494
 7590TIP3   OH244260   1.668   2.351   6.212  0.1681 -0.4082  0.3470
 7590TIP3    H144261   1.667   2.256   6.205 -0.7324 -0.4449  0.9311
 7590TIP3    H244262   1.720   2.368   6.290  2.2615 -0.3083 -0.9624
 7591TIP3   OH244263   5.524   2.913  11.104  0.1527  0.3419  0.3348
 7591TIP3    H144264   5.442   2.871  11.130  1.4625 -3.6836 -1.2580
 7591TIP3    H244265   5.498   2.975  11.036 -1.5979 -1.2150 -0.5065
 7592TIP3   OH244266   2.923   1.840  14.226  0.1401 -0.1538  0.0160
 7592TIP3    H144267   2.939   1.848  14.320  1.2803 -1.6629 -0.0179
 7592TIP3    H244268   2.885   1.753  14.215  2.3755 -1.0833 -1.1365
 7593TIP3   OH244269   4.390   5.890  15.048  0.1665  0.0439 -0.0048
 7593TIP3    H144270   4.324   5.825  15.069  0.1894 -0.3992 -1.2048
 7593TIP3    H244271   4.392   5.949  15.123  0.2828 -1.4387  1.1914
 7594TIP3   OH244272   3.318   3.337   4.589  0.3502 -0.7457 -0.5209
 7594TIP3    H144273   3.324   3.290   4.506  0.0987 -1.3732 -0.1835
 7594TIP3    H244274   3.405   3.376   4.601  0.0289  0.4096 -1.6937
 7595TIP3   OH244275   0.091   1.996  14.135  0.0640 -0.0740  0.0553
 7595TIP3    H144276   0.016   2.054  14.147 -0.7675 -1.3114  1.2463
 7595TIP3    H244277   0.081   1.929  14.203  1.6660 -0.9003 -0.4481
 7596TIP3   OH244278   5.102   4.999   0.351 -0.8550  0.6289 -0.5055
 7596TIP3    H144279   5.075   5.024   0.439 -1.2418 -2.1437  0.2438
 7596TIP3    H244280   5.189   5.039   0.340  0.6773 -1.5232  2.4538
 7597TIP3   OH244281   2.206   3.155  15.316  0.0268  0.5008  0.1632
 7597TIP3    H144282   2.208   3.068  15.277  0.1783 -0.1289  1.5222
 7597TIP3    H244283   2.277   3.203  15.273 -0.9234  0.4239 -1.5871
 7598TIP3   OH244284   0.121   6.013   2.094 -0.3265 -0.4790 -0.2991
 7598TIP3    H144285   0.061   6.084   2.073 -0.5331  0.2827  2.3915
 7598TIP3    H244286   0.206   6.056   2.106 -0.7498 -0.2908  2.8532
 7599TIP3   OH244287   3.751   6.490  15.838 -0.0704 -0.0721 -0.3025
 7599TIP3    H144288   3.767   6.526  15.926  0.6027  2.1636 -1.2635
 7599TIP3    H244289   3.741   6.396  15.852  1.2497  0.0521  2.0246
 7600TIP3   OH244290   6.515   3.804   3.642 -0.0318  0.5184  0.2193
 7600TIP3    H144291   6.536   3.844   3.726 -4.9224  1.3819  1.3486
 7600TIP3    H244292   6.519   3.877   3.580  1.1672  0.4020  0.1311
 7601TIP3   OH244293   5.453   3.276   3.771  0.2854  0.1085 -0.1454
 7601TIP3    H144294   5.408   3.248   3.850 -0.0146  1.0334  0.0217
 7601TIP3    H244295   5.384   3.284   3.705  0.3922  0.2573 -0.2412
 7602TIP3   OH244296   0.430   3.554  13.544 -0.0261 -0.2225 -0.0699
 7602TIP3    H144297   0.362   3.545  13.477  0.5726  0.1726 -0.7290
 7602TIP3    H244298   0.407   3.487  13.609 -0.2708 -1.0186 -0.9496
 7603TIP3   OH244299   1.935   4.026   3.496 -0.1827  0.6539  0.2552
 7603TIP3    H144300   1.856   4.075   3.472  1.0162  3.0354  0.8539
 7603TIP3    H244301   2.003   4.093   3.503  1.6963 -1.2074  0.6844
 7604TIP3   OH244302   2.351   5.339   0.008 -0.1832  0.0386  0.3710
 7604TIP3    H144303   2.287   5.321  -0.062  0.7144 -2.2778  0.0685
 7604TIP3    H244304   2.328   5.279   0.078  0.4098  0.6335  1.0871
 7605TIP3   OH244305   2.814   0.542  14.253 -0.0724 -0.1439 -0.4656
 7605TIP3    H144306   2.894   0.503  14.219 -0.5691 -4.3557  2.4383
 7605TIP3    H244307   2.838   0.633  14.271  4.2772 -1.2636  0.6838
 7606TIP3   OH244308   2.788   2.567  12.708 -0.5449  0.0569  0.2119
 7606TIP3    H144309   2.821   2.577  12.619  2.2307 -0.2826  1.1263
 7606TIP3    H244310   2.794   2.655  12.746  1.6219 -0.3926  1.0640
 7607TIP3   OH244311   4.140   6.441   0.420 -0.3608 -0.0515 -0.1575
 7607TIP3    H144312   4.155   6.438   0.325 -0.6771 -1.8862 -0.1831
 7607TIP3    H244313   4.226   6.422   0.458 -0.6043 -1.1913 -0.1359
 7608TIP3   OH244314   3.219   1.707   4.929 -0.9387  0.2182  0.2623
 7608TIP3    H144315   3.196   1.785   4.979  2.5508  0.3692  1.8895
 7608TIP3    H244316   3.271   1.740   4.856 -3.2472 -0.3208 -1.7732
 7609TIP3   OH244317   5.431   4.540   3.240 -0.2097  0.0882  0.2788
 7609TIP3    H144318   5.418   4.475   3.170 -2.7343  1.6370 -0.8328
 7609TIP3    H244319   5.405   4.494   3.320  1.4820 -1.3116  0.0936
 7610TIP3   OH244320   4.399   2.226   2.350 -0.3133  0.3381 -0.4147
 7610TIP3    H144321   4.441   2.144   2.377  1.1920  1.5081  0.9753
 7610TIP3    H244322   4.389   2.276   2.431  1.0353  2.5206 -1.5193
 7611TIP3   OH244323   0.868   6.592   5.873 -0.2097 -0.0956 -0.2927
 7611TIP3    H144324   0.853   6.569   5.782 -1.2266 -2.7545  0.4626
 7611TIP3    H244325   0.957   6.561   5.892 -1.0206 -2.1996  0.3116
 7612TIP3   OH244326   0.734   4.475   2.751  0.6715  0.0957  0.4930
 7612TIP3    H144327   0.823   4.440   2.753  0.9635  0.6907 -1.0423
 7612TIP3    H244328   0.724   4.510   2.663 -0.7949  0.8102  0.9171
 7613TIP3   OH244329   2.360   2.034   0.276 -0.2129  0.4644  0.1713
 7613TIP3    H144330   2.388   2.106   0.220  1.2412  0.4426  0.8288
 7613TIP3    H244331   2.379   2.064   0.365  2.0751 -1.3517  0.3868
 7614TIP3   OH244332   6.616   0.287   4.903 -0.5261 -0.0084 -0.0335
 7614TIP3    H144333   6.580   0.210   4.859  3.9224 -1.7050 -1.2065
 7614TIP3    H244334   6.649   0.254   4.986  2.1777  0.3130 -0.9017
 7615TIP3   OH244335   0.137   2.793   1.754  0.1271 -0.0809 -0.1906
 7615TIP3    H144336   0.166   2.880   1.780  0.4822 -0.5399  1.0597
 7615TIP3    H244337   0.045   2.789   1.779 -0.2198  0.3249 -1.3419
 7616TIP3   OH244338   4.537   1.917   1.696  0.1573  0.3048 -0.1648
 7616TIP3    H144339   4.539   1.979   1.769  2.9095  2.1471 -1.6104
 7616TIP3    H244340   4.628   1.888   1.686 -0.4794 -1.3951 -1.6817
 7617TIP3   OH244341   5.749   6.381  17.015 -0.5336 -0.1010  0.4528
 7617TIP3    H144342   5.740   6.387  16.920 -1.5670 -0.0223  0.5452
 7617TIP3    H244343   5.659   6.390  17.048 -0.4591 -2.0091  1.3384
 7618TIP3   OH244344   2.012   3.947  14.770  0.3140 -0.3790  0.1571
 7618TIP3    H144345   2.028   3.855  14.788  0.3451 -0.4248 -0.0881
 7618TIP3    H244346   2.059   3.994  14.838  0.4505 -0.5431  0.1765
 7619TIP3   OH244347   0.111   2.247   4.052  0.0015 -0.0952  0.4566
 7619TIP3    H144348   0.202   2.272   4.068 -0.3654  1.0957  0.8250
 7619TIP3    H244349   0.113   2.201   3.968  0.8943  0.2096  0.3007
 7620TIP3   OH244350   0.288   6.506  11.226  0.6200  0.3636 -0.3324
 7620TIP3    H144351   0.268   6.439  11.291  0.3962  0.8433  0.1103
 7620TIP3    H244352   0.202   6.532  11.192  0.6815  0.6412 -0.2758
 7621TIP3   OH244353   4.367   3.223   2.241  0.0717  0.1911 -0.3646
 7621TIP3    H144354   4.420   3.300   2.262  0.1218 -0.1713  0.9369
 7621TIP3    H244355   4.289   3.258   2.198  1.6842  0.6713 -3.1333
 7622TIP3   OH244356   6.001   4.117   2.602 -0.2076  0.7592  0.4311
 7622TIP3    H144357   5.950   4.092   2.679 -0.3651  0.7960  0.3377
 7622TIP3    H244358   6.077   4.058   2.604  0.6784  1.8668  1.5704
 7623TIP3   OH244359   1.670   3.907   0.507  0.0320  0.0543 -0.3397
 7623TIP3    H144360   1.653   3.975   0.441 -0.5612  0.4264  0.1842
 7623TIP3    H244361   1.584   3.872   0.528  0.2515 -0.2820  0.0120
 7624TIP3   OH244362   3.092   0.899  13.828 -0.9437 -0.3574  0.0442
 7624TIP3    H144363   3.126   0.929  13.743 -1.4767  0.4112  0.1006
 7624TIP3    H244364   3.169   0.896  13.884 -1.0957  2.7862  0.5886
 7625TIP3   OH244365   6.620   0.777   2.521  0.4366 -0.0896 -0.0850
 7625TIP3    H144366   6.601   0.782   2.615  1.2620  0.6086  0.0566
 7625TIP3    H244367   6.682   0.704   2.513  0.6786  0.1059 -0.0239
 7626TIP3   OH244368   5.175   5.220  14.422 -0.2874 -0.2247  0.0731
 7626TIP3    H144369   5.241   5.176  14.475 -0.5187 -2.5885 -1.4828
 7626TIP3    H244370   5.210   5.219  14.333 -2.1508 -1.0674 -0.7069
 7627TIP3   OH244371   0.516   5.085   6.396 -0.2510 -0.0933  0.1652
 7627TIP3    H144372   0.468   5.167   6.382 -1.0160 -0.4485  0.6530
 7627TIP3    H244373   0.575   5.104   6.469  1.0992  0.6392 -1.0426
 7628TIP3   OH244374   4.409   1.206   0.140  0.7495  0.4803  0.1243
 7628TIP3    H144375   4.445   1.293   0.155  1.1918  0.5137 -1.0445
 7628TIP3    H244376   4.386   1.205   0.047 -0.7903 -0.0921  0.4857
 7629TIP3   OH244377   3.793   2.998   2.629  0.3520  0.5134  0.0789
 7629TIP3    H144378   3.703   2.972   2.648  0.3134 -0.2509 -1.0483
 7629TIP3    H244379   3.799   2.998   2.534  1.2070  1.7783  0.1070
 7630TIP3   OH244380   1.492   3.270   3.224  0.3669  0.4308  0.0194
 7630TIP3    H144381   1.526   3.340   3.169  2.0929  0.1178  0.6189
 7630TIP3    H244382   1.512   3.190   3.175 -0.4961  0.2759 -0.1007
 7631TIP3   OH244383   1.998   2.994  17.048  0.0623 -0.5857  0.6503
 7631TIP3    H144384   2.037   3.076  17.018 -0.7626 -0.5812 -0.4956
 7631TIP3    H244385   2.030   2.983  17.137  2.5414 -0.5204 -0.1650
 7632TIP3   OH244386   1.525   5.508   0.755  0.0834 -0.4552  0.5226
 7632TIP3    H144387   1.530   5.497   0.660 -1.1890  0.9395  0.2609
 7632TIP3    H244388   1.616   5.513   0.783  0.4825  0.7695 -0.8499
 7633TIP3   OH244389   0.003   4.471   2.992 -0.4292  0.6890  0.2791
 7633TIP3    H144390  -0.084   4.506   2.973  0.2200  3.3157  1.6138
 7633TIP3    H244391  -0.012   4.402   3.057 -1.5052  1.3980  0.8100
 7634TIP3   OH244392   3.760   1.640   4.228  0.5804  0.7424  0.0287
 7634TIP3    H144393   3.699   1.633   4.302 -0.1798 -0.1083 -0.6478
 7634TIP3    H244394   3.739   1.564   4.173  1.6022  0.9807 -0.7132
 7635TIP3   OH244395   4.458   4.783   2.606  0.3464  0.6047  0.0463
 7635TIP3    H144396   4.450   4.842   2.681 -2.3809  0.5909 -0.1536
 7635TIP3    H244397   4.520   4.716   2.634  0.0998  1.1160  1.9380
 7636TIP3   OH244398   1.679   6.289  15.579  0.2629 -0.1329 -0.7877
 7636TIP3    H144399   1.712   6.376  15.557  0.8286 -0.3863 -0.9624
 7636TIP3    H244400   1.597   6.305  15.625  0.6037  0.5091 -0.3959
 7637TIP3   OH244401   0.229   2.369   5.853  0.7610 -0.4596 -0.5319
 7637TIP3    H144402   0.217   2.360   5.758  1.5748  0.1551 -0.7067
 7637TIP3    H244403   0.288   2.444   5.862 -0.6785  0.5866  0.5444
 7638TIP3   OH244404   0.948   4.659  11.566 -0.5286 -0.4900 -0.2977
 7638TIP3    H144405   0.898   4.685  11.488  1.0267 -1.2820 -1.6180
 7638TIP3    H244406   0.888   4.603  11.615 -2.3197  1.7299  0.2792
 7639TIP3   OH244407   1.386   3.767  13.690 -0.5354 -0.4715  0.0827
 7639TIP3    H144408   1.354   3.834  13.631  0.4370 -0.9172 -0.9823
 7639TIP3    H244409   1.402   3.691  13.634 -0.0733 -1.0706  0.9976
 7640TIP3   OH244410   3.486   5.277  15.891  1.1060 -0.7183 -0.0240
 7640TIP3    H144411   3.463   5.356  15.842 -0.6019  0.5094  2.5330
 7640TIP3    H244412   3.567   5.299  15.937  0.8594 -0.6159  0.3612
 7641TIP3   OH244413   2.833   2.329  12.310  0.4391 -0.2137 -0.4031
 7641TIP3    H144414   2.846   2.236  12.331  0.0655 -0.1333  0.2022
 7641TIP3    H244415   2.859   2.336  12.218  1.7300 -0.6627 -0.1090
 7642TIP3   OH244416   3.564   0.955   1.236 -0.6314 -0.0045 -0.1367
 7642TIP3    H144417   3.474   0.946   1.208 -0.5406  0.0198 -0.4367
 7642TIP3    H244418   3.602   0.867   1.226 -0.8325 -0.1995  0.7336
 7643TIP3   OH244419   4.586   1.866  11.799 -0.0882  0.2581 -0.4460
 7643TIP3    H144420   4.667   1.833  11.759  0.7904 -1.7631  2.6250
 7643TIP3    H244421   4.519   1.854  11.731  1.1709 -3.2931 -1.3145
 7644TIP3   OH244422   4.496   5.490   3.929  0.0709 -0.1668  0.1584
 7644TIP3    H144423   4.403   5.507   3.944 -0.3808 -2.1402 -0.1371
 7644TIP3    H244424   4.508   5.501   3.834  0.1767  0.2005  0.2121
 7645TIP3   OH244425   3.490   6.361   1.103  0.3382  0.5392 -0.0579
 7645TIP3    H144426   3.414   6.334   1.051  0.7457 -3.8422  1.3107
 7645TIP3    H244427   3.563   6.361   1.041 -0.3071  2.8633 -0.9431
 7646TIP3   OH244428   4.230   5.328   4.205  0.0587  0.1879  0.1907
 7646TIP3    H144429   4.159   5.287   4.254 -0.7303  1.6424  0.3032
 7646TIP3    H244430   4.304   5.268   4.216 -1.1060 -1.2945  0.1576
 7647TIP3   OH244431   0.781   4.104  11.820  0.1544 -0.2722  0.1891
 7647TIP3    H144432   0.813   4.014  11.819  1.5544  0.1690  1.4267
 7647TIP3    H244433   0.714   4.105  11.888 -0.3046 -0.5053 -0.2539
 7648TIP3   OH244434   0.242   1.252   6.848  0.8704 -0.4615  0.0779
 7648TIP3    H144435   0.253   1.347   6.842 -0.1118 -0.3133  0.5059
 7648TIP3    H244436   0.148   1.238   6.840  1.0636 -1.4638 -0.7203
 7649TIP3   OH244437   6.284   1.902  11.220  0.1816  0.0011  0.0936
 7649TIP3    H144438   6.345   1.960  11.265 -0.2669 -0.9536  2.0235
 7649TIP3    H244439   6.322   1.815  11.229 -0.5708 -0.3791 -0.2604
 7650TIP3   OH244440   6.788   2.326   5.359 -0.7981 -0.0258 -0.8211
 7650TIP3    H144441   6.790   2.232   5.377  1.5848  0.1733  0.2339
 7650TIP3    H244442   6.696   2.350   5.371 -1.5561 -2.2600 -1.5199
 7651TIP3   OH244443   6.092   3.618   4.807 -0.3398 -0.1225 -0.2570
 7651TIP3    H144444   6.001   3.608   4.779 -0.4000  0.3058 -0.2332
 7651TIP3    H244445   6.139   3.548   4.762 -0.7993 -0.8093  0.3078
 7652TIP3   OH244446   1.626   1.107  12.005  0.0562 -0.3771  0.2518
 7652TIP3    H144447   1.716   1.085  11.983 -0.2653 -1.0581 -0.4100
 7652TIP3    H244448   1.573   1.042  11.960 -0.8390  0.7687 -0.4266
 7653TIP3   OH244449   3.333   5.408  16.634 -0.4262  0.0294  0.4085
 7653TIP3    H144450   3.418   5.419  16.677  1.1610 -1.4541 -2.0632
 7653TIP3    H244451   3.326   5.313  16.619 -1.3885  0.3500 -1.5047
 7654TIP3   OH244452   3.105   1.635  16.801  0.5087  0.1620 -0.1101
 7654TIP3    H144453   3.146   1.668  16.721 -0.5876  1.0392 -0.3239
 7654TIP3    H244454   3.025   1.593  16.771 -1.2837  2.7576  0.6836
 7655TIP3   OH244455   1.353   2.371   1.414 -0.3980 -0.4991  0.5309
 7655TIP3    H144456   1.280   2.361   1.352 -2.2725  1.9230  2.1342
 7655TIP3    H244457   1.397   2.451   1.386  0.1263 -0.6080  1.0183
 7656TIP3   OH244458   3.411   3.298   3.841 -0.2151  0.1984 -0.0525
 7656TIP3    H144459   3.467   3.220   3.842  0.3277  0.5338  1.9610
 7656TIP3    H244460   3.472   3.371   3.831 -0.5513  0.4434 -0.3313
 7657TIP3   OH244461   3.828   1.540  14.739  0.0207 -0.0781  0.5594
 7657TIP3    H144462   3.911   1.539  14.787  0.1365  1.5264  0.4498
 7657TIP3    H244463   3.833   1.619  14.686 -0.6122 -1.1759 -1.2224
 7658TIP3   OH244464   2.833   3.557   2.666 -0.2089 -0.0203  0.1852
 7658TIP3    H144465   2.819   3.585   2.756  2.6026 -2.0649  1.3938
 7658TIP3    H244466   2.786   3.474   2.659 -0.1444 -0.0319 -0.1350
 7659TIP3   OH244467   1.811   0.279  13.281 -0.0873  0.3765 -0.5860
 7659TIP3    H144468   1.788   0.345  13.346 -1.1689 -0.8380  0.3135
 7659TIP3    H244469   1.799   0.323  13.196 -1.4592  1.1274 -0.0356
 7660TIP3   OH244470   3.826   1.910  12.580 -0.1219  0.5484  0.1456
 7660TIP3    H144471   3.835   1.866  12.664 -0.7145  1.4628  0.6980
 7660TIP3    H244472   3.766   1.982  12.596 -0.7253  0.3944 -1.1972
 7661TIP3   OH244473   5.499   3.041  10.594 -0.1297  0.2953 -0.4958
 7661TIP3    H144474   5.449   3.029  10.675 -1.0771 -2.4440 -1.3908
 7661TIP3    H244475   5.448   3.105  10.544  0.6215  2.2623  1.0761
 7662TIP3   OH244476   0.113   3.402  14.332  0.1666 -0.5002 -0.5349
 7662TIP3    H144477   0.124   3.362  14.418  1.2718 -0.4361 -0.6245
 7662TIP3    H244478   0.045   3.468  14.344 -1.2474 -1.9612 -0.2459
 7663TIP3   OH244479   4.899   6.786   5.950  0.0275 -0.3496  0.4390
 7663TIP3    H144480   4.842   6.801   6.025 -1.1453  0.1088 -0.4980
 7663TIP3    H244481   4.844   6.806   5.874  0.5063 -2.7166 -0.6406
 7664TIP3   OH244482   2.173   1.008  12.697 -0.0627  0.1279  0.2427
 7664TIP3    H144483   2.156   1.103  12.700  0.5322  0.2953 -1.1691
 7664TIP3    H244484   2.095   0.972  12.655  0.4336  0.2099 -0.7847
 7665TIP3   OH244485   1.684   2.795   3.014  0.3479 -0.8752  0.6626
 7665TIP3    H144486   1.590   2.778   3.016 -0.2528  1.3981 -1.9361
 7665TIP3    H244487   1.722   2.717   2.974 -0.8507 -0.6309 -1.0185
 7666TIP3   OH244488   5.273   5.729  15.382  0.0437 -0.4277 -0.1457
 7666TIP3    H144489   5.361   5.715  15.416 -0.2500  1.4948  1.6000
 7666TIP3    H244490   5.241   5.641  15.360  1.5610 -1.3989  1.3498
 7667TIP3   OH244491   3.036   2.462  11.665 -0.3467  0.3011 -0.1590
 7667TIP3    H144492   3.111   2.505  11.706 -0.4152  0.1260  0.1583
 7667TIP3    H244493   3.061   2.369  11.662  0.1676  0.4569 -1.6333
 7668TIP3   OH244494   5.158   4.299  14.240  0.2170  0.7925 -0.0644
 7668TIP3    H144495   5.203   4.295  14.156  1.0373  0.8999  0.3694
 7668TIP3    H244496   5.103   4.377  14.235 -1.3771 -0.3182 -1.3028
 7669TIP3   OH244497   3.994   4.498   4.947 -0.4626 -0.0543  0.2312
 7669TIP3    H144498   3.918   4.441   4.955 -1.8656  1.9291  2.1160
 7669TIP3    H244499   4.043   4.485   5.028  0.0455  0.2898 -0.0125
 7670TIP3   OH244500   0.169   3.967  13.078 -0.1276  0.3067  0.0220
 7670TIP3    H144501   0.193   3.898  13.016 -0.0418 -1.4935  1.9185
 7670TIP3    H244502   0.183   3.927  13.164  1.0892  3.1261  1.2609
 7671TIP3   OH244503   3.700   3.519   0.493  0.0703  0.3350 -0.4171
 7671TIP3    H144504   3.681   3.465   0.569 -0.4875  0.2352 -0.6178
 7671TIP3    H244505   3.616   3.525   0.447  0.6047 -0.4093 -1.5398
 7672TIP3   OH244506   4.321   1.993  11.207 -0.0948  1.0142  0.1225
 7672TIP3    H144507   4.234   1.954  11.220  0.4368 -0.8329 -1.4003
 7672TIP3    H244508   4.380   1.935  11.256  0.7205 -0.2653 -2.2325
 7673TIP3   OH244509   3.251   4.832   2.571  0.2097 -0.4523 -0.3188
 7673TIP3    H144510   3.223   4.779   2.645  0.6480  1.3434  1.2044
 7673TIP3    H244511   3.261   4.921   2.607  3.8061 -0.1309 -1.6384
 7674TIP3   OH244512   1.720   3.156  11.816  0.3646 -0.0927  0.2987
 7674TIP3    H144513   1.809   3.132  11.791  0.3097 -0.3619  0.3517
 7674TIP3    H244514   1.667   3.080  11.791  0.1943 -0.0509  0.5233
 7675TIP3   OH244515   5.814   0.043  16.923 -0.5568  0.0143 -0.2448
 7675TIP3    H144516   5.829   0.069  16.832 -3.3311  1.0215 -0.5202
 7675TIP3    H244517   5.814   0.126  16.972  0.8830 -0.5096  0.7205
 7676TIP3   OH244518   5.692   5.797   6.244 -0.3978 -0.6843  0.0518
 7676TIP3    H144519   5.693   5.715   6.293 -2.3845  0.0213  1.4038
 7676TIP3    H244520   5.772   5.842   6.270 -0.5193 -1.1287  1.2639
 7677TIP3   OH244521   5.109   5.570  13.458  0.5026 -0.1240 -0.2665
 7677TIP3    H144522   5.118   5.566  13.362  1.6008  1.0507 -0.2314
 7677TIP3    H244523   5.198   5.582  13.490  0.1167 -0.2958  0.9046
 7678TIP3   OH244524   0.563   6.363   2.532  0.4824 -0.1890 -0.2650
 7678TIP3    H144525   0.610   6.333   2.610 -0.6100  1.1196  0.9553
 7678TIP3    H244526   0.594   6.453   2.519  0.0382 -0.1148 -0.8545
 7679TIP3   OH244527   1.683   4.224   2.154  0.3627  0.1774  0.1231
 7679TIP3    H144528   1.588   4.227   2.157  0.3489 -0.0191 -0.1554
 7679TIP3    H244529   1.706   4.136   2.182  0.5654  0.9091  2.5424
 7680TIP3   OH244530   6.422   6.798   2.721  0.4184 -0.4555 -0.4130
 7680TIP3    H144531   6.362   6.870   2.701  0.1122 -0.5852  0.0214
 7680TIP3    H244532   6.471   6.784   2.640  0.9447  0.6769 -0.3047
 7681TIP3   OH244533   3.134   0.197   0.861  0.6672 -0.1958 -0.2871
 7681TIP3    H144534   3.199   0.265   0.881  0.0596 -0.0287  1.3572
 7681TIP3    H244535   3.081   0.234   0.791 -0.8603  1.9568  1.8403
 7682TIP3   OH244536   5.867   4.798   1.498  0.1012  0.0974  0.1549
 7682TIP3    H144537   5.789   4.763   1.543  2.0194 -0.9886  2.9647
 7682TIP3    H244538   5.834   4.832   1.415 -3.1137 -1.6741  0.5390
 7683TIP3   OH244539   5.164   0.092  16.900  0.0457  0.5575  0.2545
 7683TIP3    H144540   5.126   0.175  16.871 -2.0936 -0.5177 -0.1368
 7683TIP3    H244541   5.232   0.073  16.835 -2.2271 -0.0097 -2.0744
 7684TIP3   OH244542   5.527   5.113  11.913 -0.5100 -0.1765  0.5505
 7684TIP3    H144543   5.491   5.038  11.961 -0.5256  0.0413  0.8779
 7684TIP3    H244544   5.472   5.187  11.938 -2.0199 -0.4581 -1.5825
 7685TIP3   OH244545   3.885   2.639   3.599 -0.3646 -0.5051  0.3872
 7685TIP3    H144546   3.803   2.689   3.597  0.1016  0.2539  0.1557
 7685TIP3    H244547   3.954   2.705   3.604  0.2782 -1.1058 -0.3126
 7686TIP3   OH244548   0.735   1.635  12.579 -0.0237  0.3774 -0.2537
 7686TIP3    H144549   0.745   1.650  12.485 -0.3528  0.3795 -0.2895
 7686TIP3    H244550   0.776   1.712  12.619  1.0092 -0.0988 -0.3711
 7687TIP3   OH244551   4.138   1.111   2.666 -0.1732  0.2282 -0.2246
 7687TIP3    H144552   4.122   1.196   2.627 -0.9776  0.2310  0.0841
 7687TIP3    H244553   4.132   1.049   2.593 -1.2614  0.2744 -0.1890
 7688TIP3   OH244554   0.781   4.157   2.538 -0.3267 -0.7812  0.4459
 7688TIP3    H144555   0.780   4.062   2.529  0.0605 -0.8173  0.7729
 7688TIP3    H244556   0.695   4.179   2.572 -0.2134 -1.0708  0.9270
 7689TIP3   OH244557   1.484   5.252  16.077 -0.3162  0.2031 -0.3253
 7689TIP3    H144558   1.515   5.253  15.987  2.1962 -0.0873  0.4616
 7689TIP3    H244559   1.555   5.213  16.127 -1.1615  1.3634  1.9596
 7690TIP3   OH244560   1.177   6.159   1.399 -0.3894 -0.2675  0.2694
 7690TIP3    H144561   1.221   6.213   1.465 -0.9660 -0.2927  0.6785
 7690TIP3    H244562   1.160   6.076   1.444 -1.0981 -0.1623  0.1986
 7691TIP3   OH244563   0.041   3.596   6.131  0.7449 -0.2737  0.4706
 7691TIP3    H144564  -0.027   3.548   6.178  0.5265 -1.1381 -0.6800
 7691TIP3    H244565   0.060   3.671   6.187  1.2081 -1.7451  2.4433
 7692TIP3   OH244566   2.407   5.591  10.348 -0.8828  0.4510  0.3453
 7692TIP3    H144567   2.479   5.597  10.411 -1.0529 -0.8286  0.6789
 7692TIP3    H244568   2.345   5.530  10.388 -0.6830 -0.9162 -1.3534
 7693TIP3   OH244569   1.328   5.596  12.789  0.0823  0.5317  0.3241
 7693TIP3    H144570   1.320   5.504  12.763  1.7557  0.6928 -0.9285
 7693TIP3    H244571   1.265   5.641  12.733  0.3474  0.3095 -0.1656
 7694TIP3   OH244572   3.759   0.524  15.175 -0.0530  0.7692 -0.1190
 7694TIP3    H144573   3.849   0.554  15.176  0.8391 -1.6783 -1.0229
 7694TIP3    H244574   3.732   0.527  15.267  1.1840  0.8519  0.2569
 7695TIP3   OH244575   0.796   0.694   4.556  0.3467  0.2111 -0.0701
 7695TIP3    H144576   0.800   0.719   4.648 -1.6869  0.9305 -0.1266
 7695TIP3    H244577   0.817   0.600   4.556 -1.2150 -0.1929  1.3656
 7696TIP3   OH244578   5.466   3.152  14.521  0.2587  0.1139  0.2283
 7696TIP3    H144579   5.424   3.126  14.440  0.0203  2.2164 -0.3930
 7696TIP3    H244580   5.523   3.226  14.496  2.5806 -1.1357  1.4341
 7697TIP3   OH244581   3.951   6.253  16.950 -0.6869  0.1290  0.8848
 7697TIP3    H144582   3.984   6.252  17.039  0.7067  1.1102  0.4080
 7697TIP3    H244583   3.921   6.343  16.936  1.9520  0.8901 -0.5754
 7698TIP3   OH244584   5.263   5.492   4.860 -0.0894  0.3532  0.1225
 7698TIP3    H144585   5.322   5.504   4.935  0.3042 -0.6763 -0.0081
 7698TIP3    H244586   5.182   5.460   4.899  0.8849 -2.6037 -0.0304
 7699TIP3   OH244587   2.081   6.079   5.448  0.3987 -0.1586 -0.1187
 7699TIP3    H144588   2.154   6.021   5.471 -0.7398 -1.7154 -0.3082
 7699TIP3    H244589   2.049   6.045   5.364 -1.4948 -0.4764  0.6818
 7700TIP3   OH244590   3.453   4.144   1.929 -0.0492 -0.0412  0.1562
 7700TIP3    H144591   3.375   4.166   1.878  0.6756 -0.8347 -1.3669
 7700TIP3    H244592   3.423   4.079   1.992 -1.0060  1.1050  0.9257
 7701TIP3   OH244593   6.548   0.765  14.492 -0.4011  0.9937  0.0347
 7701TIP3    H144594   6.631   0.811  14.494 -0.9223  1.9468  0.5569
 7701TIP3    H244595   6.496   0.812  14.427  0.2304 -1.0168 -2.0253
 7702TIP3   OH244596   2.778   4.137  16.215 -0.4161 -0.5412 -0.0178
 7702TIP3    H144597   2.753   4.191  16.140 -0.3663 -1.6639 -0.8640
 7702TIP3    H244598   2.865   4.169  16.239 -0.3735 -0.2650 -0.5293
 7703TIP3   OH244599   4.548   4.404  16.647 -0.3943  0.0362 -0.6438
 7703TIP3    H144600   4.642   4.401  16.632 -0.2729 -1.1596  0.1997
 7703TIP3    H244601   4.534   4.348  16.724 -1.6523  1.1132 -0.0426
 7704TIP3   OH244602   5.154   1.865  16.495 -0.2069 -0.2361 -0.1153
 7704TIP3    H144603   5.197   1.798  16.548 -1.0553 -1.8792 -1.4186
 7704TIP3    H244604   5.226   1.915  16.457  0.4753 -0.9412  0.2105
 7705TIP3   OH244605   3.411   5.529   3.661  1.0052  0.1266 -0.4052
 7705TIP3    H144606   3.501   5.555   3.677  0.2008  2.8812  0.1934
 7705TIP3    H244607   3.377   5.595   3.601 -0.2949 -1.5741 -1.6480
 7706TIP3   OH244608   1.410   4.360  15.555 -0.2380  0.0561  0.0663
 7706TIP3    H144609   1.387   4.369  15.462  0.7071 -0.5884 -0.2443
 7706TIP3    H244610   1.459   4.279  15.560  1.5198  1.0972  0.7739
 7707TIP3   OH244611   2.430   3.330  10.614  0.1305  0.4232  0.2150
 7707TIP3    H144612   2.414   3.424  10.617 -2.4372  0.1206 -1.3344
 7707TIP3    H244613   2.489   3.319  10.539  0.9564  0.8337  0.7926
 7708TIP3   OH244614   2.196   4.689   2.039 -0.2599 -0.6403 -0.9365
 7708TIP3    H144615   2.280   4.723   2.009  0.2950  0.0503  1.2572
 7708TIP3    H244616   2.197   4.597   2.012  0.9000 -0.4810 -1.5179
 7709TIP3   OH244617   2.741   3.017  16.548  0.1955  0.3465 -0.0743
 7709TIP3    H144618   2.728   2.923  16.533  1.1369  0.4029 -1.4717
 7709TIP3    H244619   2.798   3.021  16.624  2.4863 -0.3848 -1.6363
 7710TIP3   OH244620   6.184   3.449   0.097 -0.1990 -0.2784  0.4013
 7710TIP3    H144621   6.165   3.503   0.021  2.2225 -1.3025 -1.0254
 7710TIP3    H244622   6.106   3.458   0.153 -2.4979 -0.2486 -2.5800
 7711TIP3   OH244623   2.838   5.162   2.274  0.1012  0.3308 -0.5937
 7711TIP3    H144624   2.863   5.073   2.248  1.0996  1.4155 -3.8552
 7711TIP3    H244625   2.743   5.159   2.283  0.2460 -1.3583  0.9687
 7712TIP3   OH244626   3.833   4.027   5.022 -0.0792  0.1568  0.5400
 7712TIP3    H144627   3.853   3.956   5.083 -1.2755 -0.1100  0.6635
 7712TIP3    H244628   3.917   4.069   5.004  0.6714 -1.3610  0.3713
 7713TIP3   OH244629   6.536   6.561  15.351 -0.0455 -0.1667 -0.3584
 7713TIP3    H144630   6.587   6.483  15.326  1.1790  0.5704 -0.2345
 7713TIP3    H244631   6.531   6.612  15.270  2.0225  1.1731  0.2790
 7714TIP3   OH244632   0.771   6.794   0.648  0.3213  0.2511  0.6115
 7714TIP3    H144633   0.815   6.837   0.722  0.2909  2.6491 -0.6537
 7714TIP3    H244634   0.680   6.785   0.676 -0.1248  2.8894  0.2727
 7715TIP3   OH244635   1.275   5.276  15.141 -0.6761  0.4106  0.0543
 7715TIP3    H144636   1.221   5.340  15.093 -1.0098  0.8260  0.9541
 7715TIP3    H244637   1.352   5.325  15.168  0.1304 -0.1535 -1.1222
 7716TIP3   OH244638   3.001   5.232  13.769 -0.9398 -0.0085  0.6817
 7716TIP3    H144639   3.081   5.282  13.751 -0.0945 -1.3842  0.4846
 7716TIP3    H244640   2.937   5.266  13.707 -0.0292 -0.0050 -0.2854
 7717TIP3   OH244641   6.646   5.249  16.335 -0.4831 -0.6339 -0.1599
 7717TIP3    H144642   6.561   5.206  16.337 -0.3339 -0.9976 -0.9360
 7717TIP3    H244643   6.664   5.261  16.241  0.7504 -1.4581 -0.0551
 7718TIP3   OH244644   1.070   1.627  14.818 -0.1764 -0.7790  0.2267
 7718TIP3    H144645   1.087   1.533  14.812  1.3832 -0.4853 -0.6322
 7718TIP3    H244646   1.135   1.659  14.880 -0.4868 -0.2180  0.2619
 7719TIP3   OH244647   0.804   1.084  12.138 -0.0738  0.0600 -0.0446
 7719TIP3    H144648   0.730   1.094  12.078 -1.5105  2.1341  1.9240
 7719TIP3    H244649   0.864   1.154  12.115 -0.8632  1.1765  1.1911
 7720TIP3   OH244650   0.268   0.592   6.652 -0.1340 -0.0422 -0.2049
 7720TIP3    H144651   0.345   0.648   6.664  0.4372 -0.1860 -2.6387
 7720TIP3    H244652   0.198   0.653   6.631 -1.1168  0.2064  3.1669
 7721TIP3   OH244653   6.003   3.241  11.274 -0.1892  0.4387  0.2295
 7721TIP3    H144654   5.977   3.286  11.194 -1.0286 -2.4965 -1.2918
 7721TIP3    H244655   5.922   3.231  11.323  0.2412  1.7869  1.2612
 7722TIP3   OH244656   5.112   2.877  11.466 -0.0519  0.0751 -0.3531
 7722TIP3    H144657   5.089   2.958  11.511  0.7247  1.2302 -1.9530
 7722TIP3    H244658   5.176   2.903  11.400  1.5751 -2.1336  0.2405
 7723TIP3   OH244659   6.764   3.080   0.871  0.3927 -0.4088 -0.0222
 7723TIP3    H144660   6.676   3.054   0.842  0.3598  1.0829 -1.3683
 7723TIP3    H244661   6.791   3.009   0.930 -0.1754 -2.8912 -2.5296
 7724TIP3   OH244662   6.495   5.515   1.565 -0.1558  0.0832 -0.0027
 7724TIP3    H144663   6.570   5.549   1.517  0.2564 -0.7213  0.0546
 7724TIP3    H244664   6.471   5.434   1.519 -0.7122  0.1030  0.2392
 7725TIP3   OH244665   3.941   4.432  14.960 -0.3960  0.3317 -0.0344
 7725TIP3    H144666   3.995   4.486  14.901 -2.8581  1.9519 -0.9754
 7725TIP3    H244667   3.955   4.471  15.046  0.8949 -0.1208 -0.0105
 7726TIP3   OH244668   0.045   1.826  14.354  0.2491  0.4560 -0.2718
 7726TIP3    H144669  -0.046   1.813  14.328  0.1342  0.5918  0.0484
 7726TIP3    H244670   0.065   1.751  14.410 -0.2741  1.3708  1.2094
 7727TIP3   OH244671   6.009   3.234   5.708  0.3711 -0.2625  0.3030
 7727TIP3    H144672   6.096   3.273   5.708  0.0039  0.6037  1.2552
 7727TIP3    H244673   6.015   3.159   5.768  1.0203 -1.6223 -1.3655
 7728TIP3   OH244674   0.570   6.607   2.218 -0.3901 -1.1740 -0.3255
 7728TIP3    H144675   0.604   6.602   2.307  2.1023  1.5710 -0.9567
 7728TIP3    H244676   0.488   6.656   2.227 -0.6613 -1.7793  0.5488
 7729TIP3   OH244677   6.583   0.100  12.845  0.6328 -0.0643 -0.2183
 7729TIP3    H144678   6.569   0.153  12.767 -0.1543 -1.4712 -1.0880
 7729TIP3    H244679   6.532   0.142  12.914  1.5846  1.3691 -0.3568
 7730TIP3   OH244680   2.622   1.404   3.374  0.0008 -0.1641  0.0000
 7730TIP3    H144681   2.712   1.424   3.346  0.7162 -2.6322  0.3431
 7730TIP3    H244682   2.572   1.402   3.292  1.0675 -2.4620 -0.6604
 7731TIP3   OH244683   3.060   4.470  15.063 -0.3284  0.1648  0.4871
 7731TIP3    H144684   3.069   4.478  15.158  1.4440 -0.9038  0.4363
 7731TIP3    H244685   3.069   4.377  15.046  0.7531  0.4908 -0.8539
 7732TIP3   OH244686   4.805   4.218  14.560 -0.7435  0.2153 -0.4509
 7732TIP3    H144687   4.792   4.123  14.556 -0.4693  0.2168 -2.4663
 7732TIP3    H244688   4.730   4.254  14.512  0.5365  0.8471 -2.0513
 7733TIP3   OH244689   1.748   6.386  11.181  0.1939  0.3497 -0.0440
 7733TIP3    H144690   1.837   6.354  11.174  0.5284  0.5604  2.3252
 7733TIP3    H244691   1.710   6.338  11.254 -1.1496  1.3104 -0.0494
 7734TIP3   OH244692   5.997   4.645  15.300  0.0004 -0.3997  0.3981
 7734TIP3    H144693   6.079   4.690  15.318 -0.3610 -0.3287  2.0139
 7734TIP3    H244694   5.939   4.672  15.370 -0.8307 -1.8855  0.3249
 7735TIP3   OH244695   5.867   5.396   2.335 -0.4045 -0.1751  0.0300
 7735TIP3    H144696   5.900   5.457   2.400  2.2877 -0.4972 -0.9238
 7735TIP3    H244697   5.893   5.310   2.367  0.6473 -0.3589 -1.2524
 7736TIP3   OH244698   1.460   2.101  15.334 -0.5057  0.4068 -0.5301
 7736TIP3    H144699   1.454   2.029  15.397  1.0472  0.2296 -0.5463
 7736TIP3    H244700   1.480   2.178  15.387 -1.6132  0.7580 -0.5768
 7737TIP3   OH244701   2.688   6.203   2.842  0.2673 -0.0499  0.3150
 7737TIP3    H144702   2.611   6.197   2.899  0.9655 -0.3624  1.2481
 7737TIP3    H244703   2.737   6.123   2.859  0.4731 -0.1605 -0.7648
 7738TIP3   OH244704   6.368   5.962   6.593  0.1646  0.0373 -0.1119
 7738TIP3    H144705   6.445   5.906   6.605  0.5262  0.2545 -1.2703
 7738TIP3    H244706   6.389   6.014   6.515 -0.9655  0.4270 -0.1660
 7739TIP3   OH244707   2.058   5.712  15.603 -0.0203 -0.2208  0.7270
 7739TIP3    H144708   2.121   5.640  15.603 -0.4230 -0.5869  1.3155
 7739TIP3    H244709   2.111   5.791  15.600  0.4767 -0.4339 -4.2010
 7740TIP3   OH244710   1.254   6.586  11.047 -0.0232 -0.3217 -0.5893
 7740TIP3    H144711   1.291   6.565  10.961  0.7302 -1.6249  0.0326
 7740TIP3    H244712   1.210   6.506  11.075 -1.4430  0.5140 -0.3318
 7741TIP3   OH244713   6.288   2.013   0.934  0.1450 -0.0302 -0.0477
 7741TIP3    H144714   6.254   1.939   0.885  0.7350 -0.7157  0.5550
 7741TIP3    H244715   6.330   2.069   0.868  0.0187 -0.4130 -0.4569
 7742TIP3   OH244716   5.112   0.570  13.460  0.2831 -0.3847 -0.2021
 7742TIP3    H144717   5.031   0.525  13.436  0.1167 -0.2670  0.1294
 7742TIP3    H244718   5.099   0.596  13.551 -0.4502  2.0451 -0.8989
 7743TIP3   OH244719   5.602   6.358   5.897  0.3081  0.1628  0.4869
 7743TIP3    H144720   5.581   6.438   5.946 -0.1048 -0.2093  0.9160
 7743TIP3    H244721   5.518   6.319   5.875  0.4099  0.9946 -1.6917
 7744TIP3   OH244722   0.672   1.668  12.311 -0.2914  0.1738  0.2828
 7744TIP3    H144723   0.588   1.705  12.284 -0.1723  0.5768  0.4582
 7744TIP3    H244724   0.678   1.585  12.264 -1.2368 -0.3280  1.0138
 7745TIP3   OH244725   0.507   3.309  16.497 -0.1371 -0.1746 -0.9265
 7745TIP3    H144726   0.449   3.367  16.546 -0.0642 -2.1490  1.7947
 7745TIP3    H244727   0.594   3.350  16.504 -0.1591 -0.3250  0.5841
 7746TIP3   OH244728   4.980   6.490   2.599 -0.1204 -0.5267 -0.2366
 7746TIP3    H144729   4.933   6.560   2.555  0.2862  0.3361  0.6448
 7746TIP3    H244730   4.989   6.521   2.690 -0.0208 -1.7664  0.1996
 7747TIP3   OH244731   1.093   5.612  15.641 -0.0260  0.3700  0.0895
 7747TIP3    H144732   1.081   5.678  15.572  0.6430  0.5341  0.1299
 7747TIP3    H244733   1.139   5.658  15.711  0.3605 -0.1175  0.1569
 7748TIP3   OH244734   2.990   3.102   6.242  0.1659  0.0760 -0.0115
 7748TIP3    H144735   3.039   3.178   6.213 -0.2048  0.9000  1.4168
 7748TIP3    H244736   2.941   3.133   6.319 -2.5114 -0.6903 -1.2733
 7749TIP3   OH244737   0.072   6.152  13.624 -0.1405 -0.2066 -0.4078
 7749TIP3    H144738   0.022   6.122  13.548 -0.8207 -0.0532 -0.0299
 7749TIP3    H244739   0.163   6.151  13.595 -0.4495  0.5406 -1.4653
 7750TIP3   OH244740   5.600   2.243   4.925 -0.0607  0.1049 -0.7018
 7750TIP3    H144741   5.536   2.313   4.936  0.4700  0.6727 -1.1745
 7750TIP3    H244742   5.622   2.244   4.832  0.0712 -0.5832 -0.6833
 7751TIP3   OH244743   2.427   4.925  17.019  0.0510 -0.2207  0.3688
 7751TIP3    H144744   2.366   4.899  17.088  0.2506  0.4994  0.8444
 7751TIP3    H244745   2.373   4.938  16.942 -0.7860  2.3586  1.2583
 7752TIP3   OH244746   6.142   5.265   1.592 -0.3441 -0.1986 -0.0907
 7752TIP3    H144747   6.093   5.233   1.515  1.2429  0.4579 -1.4254
 7752TIP3    H244748   6.233   5.267   1.563  0.2430  0.4497  1.7106
 7753TIP3   OH244749   4.812   0.517   2.797  0.3374  0.1280 -0.3710
 7753TIP3    H144750   4.717   0.529   2.792 -0.0397 -1.2266  1.9963
 7753TIP3    H244751   4.848   0.603   2.776 -1.4849  1.0703  0.1150
 7754TIP3   OH244752   5.168   6.240  12.234  0.6004  0.7166  0.2761
 7754TIP3    H144753   5.102   6.193  12.183 -0.4795  2.6610 -0.2440
 7754TIP3    H244754   5.236   6.262  12.172  1.6405 -0.9739  0.7396
 7755TIP3   OH244755   5.829   3.964  13.459 -0.0427 -0.5102 -0.5503
 7755TIP3    H144756   5.862   3.938  13.545 -0.8973 -2.3309 -0.7246
 7755TIP3    H244757   5.842   4.059  13.456 -0.0414 -0.3913  1.5987
 7756TIP3   OH244758   3.490   1.558  15.474  0.0766 -0.0733 -0.4078
 7756TIP3    H144759   3.399   1.539  15.454 -0.2038  1.3603 -0.5639
 7756TIP3    H244760   3.534   1.557  15.389 -0.1975  1.2508 -0.5810
 7757TIP3   OH244761   6.715   3.001   4.169 -0.0579 -0.7889 -0.0802
 7757TIP3    H144762   6.756   2.939   4.229  1.2267  1.1546  1.1664
 7757TIP3    H244763   6.782   3.017   4.102 -0.4201 -0.7959 -0.4484
 7758TIP3   OH244764   3.592   5.859  10.934  0.2340 -0.1110  0.1427
 7758TIP3    H144765   3.665   5.835  10.992  0.3180 -1.4370 -0.4832
 7758TIP3    H244766   3.516   5.813  10.970 -0.4240  1.5804  1.0298
 7759TIP3   OH244767   3.680   3.398   4.498 -0.4125  0.5752 -0.7839
 7759TIP3    H144768   3.606   3.459   4.497 -0.8946  0.0966  1.0434
 7759TIP3    H244769   3.757   3.452   4.480 -1.0194  1.4109 -0.9292
 7760TIP3   OH244770   4.889   4.209  15.572 -0.3188 -0.4744  0.3549
 7760TIP3    H144771   4.875   4.301  15.552  0.2693 -0.1844  1.2080
 7760TIP3    H244772   4.863   4.162  15.493  1.3318  0.5511 -0.8418
 7761TIP3   OH244773   0.302   0.061   5.248  0.1275  0.0900  0.2923
 7761TIP3    H144774   0.353   0.015   5.315 -1.2095  2.6826  3.3605
 7761TIP3    H244775   0.363   0.125   5.211 -0.2362  1.9704  2.6835
 7762TIP3   OH244776   3.829   2.425   4.997 -0.5651  0.5472  0.6374
 7762TIP3    H144777   3.822   2.483   5.073 -0.9866  0.5310  0.6142
 7762TIP3    H244778   3.879   2.474   4.933 -0.2093  0.5636  0.9263
 7763TIP3   OH244779   6.668   1.476  12.177  0.6283 -0.0156  0.2101
 7763TIP3    H144780   6.600   1.540  12.198 -0.2580 -0.6134 -0.7459
 7763TIP3    H244781   6.638   1.435  12.096  2.1808 -0.2397 -0.2838
 7764TIP3   OH244782   0.594   4.262   5.412  0.0621 -0.4676 -0.4637
 7764TIP3    H144783   0.610   4.314   5.491 -0.3125 -0.5277 -0.3438
 7764TIP3    H244784   0.653   4.187   5.420  0.1466 -0.3876 -0.3221
 7765TIP3   OH244785   3.420   6.410  13.567  0.4530  0.1290  0.3537
 7765TIP3    H144786   3.505   6.385  13.531  0.0731  0.9166 -1.1956
 7765TIP3    H244787   3.362   6.338  13.544 -0.0499  1.1264 -1.7689
 7766TIP3   OH244788   6.255   3.064   5.668  0.0660 -0.0575 -0.2087
 7766TIP3    H144789   6.286   3.154   5.671 -0.2190  0.0171  0.8678
 7766TIP3    H244790   6.262   3.039   5.576 -0.6477  1.3380 -0.6749
 7767TIP3   OH244791   2.962   4.786  15.322 -0.3115 -0.3864 -0.4042
 7767TIP3    H144792   2.907   4.864  15.316 -0.9278 -0.8804 -1.5557
 7767TIP3    H244793   3.013   4.785  15.241 -0.0971 -1.0077 -0.2698
 7768TIP3   OH244794   1.694   1.546   0.445  0.1147  0.1344  0.3196
 7768TIP3    H144795   1.625   1.604   0.412  0.2513  0.0955 -0.0296
 7768TIP3    H244796   1.660   1.514   0.529  0.7451  2.0853  1.4027
 7769TIP3   OH244797   4.140   3.180  14.103  0.0072 -0.1913  0.5982
 7769TIP3    H144798   4.227   3.213  14.080 -0.2613 -1.3569 -2.7101
 7769TIP3    H244799   4.080   3.240  14.060 -0.7226 -0.8754  0.6372
 7770TIP3   OH244800   2.840   5.234   0.839  0.4726 -0.0868  0.4298
 7770TIP3    H144801   2.769   5.176   0.865 -0.0894  1.0348  1.5218
 7770TIP3    H244802   2.914   5.176   0.822 -0.2643 -1.1581  0.8297
 7771TIP3   OH244803   5.593   1.860   3.502 -0.5518 -0.0649  0.0695
 7771TIP3    H144804   5.648   1.791   3.540 -0.5438  0.8816  1.8571
 7771TIP3    H244805   5.656   1.917   3.455 -0.2797 -0.1092  0.3773
 7772TIP3   OH244806   4.012   2.107  10.799 -0.3761 -0.5864  0.6856
 7772TIP3    H144807   4.037   2.028  10.848  1.1329  0.2111  1.2593
 7772TIP3    H244808   4.025   2.083  10.708  0.8823 -0.7635  0.8926
 7773TIP3   OH244809   4.791   1.258  14.655 -0.2945 -0.3338  0.3282
 7773TIP3    H144810   4.783   1.179  14.602 -1.2601  0.8017 -1.2927
 7773TIP3    H244811   4.859   1.310  14.612  0.0207 -0.0637  1.1241
 7774TIP3   OH244812   4.614   2.243   1.040  0.8199 -0.4159  0.3815
 7774TIP3    H144813   4.623   2.218   0.948 -2.5062  1.7835 -0.7257
 7774TIP3    H244814   4.543   2.188   1.073  0.8963 -0.0623  1.1562
 7775TIP3   OH244815   1.913   0.062  14.676 -0.3875  0.0081 -0.4681
 7775TIP3    H144816   1.830   0.109  14.685  0.0977  1.0178 -0.9514
 7775TIP3    H244817   1.892  -0.014  14.622 -1.5755 -1.4479  1.8953
 7776TIP3   OH244818   6.051   4.185  16.409 -0.7459  0.4804 -0.2341
 7776TIP3    H144819   6.058   4.246  16.482 -0.6370  1.3443 -0.9486
 7776TIP3    H244820   6.064   4.099  16.448  1.9996  1.0871  0.3800
 7777TIP3   OH244821   1.798   0.581  15.799 -0.9073  0.0083  0.1349
 7777TIP3    H144822   1.852   0.598  15.721  0.1631 -1.7921  0.4146
 7777TIP3    H244823   1.724   0.641  15.791 -0.2654  0.6230 -1.7060
 7778TIP3   OH244824   2.642   2.565  17.122  0.2050  0.2902  0.6549
 7778TIP3    H144825   2.695   2.503  17.172  1.2849 -0.3600 -1.1714
 7778TIP3    H244826   2.705   2.627  17.086  0.0245 -1.1761 -2.5296
 7779TIP3   OH244827   5.751   1.060  10.764  0.0816 -0.2535  0.1539
 7779TIP3    H144828   5.772   1.041  10.673 -1.1644 -1.4399  0.0756
 7779TIP3    H244829   5.738   1.155  10.766  0.7359 -0.1290 -0.7534
 7780TIP3   OH244830   3.511   3.994   5.152  0.1380  0.5195 -0.2804
 7780TIP3    H144831   3.484   4.085   5.152  2.1664  1.1811 -0.0103
 7780TIP3    H244832   3.578   3.988   5.084  0.3253 -0.6563 -0.0294
 7781TIP3   OH244833   4.505   1.472   4.856  0.2690 -0.0180 -0.1704
 7781TIP3    H144834   4.509   1.516   4.941  0.2507 -0.4686  0.0637
 7781TIP3    H244835   4.418   1.494   4.822 -0.7507 -1.9025  1.0587
 7782TIP3   OH244836   2.196   6.171   3.872 -0.0460  0.2926  0.2474
 7782TIP3    H144837   2.127   6.180   3.937 -1.5136  0.7034 -1.2878
 7782TIP3    H244838   2.243   6.254   3.875 -0.8092  0.7411  0.0302
 7783TIP3   OH244839   1.526   3.483   2.408 -0.4649  0.8703 -0.6491
 7783TIP3    H144840   1.438   3.455   2.433  0.0865  0.4167  0.9159
 7783TIP3    H244841   1.583   3.409   2.432  0.3816  1.2668 -1.3693
 7784TIP3   OH244842   2.117   1.599   1.888 -0.5251  0.4237 -0.1107
 7784TIP3    H144843   2.126   1.689   1.919  2.4314 -0.3988  1.7727
 7784TIP3    H244844   2.090   1.549   1.965  1.0092 -0.7514 -0.2790
 7785TIP3   OH244845   4.446   3.519  12.594  0.7516 -0.3593  0.4514
 7785TIP3    H144846   4.420   3.483  12.509 -0.2174 -0.0669  0.6088
 7785TIP3    H244847   4.542   3.517  12.593  0.7464 -0.5180 -0.5791
 7786TIP3   OH244848   6.720   0.501   2.956  0.0644  0.0563  0.2951
 7786TIP3    H144849   6.698   0.576   3.012 -1.5661 -0.8410  0.9285
 7786TIP3    H244850   6.663   0.511   2.880 -0.2652 -0.5796  0.4467
 7787TIP3   OH244851   4.148   4.467   5.177 -0.6464 -0.0799 -0.0018
 7787TIP3    H144852   4.198   4.545   5.153 -0.1459 -0.7742 -1.3535
 7787TIP3    H244853   4.214   4.400   5.190 -1.0115 -0.0982  2.0333
 7788TIP3   OH244854   5.995   0.718   0.642  0.3640 -0.0785 -1.0150
 7788TIP3    H144855   6.057   0.789   0.662  0.9980 -0.6556 -0.8865
 7788TIP3    H244856   6.032   0.642   0.687 -0.7354 -0.3135 -0.4877
 7789TIP3   OH244857   3.704   2.190  15.763  0.3629 -0.0649 -0.2946
 7789TIP3    H144858   3.740   2.148  15.684  1.6533  0.3778  0.0381
 7789TIP3    H244859   3.753   2.272  15.770  0.2606 -0.1047  0.9720
 7790TIP3   OH244860   3.983   5.606   1.102 -0.2058  0.2747  0.2196
 7790TIP3    H144861   4.008   5.656   1.024  0.3003  0.8372  0.7246
 7790TIP3    H244862   3.888   5.597   1.095  0.0970 -2.6976 -2.2160
 7791TIP3   OH244863   1.836   0.072   5.449 -0.9439  0.8030  0.0713
 7791TIP3    H144864   1.819   0.135   5.378  0.1709  1.3990  0.3035
 7791TIP3    H244865   1.893   0.006   5.409 -1.2843  0.4899  0.1000
 7792TIP3   OH244866   0.619   6.232  11.850  0.0230 -0.3730  0.5790
 7792TIP3    H144867   0.715   6.235  11.858  0.1539  0.5528 -0.9669
 7792TIP3    H244868   0.594   6.323  11.834 -0.7619 -0.9964 -2.3153
 7793TIP3   OH244869   6.478   1.137   3.995  0.1304 -0.6969  0.2344
 7793TIP3    H144870   6.455   1.100   4.080  0.3264  0.8377  0.9987
 7793TIP3    H244871   6.432   1.221   3.992  2.4259  0.6444  0.1332
 7794TIP3   OH244872   4.130   4.693  11.556 -0.2967 -0.1346  0.5474
 7794TIP3    H144873   4.117   4.613  11.505  1.0394 -0.1777  0.2317
 7794TIP3    H244874   4.180   4.750  11.498 -0.2862  0.5081  1.1751
 7795TIP3   OH244875   4.434   4.930   2.089  0.0821  0.1170 -0.7457
 7795TIP3    H144876   4.497   4.998   2.064 -0.8826  0.3662 -2.7112
 7795TIP3    H244877   4.473   4.849   2.058 -0.2156  0.1770 -1.2805
 7796TIP3   OH244878   4.556   0.361  16.348 -0.2498 -0.2822 -0.5425
 7796TIP3    H144879   4.480   0.404  16.386  0.6875  0.7180  0.2703
 7796TIP3    H244880   4.594   0.427  16.290  2.3025  0.8647  2.1564
 7797TIP3   OH244881   1.387   3.262  14.641 -0.1122 -0.1367  0.2664
 7797TIP3    H144882   1.454   3.233  14.702  0.6652 -1.0309 -0.9648
 7797TIP3    H244883   1.427   3.252  14.555 -1.2141  0.9672 -0.4115
 7798TIP3   OH244884   2.680   4.620  12.514  0.2417  0.0725 -0.1071
 7798TIP3    H144885   2.613   4.634  12.447 -0.8350 -1.4892  0.6115
 7798TIP3    H244886   2.672   4.696  12.572 -0.1907  0.4149 -0.6013
 7799TIP3   OH244887   2.320   5.555   1.839 -0.4780 -1.5409  0.0459
 7799TIP3    H144888   2.307   5.619   1.909  1.7790 -0.9928  0.0280
 7799TIP3    H244889   2.232   5.526   1.817 -1.3669 -0.4775  1.9460
 7800TIP3   OH244890   1.070   0.285  15.696  0.2099 -0.2970 -0.1888
 7800TIP3    H144891   1.054   0.317  15.607  1.2415  2.4211  0.4922
 7800TIP3    H244892   1.138   0.219  15.686 -2.0432 -2.5788 -1.6943
 7801TIP3   OH244893   0.932   0.714   3.402 -0.3245  0.1346 -0.4760
 7801TIP3    H144894   0.912   0.699   3.309  3.7222 -2.8204 -1.1722
 7801TIP3    H244895   0.886   0.644   3.448 -0.5609  0.2393 -0.5531
 7802TIP3   OH244896   6.011   4.347  13.953 -0.2986 -0.1196  0.0595
 7802TIP3    H144897   5.918   4.324  13.947 -0.1834 -0.3617 -0.7756
 7802TIP3    H244898   6.052   4.303  13.880  1.0116 -2.5458  2.0965
 7803TIP3   OH244899   5.325   3.711   2.908  0.1936 -0.2127 -0.1376
 7803TIP3    H144900   5.376   3.697   2.988  0.3180 -1.8370 -0.4695
 7803TIP3    H244901   5.301   3.623   2.879 -0.8553  0.4074 -1.2534
 7804TIP3   OH244902   0.367   1.262  11.353  0.3768  0.5161  0.2284
 7804TIP3    H144903   0.377   1.273  11.448  4.8796  1.6662 -0.1338
 7804TIP3    H244904   0.360   1.167  11.341 -2.8364  0.4289  1.6831
 7805TIP3   OH244905   2.350   6.725  15.693 -0.4675  0.4033 -0.1427
 7805TIP3    H144906   2.382   6.672  15.765  2.0178  0.3463 -1.1825
 7805TIP3    H244907   2.290   6.668  15.645 -0.1274 -0.4276  0.4076
 7806TIP3   OH244908   4.500   0.439   2.591 -0.1726 -0.6742  0.0050
 7806TIP3    H144909   4.525   0.452   2.683  0.2373  2.3162 -0.4240
 7806TIP3    H244910   4.526   0.349   2.572  1.8447 -0.6640  2.2105
 7807TIP3   OH244911   5.918   2.388  11.191  0.0623 -0.1299 -0.2871
 7807TIP3    H144912   5.982   2.455  11.216 -0.1292 -0.1871  0.3694
 7807TIP3    H244913   5.867   2.372  11.271  0.0644 -1.0182 -0.4527
 7808TIP3   OH244914   6.429   6.771   0.872 -0.3278  0.3713  0.4099
 7808TIP3    H144915   6.460   6.681   0.879  1.5870  0.8828 -0.7262
 7808TIP3    H244916   6.436   6.806   0.961  1.8271  0.2343  0.3427
 7809TIP3   OH244917   5.912   1.795  14.658 -0.2059 -0.2906 -0.7548
 7809TIP3    H144918   5.917   1.794  14.562  0.2424  0.6964 -0.7567
 7809TIP3    H244919   5.878   1.882  14.679  1.3681  0.1684  0.0304
 7810TIP3   OH244920   0.970   1.491  15.319 -0.3221  0.0715 -0.2364
 7810TIP3    H144921   0.998   1.583  15.320 -0.1363  0.0113  0.9595
 7810TIP3    H244922   1.029   1.450  15.255 -1.2101  0.9949 -1.7274
 7811TIP3   OH244923   2.902   4.239   4.711 -0.0584  0.3291 -0.3058
 7811TIP3    H144924   2.828   4.287   4.675  0.7180  0.8996 -1.1851
 7811TIP3    H244925   2.923   4.284   4.793 -1.2361 -0.3902  0.4132
 7812TIP3   OH244926   3.496   4.863   5.118  0.3899  0.3252  0.4255
 7812TIP3    H144927   3.413   4.839   5.077  1.0551  0.2168 -0.8852
 7812TIP3    H244928   3.472   4.925   5.186 -0.5882  1.9805 -1.3472
 7813TIP3   OH244929   2.192   0.309  12.674  0.2824 -0.1627 -0.0967
 7813TIP3    H144930   2.249   0.300  12.751 -1.3428  0.5110  1.2669
 7813TIP3    H244931   2.195   0.402  12.652  0.1450 -0.2184 -0.3598
 7814TIP3   OH244932   2.069   6.752   3.249  0.2950  0.0584  0.4111
 7814TIP3    H144933   2.031   6.665   3.234  0.6486 -0.1463  0.6977
 7814TIP3    H244934   2.160   6.735   3.273 -0.2924  0.3208  3.1408
 7815TIP3   OH244935   6.427   0.274   2.752  0.0032 -1.1123 -0.2264
 7815TIP3    H144936   6.455   0.215   2.682  0.0181 -2.0571  0.5498
 7815TIP3    H244937   6.332   0.277   2.744  0.1046  0.1001 -1.2951
 7816TIP3   OH244938   4.624   6.338   0.062  0.2121  0.3420  0.0189
 7816TIP3    H144939   4.620   6.424   0.104 -0.1894 -0.3086  1.3743
 7816TIP3    H244940   4.718   6.320   0.053  0.3110  1.4077 -1.3657
 7817TIP3   OH244941   5.130   1.350   3.126 -0.2022 -0.0021 -0.9135
 7817TIP3    H144942   5.084   1.423   3.167 -0.8758  0.1824 -1.9550
 7817TIP3    H244943   5.201   1.391   3.077  0.2997 -0.1759 -0.3357
 7818TIP3   OH244944   1.450   3.933  12.712 -0.0935  0.1500 -0.1446
 7818TIP3    H144945   1.413   3.858  12.665  1.0310 -0.6602  0.2030
 7818TIP3    H244946   1.376   3.973  12.757 -0.5136 -1.6108  0.8172
 7819TIP3   OH244947   4.418   5.466   0.032 -0.6390  0.0480  0.8730
 7819TIP3    H144948   4.339   5.492   0.078 -1.3113 -0.4066  0.0072
 7819TIP3    H244949   4.489   5.507   0.081 -1.4055  0.4814  1.6501
 7820TIP3   OH244950   3.708   4.556   0.019 -0.0962  0.2671 -0.4291
 7820TIP3    H144951   3.783   4.610   0.042  0.3388  0.2165 -1.6294
 7820TIP3    H244952   3.641   4.619  -0.009 -0.5911  0.3240  0.8296
 7821TIP3   OH244953   5.244   2.938   2.175 -0.2750 -0.0937 -1.4283
 7821TIP3    H144954   5.258   2.849   2.208  0.9389  0.4228 -0.5256
 7821TIP3    H244955   5.327   2.963   2.136 -0.2828  1.0327 -0.7527
 7822TIP3   OH244956   1.958   3.697   6.379 -0.7411 -0.1192 -0.3315
 7822TIP3    H144957   1.976   3.635   6.308  0.6270  0.3403 -0.4173
 7822TIP3    H244958   2.028   3.762   6.371  1.8155 -1.9745  3.6686
 7823TIP3   OH244959   6.191   1.121  16.427 -0.4053 -0.6623 -0.0078
 7823TIP3    H144960   6.237   1.197  16.463 -4.0142  1.4424  0.6498
 7823TIP3    H244961   6.158   1.150  16.342  0.4766 -2.5350 -1.0545
 7824TIP3   OH244962   3.104   0.385  14.192 -0.2925  0.4235  0.3455
 7824TIP3    H144963   3.117   0.388  14.286 -0.7441  2.5361  0.3851
 7824TIP3    H244964   3.187   0.353  14.157 -0.8209 -2.5070  1.5281
 7825TIP3   OH244965   3.319   0.136  16.090  0.0381 -0.4831  0.1960
 7825TIP3    H144966   3.263   0.146  16.013  2.7671  0.7153 -1.7758
 7825TIP3    H244967   3.336   0.042  16.096 -0.5499 -0.6318 -0.3728
 7826TIP3   OH244968   2.665   2.489  13.442 -0.5455 -0.4683  0.0357
 7826TIP3    H144969   2.751   2.448  13.432 -0.8916 -1.0125 -0.8274
 7826TIP3    H244970   2.681   2.582  13.428 -0.2370 -0.6715 -1.0309
 7827TIP3   OH244971   2.469   1.478  15.137  0.1849 -0.0826  0.1639
 7827TIP3    H144972   2.400   1.445  15.080  0.4282 -0.8671  0.3182
 7827TIP3    H244973   2.528   1.526  15.078  0.2160 -0.5398 -0.1798
 7828TIP3   OH244974   6.794   0.884   2.106 -0.4112  0.1951 -0.2382
 7828TIP3    H144975   6.824   0.906   2.194 -0.6773  1.3133 -0.4019
 7828TIP3    H244976   6.870   0.898   2.050  0.1780 -1.8944 -0.0452
 7829TIP3   OH244977   0.173   6.330  11.395  0.2801 -1.0037  0.2345
 7829TIP3    H144978   0.081   6.339  11.369  0.5104  2.7117  0.1722
 7829TIP3    H244979   0.177   6.366  11.484  1.8897  0.6438 -0.4375
 7830TIP3   OH244980   6.485   5.329   2.170 -0.0097 -0.5417 -0.0073
 7830TIP3    H144981   6.541   5.253   2.157  0.5172 -0.1797  0.1043
 7830TIP3    H244982   6.535   5.386   2.229 -1.3984 -1.1750  1.8693
 7831TIP3   OH244983   2.338   3.636   4.851 -0.1450  0.4943 -0.1016
 7831TIP3    H144984   2.306   3.725   4.862 -3.3271 -0.5519 -0.0454
 7831TIP3    H244985   2.260   3.583   4.839  1.5687 -2.4415  0.6532
 7832TIP3   OH244986   3.177   2.925   0.302  0.2019  0.1783 -0.2855
 7832TIP3    H144987   3.097   2.978   0.299  0.6792  0.8864 -0.7462
 7832TIP3    H244988   3.248   2.988   0.302  0.7850 -0.4577 -0.8320
 7833TIP3   OH244989   5.750   0.533   2.287 -0.2871 -0.0859 -0.7673
 7833TIP3    H144990   5.698   0.530   2.368 -0.7999 -0.1337 -1.0916
 7833TIP3    H244991   5.729   0.451   2.242 -0.2817  0.1010 -1.1147
 7834TIP3   OH244992   5.910   6.289   0.614 -0.2492 -0.1654 -0.3733
 7834TIP3    H144993   5.966   6.261   0.687 -0.1334  0.4706 -0.2071
 7834TIP3    H244994   5.961   6.270   0.536 -0.0630 -0.1796 -0.2489
 7835TIP3   OH244995   5.209   0.843  11.765 -0.4270 -0.1479 -0.4424
 7835TIP3    H144996   5.227   0.760  11.721 -0.9925 -0.1870 -0.6060
 7835TIP3    H244997   5.178   0.901  11.696 -1.4176 -0.2427 -0.0977
 7836TIP3   OH244998   5.405   4.795   3.311 -0.1002 -0.4645  0.0266
 7836TIP3    H144999   5.400   4.861   3.241  4.2458  1.0896  0.8529
 7836TIP3    H245000   5.419   4.712   3.265  1.3661  0.3314 -1.0376
 7837TIP3   OH245001   1.944   2.561  11.635 -0.5008  0.2544 -0.5080
 7837TIP3    H145002   1.849   2.568  11.645 -0.6973 -0.7008 -1.5138
 7837TIP3    H245003   1.959   2.572  11.542  0.2719 -0.7265 -0.5068
 7838TIP3   OH245004   2.169   1.556  11.412  0.2073 -0.3637  0.3286
 7838TIP3    H145005   2.204   1.587  11.329  0.9254 -1.6627  0.1080
 7838TIP3    H245006   2.193   1.623  11.476  2.5455 -0.8560  0.0569
 7839TIP3   OH245007   1.535   2.382   2.365 -0.3155  0.1957  0.6839
 7839TIP3    H145008   1.592   2.311   2.338  0.1608  0.1713  1.7096
 7839TIP3    H245009   1.515   2.364   2.457 -2.6741 -0.2568  0.1437
 7840TIP3   OH245010   3.711   4.842  14.481  0.4129 -0.6531  0.1441
 7840TIP3    H145011   3.699   4.771  14.418 -0.6300  0.3777 -0.8895
 7840TIP3    H245012   3.679   4.806  14.563 -0.8559 -1.1490 -0.5327
 7841TIP3   OH245013   2.997   0.918  11.055  0.1423  0.3132  0.0510
 7841TIP3    H145014   3.057   0.867  11.001 -0.6478 -2.7385  1.8135
 7841TIP3    H245015   3.055   0.966  11.115  0.9732 -1.8436  1.0926
 7842TIP3   OH245016   1.861   4.875   1.813  0.2529  0.2433 -0.4253
 7842TIP3    H145017   1.806   4.830   1.877  0.8901  1.1581  0.7928
 7842TIP3    H245018   1.936   4.817   1.800  0.2281  0.1588 -0.1849
 7843TIP3   OH245019   2.801   5.466  11.777 -0.0732 -0.1760 -0.3007
 7843TIP3    H145020   2.748   5.386  11.771 -0.6775  0.1564  0.3917
 7843TIP3    H245021   2.750   5.524  11.834  0.3436  0.7157 -0.8221
 7844TIP3   OH245022   2.170   1.822   2.051  0.4734 -0.0377  0.1790
 7844TIP3    H145023   2.230   1.892   2.028  0.1598  0.6974  1.5085
 7844TIP3    H245024   2.205   1.786   2.132  0.8476 -1.7064 -0.6849
 7845TIP3   OH245025   3.161   2.047  11.961 -0.4027  0.5955 -0.0230
 7845TIP3    H145026   3.146   2.004  12.045  0.3123  0.7347  0.1775
 7845TIP3    H245027   3.077   2.088  11.940 -0.2796  1.4962  1.1563
 7846TIP3   OH245028   6.779   4.761   6.294  0.3931  0.0670 -0.2470
 7846TIP3    H145029   6.746   4.785   6.380  0.9143  1.0446 -0.3100
 7846TIP3    H245030   6.703   4.723   6.249  0.4481 -1.7347  1.0883
 7847TIP3   OH245031   3.833   1.072   2.755  0.1898  0.0933 -0.1017
 7847TIP3    H145032   3.927   1.054   2.752  0.3190  0.5873  0.7034
 7847TIP3    H245033   3.793   0.988   2.775  0.4906 -0.0418 -0.0597
 7848TIP3   OH245034   0.010   4.321  10.695 -0.1349  0.2096 -0.3003
 7848TIP3    H145035  -0.069   4.369  10.721  0.5407  0.9042  0.5295
 7848TIP3    H245036   0.021   4.254  10.763 -0.5932 -0.5920 -0.9948
 7849TIP3   OH245037   6.729   0.505   0.820 -0.5356 -0.5385 -0.7040
 7849TIP3    H145038   6.808   0.553   0.795 -0.9320  0.5029 -0.0541
 7849TIP3    H245039   6.735   0.422   0.773 -0.6752  0.8278 -3.2947
 7850TIP3   OH245040   1.738   3.585  14.716 -0.5296 -0.2481  0.1430
 7850TIP3    H145041   1.799   3.626  14.654  0.3529  0.2325  1.2913
 7850TIP3    H245042   1.657   3.635  14.708 -0.3558 -0.0629 -0.4773
 7851TIP3   OH245043   0.202   1.534  11.834 -0.0768  0.0573 -0.0053
 7851TIP3    H145044   0.162   1.608  11.881 -1.8286 -0.2584 -0.9158
 7851TIP3    H245045   0.218   1.469  11.902  0.3713  0.7986  0.6190
 7852TIP3   OH245046   2.852   3.694  14.815 -0.2801  0.0513  0.2241
 7852TIP3    H145047   2.912   3.619  14.815  0.1227  0.3426 -1.2621
 7852TIP3    H245048   2.861   3.732  14.727 -0.9052  1.4990  0.7550
 7853TIP3   OH245049   4.657   4.537   1.227 -0.2727 -0.7880  0.0877
 7853TIP3    H145050   4.599   4.613   1.226  0.4046 -0.2530  0.5698
 7853TIP3    H245051   4.623   4.482   1.296 -0.9117 -1.0446 -0.4230
 7854TIP3   OH245052   5.425   6.610   6.500  0.2215  0.0728  0.5144
 7854TIP3    H145053   5.430   6.524   6.458  0.9229  0.4115 -0.1268
 7854TIP3    H245054   5.340   6.610   6.544  0.1254 -0.8698  0.3571
 7855TIP3   OH245055   2.126   0.235   5.438  0.5499  0.1915 -0.4031
 7855TIP3    H145056   2.137   0.206   5.348 -3.1114 -1.0303 -0.6196
 7855TIP3    H245057   2.089   0.159   5.484  1.6340  1.0051  1.9828
 7856TIP3   OH245058   0.828   2.922   2.195  0.1134 -0.3196  0.4274
 7856TIP3    H145059   0.884   2.901   2.270 -1.0385 -0.7881  1.1970
 7856TIP3    H245060   0.804   2.836   2.159 -1.2673 -0.2126  1.0207
 7857TIP3   OH245061   0.799   3.034   4.807  0.1806  0.3932 -0.4385
 7857TIP3    H145062   0.885   3.001   4.836  0.1537 -0.8967 -1.7419
 7857TIP3    H245063   0.784   3.111   4.862  1.1560 -0.6330  1.3672
 7858TIP3   OH245064   5.379   5.035  14.325  0.6102 -0.0381 -0.3211
 7858TIP3    H145065   5.362   5.033  14.230  0.5802  0.6499 -0.3358
 7858TIP3    H245066   5.316   4.973  14.361  0.2033  0.1411 -0.6998
 7859TIP3   OH245067   6.567   4.714   5.181  0.2023 -0.0009 -1.0142
 7859TIP3    H145068   6.629   4.674   5.241  1.2578 -0.2780 -2.2302
 7859TIP3    H245069   6.621   4.744   5.108 -1.2065 -1.3394 -2.6989
 7860TIP3   OH245070   5.949   3.560   0.278  0.2921 -0.1105 -0.2316
 7860TIP3    H145071   6.004   3.555   0.356 -0.2839 -2.4199  0.1140
 7860TIP3    H245072   5.875   3.503   0.297 -0.8698  0.8100 -1.7273
 7861TIP3   OH245073   4.337   4.002   2.945 -0.5176  0.0994 -0.8693
 7861TIP3    H145074   4.302   4.089   2.963  1.0684  1.0200 -2.0206
 7861TIP3    H245075   4.406   3.989   3.010 -0.8990 -0.4212 -0.5553
 7862TIP3   OH245076   1.186   4.154  12.594  0.3883 -0.0423 -0.4223
 7862TIP3    H145077   1.277   4.126  12.597  0.2772 -0.3513  0.1016
 7862TIP3    H245078   1.152   4.138  12.682  0.1478  1.1724 -0.2717
 7863TIP3   OH245079   0.919   6.683  11.100  0.7148  0.2852 -0.5989
 7863TIP3    H145080   0.937   6.648  11.013 -0.0785  0.0666 -0.6736
 7863TIP3    H245081   0.926   6.608  11.159  1.1186  0.4084 -0.4838
 7864TIP3   OH245082   0.177   0.104   4.969  0.6215  0.2842 -0.2127
 7864TIP3    H145083   0.213   0.064   5.048  1.1606 -0.1791 -0.6816
 7864TIP3    H245084   0.113   0.040   4.936  2.9049 -1.2482 -2.0754
 7865TIP3   OH245085   2.214   6.213   2.349  0.0774 -0.2442 -0.0746
 7865TIP3    H145086   2.224   6.218   2.254 -0.8289 -0.3619 -0.1871
 7865TIP3    H245087   2.198   6.304   2.375  1.6869  0.0005  0.1500
 7866TIP3   OH245088   1.969   4.465   2.141 -0.0350 -0.6589 -0.3935
 7866TIP3    H145089   1.951   4.539   2.198 -1.0496 -1.2985  0.1312
 7866TIP3    H245090   1.883   4.435   2.112  0.1088 -3.3264  1.5775
 7867TIP3   OH245091   2.025   1.994  13.761 -1.1036  0.9727  0.8769
 7867TIP3    H145092   2.102   2.002  13.705 -1.6786 -0.0417 -0.0868
 7867TIP3    H245093   1.991   2.083  13.769  0.1804  1.4476  1.3641
 7868TIP3   OH245094   6.175   3.817  11.494  0.2170 -0.7058 -0.0703
 7868TIP3    H145095   6.155   3.874  11.419  2.4789 -1.5042 -1.3967
 7868TIP3    H245096   6.157   3.729  11.462  1.1610 -1.0516  0.3231
 7869TIP3   OH245097   4.767   2.471  13.963  0.2062  0.5059 -0.3839
 7869TIP3    H145098   4.814   2.523  14.029 -0.7588  0.7608  0.1165
 7869TIP3    H245099   4.777   2.381  13.993 -0.1256  0.6105  0.0514
 7870TIP3   OH245100   6.153   0.968   2.034 -0.2512  0.3355 -0.0932
 7870TIP3    H145101   6.221   0.988   2.098  0.1662  2.5402 -1.1209
 7870TIP3    H245102   6.144   0.873   2.038  1.7423  0.1284  1.2263
 7871TIP3   OH245103   2.414   5.896   4.617 -0.1106  0.0652 -0.2207
 7871TIP3    H145104   2.476   5.862   4.553 -0.5721 -0.5584 -0.3485
 7871TIP3    H245105   2.435   5.849   4.698  0.4717  0.8516  0.0947
 7872TIP3   OH245106   1.038   0.294   0.777  0.6517 -0.2385  0.0027
 7872TIP3    H145107   0.999   0.221   0.824 -1.5845 -1.2187 -3.0508
 7872TIP3    H245108   0.964   0.349   0.752  2.0649  1.9601  0.3475
 7873TIP3   OH245109   3.075   4.714  12.101  0.2818  0.3102 -0.6457
 7873TIP3    H145110   3.168   4.717  12.126  0.2273  1.7996 -0.5410
 7873TIP3    H245111   3.033   4.668  12.173  0.5152  2.3299  0.8694
 7874TIP3   OH245112   4.957   0.851  17.023 -0.0222 -0.0169 -0.4434
 7874TIP3    H145113   4.912   0.769  17.037 -1.7476  1.2240  2.1344
 7874TIP3    H245114   5.016   0.859  17.098 -0.0586  1.1834 -0.5168
 7875TIP3   OH245115   2.229   1.740   3.532 -0.4733 -0.0017  0.4169
 7875TIP3    H145116   2.235   1.670   3.597 -0.4887 -1.7702 -1.3638
 7875TIP3    H245117   2.151   1.789   3.557 -1.8738 -2.0868  0.4654
 7876TIP3   OH245118   1.357   5.993  13.628 -0.9526  0.7144  0.3047
 7876TIP3    H145119   1.372   6.083  13.657  0.5560 -0.1223  2.4235
 7876TIP3    H245120   1.362   5.997  13.533  1.5619  2.5459  0.4011
 7877TIP3   OH245121   4.715   1.602   2.970  0.7120 -0.6638  0.7996
 7877TIP3    H145122   4.653   1.553   3.023 -2.0322  0.7697 -0.8200
 7877TIP3    H245123   4.726   1.549   2.891  1.6983 -0.9588  1.1201
 7878TIP3   OH245124   6.809   0.519  13.827  0.6142  0.3141 -0.2973
 7878TIP3    H145125   6.733   0.533  13.771 -0.2458  1.2201  1.0241
 7878TIP3    H245126   6.772   0.508  13.915  1.9735  0.0650  0.2720
 7879TIP3   OH245127   0.401   3.112  16.328 -0.3291  0.2692  0.0372
 7879TIP3    H145128   0.422   3.192  16.375  0.9169  0.7420 -1.2298
 7879TIP3    H245129   0.430   3.129  16.238  0.8827 -1.9184 -0.0678
 7880TIP3   OH245130   4.091   4.290   5.829  0.3676  0.6009 -0.4328
 7880TIP3    H145131   4.007   4.271   5.787  0.3835  1.7326 -0.9997
 7880TIP3    H245132   4.083   4.380   5.859  2.0111  1.3679 -2.1069
 7881TIP3   OH245133   1.276   2.714   4.267  0.0475  0.1830 -0.1928
 7881TIP3    H145134   1.224   2.795   4.268 -0.0167  0.1778 -1.7403
 7881TIP3    H245135   1.323   2.716   4.184  0.8065 -0.9101  0.1836
 7882TIP3   OH245136   3.351   1.354   3.273  0.6434 -0.1496  0.1521
 7882TIP3    H145137   3.327   1.305   3.351  0.3642 -0.6291 -0.2274
 7882TIP3    H245138   3.278   1.413   3.258  1.0568  0.5099  0.7077
 7883TIP3   OH245139   6.088   2.276   2.253 -0.3456  0.4273  0.1481
 7883TIP3    H145140   6.141   2.345   2.294 -0.9686  0.0074  1.7422
 7883TIP3    H245141   6.012   2.267   2.312 -0.6809 -1.0472 -0.4836
 7884TIP3   OH245142   2.394   1.547  12.702 -0.1667 -0.0888 -0.3956
 7884TIP3    H145143   2.466   1.486  12.688  0.8788  1.2053 -0.8875
 7884TIP3    H245144   2.388   1.557  12.797 -0.1084 -0.6656 -0.3317
 7885TIP3   OH245145   6.273   2.141   2.993  0.6197 -0.6444  0.0081
 7885TIP3    H145146   6.225   2.058   2.983 -0.5330  0.1859 -1.8200
 7885TIP3    H245147   6.320   2.152   2.910  0.9034  0.4481  0.3002
 7886TIP3   OH245148   1.661   3.463   3.809 -0.5295 -0.1190  0.3752
 7886TIP3    H145149   1.600   3.535   3.793 -0.9656 -0.0287  2.2157
 7886TIP3    H245150   1.720   3.497   3.876  0.1582 -0.9869  0.2199
 7887TIP3   OH245151   2.514   0.455  16.414  0.9296  0.3629  0.0279
 7887TIP3    H145152   2.448   0.402  16.459 -0.9029 -0.8200 -3.6611
 7887TIP3    H245153   2.476   0.542  16.410 -0.2499 -0.2012 -1.6493
 7888TIP3   OH245154   6.166   6.687   1.786  0.0573 -0.3030  0.1483
 7888TIP3    H145155   6.218   6.761   1.754  1.3258 -1.4286 -0.5142
 7888TIP3    H245156   6.231   6.624   1.816 -0.9684 -1.4604  0.0132
 7889TIP3   OH245157   2.830   0.026  13.426  0.2155  0.2575 -1.1506
 7889TIP3    H145158   2.872   0.021  13.512  0.6462 -0.8037 -1.4024
 7889TIP3    H245159   2.737   0.034  13.444  0.2384 -0.7078 -0.5822
 7890TIP3   OH245160   4.473   3.742  11.323  0.0955 -0.2794 -0.2451
 7890TIP3    H145161   4.479   3.647  11.315  1.5113 -0.1960 -0.4385
 7890TIP3    H245162   4.562   3.773  11.306 -0.0439  0.9863  1.1127
 7891TIP3   OH245163   5.429   6.111  16.219  0.2600 -0.0174 -0.3283
 7891TIP3    H145164   5.475   6.049  16.162  0.7329  0.9055 -0.9928
 7891TIP3    H245165   5.378   6.166  16.159 -0.3902  0.0448  0.2705
 7892TIP3   OH245166   5.435   6.264   0.179  0.2892 -0.1681  0.0540
 7892TIP3    H145167   5.374   6.216   0.234 -0.3671  0.0376 -0.4775
 7892TIP3    H245168   5.432   6.354   0.213  2.0143 -0.6052  1.4733
 7893TIP3   OH245169   0.557   6.333  11.546 -0.0519 -0.2799 -0.3894
 7893TIP3    H145170   0.553   6.356  11.453  0.9329  0.6893 -0.2138
 7893TIP3    H245171   0.605   6.405  11.586 -2.3558  0.4708  1.2652
 7894TIP3   OH245172   2.682   1.328  12.955 -0.6183 -0.1861 -0.1859
 7894TIP3    H145173   2.739   1.265  12.911  0.1464  1.5003 -1.7449
 7894TIP3    H245174   2.593   1.297  12.939 -0.2501 -1.0157 -0.6619
 7895TIP3   OH245175   2.486   2.967   3.405 -0.7722  0.1884  0.3638
 7895TIP3    H145176   2.457   2.939   3.492 -1.5326  2.4853  0.9141
 7895TIP3    H245177   2.475   3.062   3.406 -2.9020  0.1300 -2.9997
 7896TIP3   OH245178   4.794   0.777   1.521 -0.4205  0.4144  0.6580
 7896TIP3    H145179   4.858   0.757   1.452 -1.1081 -0.6489  0.3001
 7896TIP3    H245180   4.712   0.739   1.488 -0.9225  0.5673  1.7215
 7897TIP3   OH245181   4.387   0.363   4.223 -0.1825  0.1882  0.5261
 7897TIP3    H145182   4.379   0.453   4.255  1.4877  0.4473  0.3080
 7897TIP3    H245183   4.479   0.354   4.200 -0.6666 -1.0221 -1.1481
 7898TIP3   OH245184   2.479   4.408   3.225 -0.8465 -0.3060 -0.0046
 7898TIP3    H145185   2.573   4.396   3.238 -0.8987 -0.4837  0.2059
 7898TIP3    H245186   2.442   4.404   3.313 -0.9804  0.3655 -0.0241
 7899TIP3   OH245187   5.252   6.433  12.873  0.1236 -0.5052 -0.5826
 7899TIP3    H145188   5.274   6.483  12.794 -2.5734 -0.6267 -1.5289
 7899TIP3    H245189   5.247   6.498  12.942  0.0340  0.0084 -1.0627
 7900TIP3   OH245190   6.226   5.737   0.447 -0.3461 -0.0172  0.0700
 7900TIP3    H145191   6.175   5.677   0.392  1.5926 -1.4274 -0.2804
 7900TIP3    H245192   6.317   5.719   0.425  0.3512  2.9044  0.1833
 7901TIP3   OH245193   1.253   2.358  13.404  0.3677  0.5649  0.3076
 7901TIP3    H145194   1.176   2.355  13.347  0.2544  3.8124  0.0995
 7901TIP3    H245195   1.219   2.335  13.490 -0.4955  0.3799 -0.0646
 7902TIP3   OH245196   3.480   5.787  13.923 -0.3167 -0.3404 -0.0437
 7902TIP3    H145197   3.527   5.798  13.840 -1.4906  0.2792 -0.6568
 7902TIP3    H245198   3.541   5.817  13.990  0.7018 -0.9892 -0.6670
 7903TIP3   OH245199   2.568   0.647  12.393 -0.0658 -1.4167 -0.6240
 7903TIP3    H145200   2.521   0.565  12.403 -1.1747 -0.5146  3.0353
 7903TIP3    H245201   2.500   0.713  12.382  0.6647 -0.6609 -0.7435
 7904TIP3   OH245202   4.556   0.300   1.085  0.1176 -0.5090 -0.0811
 7904TIP3    H145203   4.584   0.375   1.138  0.5171  2.2600 -3.7586
 7904TIP3    H245204   4.620   0.231   1.105 -0.3742 -0.0777  3.6110
 7905TIP3   OH245205   0.847   0.358  17.125 -0.1341 -0.1439 -0.1460
 7905TIP3    H145206   0.816   0.302  17.197 -0.2113  0.8045  0.5871
 7905TIP3    H245207   0.815   0.316  17.046 -0.7087 -0.8011  0.4241
 7906TIP3   OH245208   5.576   4.851  15.948 -0.1127 -0.3297  0.3435
 7906TIP3    H145209   5.546   4.766  15.981 -1.2997  0.4027  1.2149
 7906TIP3    H245210   5.607   4.897  16.026  0.3329  0.1202 -0.0946
 7907TIP3   OH245211   2.279   2.930   3.664 -0.1123  0.1676  0.2695
 7907TIP3    H145212   2.363   2.944   3.708 -0.3154 -1.3541  1.2025
 7907TIP3    H245213   2.220   2.992   3.706 -0.2925 -1.2243  2.2081
 7908TIP3   OH245214   1.140   2.321  14.115 -0.8568  0.1021 -0.5570
 7908TIP3    H145215   1.053   2.302  14.151  0.2854  1.2106  3.1821
 7908TIP3    H245216   1.177   2.234  14.097 -1.8642 -0.4805  0.0478
 7909TIP3   OH245217   2.040   6.415  13.408 -0.1194  0.4351 -0.4365
 7909TIP3    H145218   2.025   6.491  13.352  0.3642  0.2725 -0.7900
 7909TIP3    H245219   1.985   6.431  13.485 -1.3169  0.3359 -1.2540
 7910TIP3   OH245220   3.734   1.269  12.977 -0.2647 -0.7732 -0.2397
 7910TIP3    H145221   3.656   1.296  12.928  1.0782 -1.1243 -2.7587
 7910TIP3    H245222   3.780   1.210  12.917  1.8273 -0.7365  1.2354
 7911TIP3   OH245223   4.390   2.851   4.297  0.6404  0.6015  0.2654
 7911TIP3    H145224   4.457   2.914   4.327  0.3296  0.4288  1.3972
 7911TIP3    H245225   4.307   2.896   4.314  0.4597  0.7457 -0.9717
 7912TIP3   OH245226   1.602   0.929   5.477  0.8343  0.3687  0.3637
 7912TIP3    H145227   1.617   0.905   5.568  1.0267 -0.8510  0.0310
 7912TIP3    H245228   1.566   1.018   5.481 -1.9798 -0.6798  1.8375
 7913TIP3   OH245229   3.913   5.426   5.247  0.3895 -0.2890  0.1141
 7913TIP3    H145230   3.879   5.500   5.197 -0.9539 -1.2432 -0.4696
 7913TIP3    H245231   3.930   5.462   5.334 -0.5837  0.6449 -0.0510
 7914TIP3   OH245232   5.487   4.555  15.964 -0.2023 -0.0981 -0.0321
 7914TIP3    H145233   5.491   4.517  16.052 -0.1596 -0.3472 -0.1377
 7914TIP3    H245234   5.537   4.493  15.910  0.6211  0.5683 -0.0490
 7915TIP3   OH245235   1.466   0.617   0.530 -0.4547  0.6601  0.1592
 7915TIP3    H145236   1.540   0.579   0.578 -0.4056  1.4403  0.7172
 7915TIP3    H245237   1.392   0.562   0.556  0.4413 -2.7058 -3.4211
 7916TIP3   OH245238   6.068   0.048   0.602  0.3368  0.7056  0.1955
 7916TIP3    H145239   6.108   0.130   0.630  1.7106 -0.3893  1.6626
 7916TIP3    H245240   5.975   0.057   0.625  0.9668  0.8043  3.0533
 7917TIP3   OH245241   1.581   6.209   3.306  0.2176 -0.6372  0.3904
 7917TIP3    H145242   1.560   6.131   3.357  1.8545 -1.6210 -0.3231
 7917TIP3    H245243   1.602   6.174   3.219  1.9234  0.4798  0.3207
 7918TIP3   OH245244   0.017   4.394   1.065  0.1716  0.2278 -0.1752
 7918TIP3    H145245   0.110   4.407   1.048  0.1648 -0.8378 -1.1724
 7918TIP3    H245246  -0.007   4.320   1.009 -0.9442 -0.4557  1.1449
 7919TIP3   OH245247   4.453   4.859  13.457 -0.2439  0.2272  0.2626
 7919TIP3    H145248   4.474   4.846  13.550  0.2568  0.9129  0.2550
 7919TIP3    H245249   4.391   4.789  13.436  1.0657 -1.0725  0.6224
 7920TIP3   OH245250   2.439   0.173   5.068  0.3717  0.2646  0.2224
 7920TIP3    H145251   2.408   0.263   5.066 -0.1522  0.0823 -0.2169
 7920TIP3    H245252   2.424   0.144   5.158  0.3892  0.5591  0.3209
 7921TIP3   OH245253   3.111   0.346  16.310 -0.3528 -0.1097 -0.3042
 7921TIP3    H145254   3.048   0.418  16.312  0.1024  0.2840  1.1576
 7921TIP3    H245255   3.156   0.351  16.395  0.8209 -1.1118 -0.8379
 7922TIP3   OH245256   2.565   2.774   3.198 -0.2532 -0.6375  0.2238
 7922TIP3    H145257   2.471   2.767   3.182 -0.1043 -0.8413 -0.6010
 7922TIP3    H245258   2.572   2.820   3.281 -1.0502  0.7556 -0.4517
 7923TIP3   OH245259   5.661   4.476   0.363  0.0890 -0.0220 -0.2420
 7923TIP3    H145260   5.628   4.438   0.282  0.5470  2.9685 -1.9832
 7923TIP3    H245261   5.623   4.564   0.365  0.0968  0.0327  2.8428
 7924TIP3   OH245262   0.326   0.574   0.035 -0.2183  0.5757 -0.0363
 7924TIP3    H145263   0.407   0.540  -0.004 -1.9557 -3.2241 -0.7375
 7924TIP3    H245264   0.296   0.641  -0.027  1.0157  0.1442 -1.1457
 7925TIP3   OH245265   6.420   4.297   5.378  0.0859 -0.3375  0.0489
 7925TIP3    H145266   6.391   4.241   5.307  1.6646 -2.2303  0.7929
 7925TIP3    H245267   6.371   4.266   5.455 -0.3043  0.4899  0.1418
 7926TIP3   OH245268   2.830   0.907   1.792  0.3934 -0.8891 -0.8540
 7926TIP3    H145269   2.769   0.981   1.791  0.2018 -1.0272 -0.2040
 7926TIP3    H245270   2.805   0.857   1.869  1.7836 -0.5559 -0.1468
 7927TIP3   OH245271   6.480   5.049   1.173  0.2830 -0.0851 -0.0446
 7927TIP3    H145272   6.549   5.105   1.210 -0.0391  0.7025 -0.6057
 7927TIP3    H245273   6.506   4.960   1.198  0.2689  0.3761  1.7618
 7928TIP3   OH245274   0.657   1.544  16.877  0.1354 -0.3823  0.4324
 7928TIP3    H145275   0.694   1.618  16.830  0.2368 -2.0189 -2.2727
 7928TIP3    H245276   0.733   1.496  16.910  0.0962  0.2246  1.4451
 7929TIP3   OH245277   2.316   5.899  11.636  0.0667 -0.1812 -0.1752
 7929TIP3    H145278   2.237   5.847  11.621  0.2863 -0.7213  0.4965
 7929TIP3    H245279   2.286   5.972  11.691  0.2269 -0.9683  0.9802
 7930TIP3   OH245280   1.839   4.180  15.595 -0.1108  0.1536  0.3862
 7930TIP3    H145281   1.798   4.105  15.551 -1.3500  1.5299 -0.9528
 7930TIP3    H245282   1.777   4.204  15.664  0.1503  0.1144  0.6341
 7931TIP3   OH245283   4.208   0.339   3.422 -0.9908  0.0038  1.0599
 7931TIP3    H145284   4.194   0.291   3.504 -0.8034  2.1355  2.4139
 7931TIP3    H245285   4.144   0.410   3.424  1.3288  2.2753  1.1945
 7932TIP3   OH245286   6.287   5.094  13.236  0.2710 -0.1133  0.0815
 7932TIP3    H145287   6.221   5.163  13.231  0.7435  0.7115  3.3485
 7932TIP3    H245288   6.277   5.045  13.154 -1.2983  2.6904 -1.5373
 7933TIP3   OH245289   5.370   4.144   5.726  0.0718 -0.3014  0.6903
 7933TIP3    H145290   5.329   4.103   5.803 -0.3004  0.8704  1.1428
 7933TIP3    H245291   5.339   4.235   5.729  0.7710 -0.0216 -0.3530
 7934TIP3   OH245292   4.798   2.750   3.623  0.5360 -0.3482  0.4113
 7934TIP3    H145293   4.793   2.656   3.636  0.1399 -0.2836  0.7536
 7934TIP3    H245294   4.883   2.775   3.660  0.6804 -0.5777  0.2392
 7935TIP3   OH245295   2.604   1.635   1.390  0.2742  0.0462 -0.3708
 7935TIP3    H145296   2.560   1.620   1.473  1.7909  1.0355  0.6493
 7935TIP3    H245297   2.635   1.725   1.394  1.0231 -0.1152 -1.7058
 7936TIP3   OH245298   5.345   3.755  13.979 -0.1792 -0.1351 -0.2359
 7936TIP3    H145299   5.294   3.714  13.909 -2.3254 -0.2761  1.3215
 7936TIP3    H245300   5.424   3.701  13.987 -0.8051 -1.2358 -1.2477
 7937TIP3   OH245301   5.434   2.778   2.420 -0.0104 -0.0607 -0.4273
 7937TIP3    H145302   5.345   2.752   2.446  0.3570 -0.6509  0.3080
 7937TIP3    H245303   5.478   2.797   2.503  0.4644  0.5246 -0.8089
 7938TIP3   OH245304   0.808   6.089  11.130 -0.0311 -0.4367 -0.2433
 7938TIP3    H145305   0.834   6.181  11.142 -3.4064  0.3768  2.4689
 7938TIP3    H245306   0.719   6.094  11.095 -1.0371 -2.5372  1.7424
 7939TIP3   OH245307   2.340   1.602  12.012 -0.1999 -0.1626 -0.5539
 7939TIP3    H145308   2.279   1.676  12.005  0.4725  0.7059  1.6943
 7939TIP3    H245309   2.378   1.611  12.100  0.3206 -2.8773 -0.4030
 7940TIP3   OH245310   5.868   6.384   5.979 -0.4196  0.3942 -0.2689
 7940TIP3    H145311   5.773   6.374   5.966 -0.4142 -0.7155  0.4821
 7940TIP3    H245312   5.875   6.445   6.052 -0.5832 -0.4096  0.4295
 7941TIP3   OH245313   1.097   0.202  11.275 -0.0998  0.1165  0.5501
 7941TIP3    H145314   1.159   0.267  11.243  1.3591 -1.3247  0.2805
 7941TIP3    H245315   1.022   0.210  11.217  0.7770  0.3985 -0.5909
 7942TIP3   OH245316   6.468   2.131  11.283  0.3752  0.2764  0.6105
 7942TIP3    H145317   6.530   2.179  11.337  0.5116  0.5823  0.1878
 7942TIP3    H245318   6.420   2.200  11.236 -0.5470  0.0678  1.2164
 7943TIP3   OH245319   6.285   0.509  13.493 -0.2467 -0.2193 -0.6042
 7943TIP3    H145320   6.300   0.592  13.539  0.4248 -0.7453  0.1608
 7943TIP3    H245321   6.242   0.534  13.412 -1.1280  0.7872  0.1367
 7944TIP3   OH245322   4.704   1.070  16.352 -0.0722  0.4545 -0.4064
 7944TIP3    H145323   4.721   0.982  16.383  1.3511  1.3901  1.6370
 7944TIP3    H245324   4.627   1.099  16.401  1.1289  1.3059  1.0391
 7945TIP3   OH245325   5.504   0.341   3.265  0.0025  0.1228 -0.0154
 7945TIP3    H145326   5.490   0.364   3.357 -0.0235  0.2888 -0.0592
 7945TIP3    H245327   5.484   0.248   3.260  2.9577 -0.6646  0.7901
 7946TIP3   OH245328   5.767   4.171  11.654 -0.2362 -0.3358 -0.1986
 7946TIP3    H145329   5.776   4.136  11.742 -0.8914  1.5481  0.6787
 7946TIP3    H245330   5.695   4.122  11.615 -1.4906  0.3497  1.1705
 7947TIP3   OH245331   1.097   1.921  11.141  0.1058 -0.7241  0.0332
 7947TIP3    H145332   1.096   2.009  11.179  1.4932 -0.9172  0.6013
 7947TIP3    H245333   1.173   1.879  11.181 -0.9075 -2.4189  0.2609
 7948TIP3   OH245334   3.118   6.613   1.333 -0.2484  0.1813 -0.2035
 7948TIP3    H145335   3.203   6.644   1.303  0.5065 -0.1534  1.4861
 7948TIP3    H245336   3.076   6.691   1.370 -0.8474  0.4173 -1.3211
 7949TIP3   OH245337   3.664   6.640  10.617  0.0124  0.1368  0.1476
 7949TIP3    H145338   3.658   6.733  10.637  0.5982  0.0116  0.9466
 7949TIP3    H245339   3.731   6.635  10.548 -2.8070  0.6813 -2.8523
 7950TIP3   OH245340   5.108   5.358  16.221  0.4813  0.1505  0.6007
 7950TIP3    H145341   5.116   5.454  16.227 -0.0343  0.1722  1.0051
 7950TIP3    H245342   5.101   5.342  16.127  3.2314  0.2635  0.3103
 7951TIP3   OH245343   4.886   1.629  17.188  0.1763  0.4127 -0.5555
 7951TIP3    H145344   4.889   1.710  17.137  2.0263 -0.9962 -2.9037
 7951TIP3    H245345   4.975   1.618  17.221 -0.4608  0.1500  1.1833
 7952TIP3   OH245346   2.814   6.753   2.716 -0.1476 -0.0997  0.3375
 7952TIP3    H145347   2.841   6.804   2.640 -0.5232  0.3581  0.5079
 7952TIP3    H245348   2.753   6.810   2.763 -2.1501 -1.4573 -0.5006
 7953TIP3   OH245349   3.008   3.450  15.963 -0.0775 -0.2363 -0.1042
 7953TIP3    H145350   3.094   3.420  15.934  0.2088  1.6690 -1.3732
 7953TIP3    H245351   2.948   3.380  15.936  0.7122 -0.3040 -1.8110
 7954TIP3   OH245352   4.944   6.318  11.826 -0.2173  0.6608 -0.0523
 7954TIP3    H145353   5.023   6.372  11.825 -0.4919  1.0780  0.5352
 7954TIP3    H245354   4.875   6.374  11.792 -0.3499  0.4274 -0.1745
 7955TIP3   OH245355   2.404   3.705   0.529  0.3379  0.0594  0.4025
 7955TIP3    H145356   2.340   3.713   0.600 -0.4298  2.6293 -0.4716
 7955TIP3    H245357   2.350   3.699   0.449  1.2031 -1.4100 -0.1132
 7956TIP3   OH245358   2.780   0.119   4.294 -0.0844  0.1679 -0.4833
 7956TIP3    H145359   2.759   0.184   4.361 -3.8627 -1.8423  0.5622
 7956TIP3    H245360   2.796   0.038   4.343  1.5603 -0.4077 -1.8784
 7957TIP3   OH245361   0.336   3.094  12.900  0.3533 -0.4499  0.3680
 7957TIP3    H145362   0.394   3.169  12.884 -0.9676  0.4007 -0.6283
 7957TIP3    H245363   0.382   3.019  12.862  1.4559 -0.0695  0.9061
 7958TIP3   OH245364   1.622   0.507   4.958 -0.2320 -0.2603 -0.4631
 7958TIP3    H145365   1.622   0.411   4.965  0.6937 -0.4203 -2.1112
 7958TIP3    H245366   1.544   0.526   4.905 -0.6976 -0.0412  0.2861
 7959TIP3   OH245367   1.213   1.101   1.698 -0.2711  0.0043  0.2476
 7959TIP3    H145368   1.224   1.070   1.609  1.3500 -1.6651  0.9679
 7959TIP3    H245369   1.252   1.189   1.697 -0.3446  0.0378 -0.6886
 7960TIP3   OH245370   0.098   0.206  16.492 -0.2841  0.1195 -0.0193
 7960TIP3    H145371   0.053   0.291  16.490  2.7073  1.8507  0.3325
 7960TIP3    H245372   0.099   0.177  16.401 -2.5958 -0.3642  0.0339
 7961TIP3   OH245373   2.561   6.273   4.045  0.0031  0.3504  0.5125
 7961TIP3    H145374   2.582   6.180   4.059 -0.2267  0.1781 -0.2276
 7961TIP3    H245375   2.477   6.284   4.090 -0.4721 -0.0620 -0.2539
 7962TIP3   OH245376   1.420   5.009   4.284 -0.3811  0.1612  0.1390
 7962TIP3    H145377   1.393   5.090   4.239 -0.9037 -0.5586 -0.9043
 7962TIP3    H245378   1.343   4.984   4.334 -0.3392  0.1247  0.1841
 7963TIP3   OH245379   5.099   0.688  16.063  0.0680 -0.5329  0.9460
 7963TIP3    H145380   5.181   0.673  16.110  1.3218 -2.0437 -1.5525
 7963TIP3    H245381   5.038   0.626  16.103  0.6157 -0.6398  1.6540
 7964TIP3   OH245382   6.122   5.425  14.722 -0.5000 -0.4279 -0.3262
 7964TIP3    H145383   6.202   5.446  14.675  0.0841  0.0242  0.8259
 7964TIP3    H245384   6.104   5.503  14.776 -1.8202 -0.4430 -0.6985
 7965TIP3   OH245385   2.416   6.037  14.341  0.2078  0.0016 -0.0594
 7965TIP3    H145386   2.409   5.993  14.426 -0.4377  1.2705  0.5834
 7965TIP3    H245387   2.352   5.991  14.286 -2.2285  1.5485  1.2845
 7966TIP3   OH245388   5.031   4.417   3.532 -0.1239 -0.1557 -0.6043
 7966TIP3    H145389   5.082   4.367   3.468 -1.0259  0.4535 -1.8384
 7966TIP3    H245390   5.044   4.370   3.615 -0.8622 -2.4089 -1.6869
 7967TIP3   OH245391   1.461   1.323  16.292  0.0218  0.3880  0.1988
 7967TIP3    H145392   1.439   1.393  16.231 -0.5891 -0.8459 -1.0602
 7967TIP3    H245393   1.448   1.361  16.378 -0.0752  1.8830 -0.4502
 7968TIP3   OH245394   1.708   1.888   1.398  0.8324 -0.2145  0.3251
 7968TIP3    H145395   1.782   1.855   1.348  0.9561  0.7836 -0.1866
 7968TIP3    H245396   1.730   1.979   1.416 -1.1551  0.7573 -1.6606
 7969TIP3   OH245397   4.755   6.487  11.701  0.4334  0.7375 -0.4048
 7969TIP3    H145398   4.725   6.544  11.630  0.8031  2.3871  0.6785
 7969TIP3    H245399   4.686   6.494  11.767  0.8882  0.6439  0.0930
 7970TIP3   OH245400   0.980   3.120   0.711 -0.8977 -0.3055  0.3979
 7970TIP3    H145401   1.042   3.164   0.769 -0.5577 -1.6333  1.0798
 7970TIP3    H245402   0.921   3.190   0.681  0.3555  0.8202  0.4527
 7971TIP3   OH245403   0.635   6.366  14.404  0.0811 -0.5208 -0.2726
 7971TIP3    H145404   0.614   6.275  14.385  1.3369 -0.6203 -1.3312
 7971TIP3    H245405   0.706   6.362  14.469  1.3567 -0.3733 -1.6080
 7972TIP3   OH245406   6.106   4.967   6.968  0.1104  0.3925  0.2324
 7972TIP3    H145407   6.088   4.937   6.878 -1.9792  1.6919  0.1330
 7972TIP3    H245408   6.027   4.943   7.017 -0.0941  2.4120  0.9759
 7973TIP3   OH245409   2.038   4.891  14.220 -0.8978  0.4494 -0.6412
 7973TIP3    H145410   2.098   4.817  14.210  0.6026  1.5048  0.0475
 7973TIP3    H245411   1.987   4.870  14.298 -0.5978  0.0615 -0.5462
 7974TIP3   OH245412   4.750   0.863   5.955 -0.1431  0.0406 -0.6556
 7974TIP3    H145413   4.727   0.941   5.903 -0.7195  0.0396 -0.4107
 7974TIP3    H245414   4.754   0.895   6.045  1.6393  0.2085 -0.7641
 7975TIP3   OH245415   3.321   3.596  11.624 -0.5456 -0.3677 -0.3329
 7975TIP3    H145416   3.278   3.511  11.614 -0.9944  0.1151 -3.2501
 7975TIP3    H245417   3.394   3.594  11.563  2.2868 -0.2285  2.7667
 7976TIP3   OH245418   3.018   0.776   2.909 -0.0523  0.4250  0.2909
 7976TIP3    H145419   3.000   0.737   2.824 -0.0895 -0.4611  0.6979
 7976TIP3    H245420   3.091   0.836   2.893  1.4924 -1.4200  0.0678
 7977TIP3   OH245421   0.958   5.189  12.463  0.3834 -0.1873 -0.2461
 7977TIP3    H145422   1.018   5.187  12.389  0.5132  0.0775 -0.1507
 7977TIP3    H245423   1.013   5.174  12.539  0.7078  2.1827  0.0665
 7978TIP3   OH245424   3.338   3.833  12.744  0.0290 -0.4364  0.4244
 7978TIP3    H145425   3.320   3.879  12.662 -0.5376  0.1646  0.8713
 7978TIP3    H245426   3.433   3.820  12.745 -0.0151 -0.8548 -0.5323
 7979TIP3   OH245427   3.863   0.686   0.090  0.4597 -0.2072 -0.1042
 7979TIP3    H145428   3.840   0.733   0.010  0.1756 -0.2052 -0.0244
 7979TIP3    H245429   3.786   0.695   0.146 -0.1060 -1.8083 -0.5698
 7980TIP3   OH245430   4.519   3.227   5.640  0.0978 -0.2643 -0.6847
 7980TIP3    H145431   4.429   3.195   5.638 -0.1433  0.4160 -0.9812
 7980TIP3    H245432   4.572   3.150   5.619 -0.4690 -0.4916 -1.3338
 7981TIP3   OH245433   6.680   5.071  13.564 -0.2998  0.5350 -0.1343
 7981TIP3    H145434   6.664   5.117  13.647 -0.9439 -1.7139  1.0682
 7981TIP3    H245435   6.604   5.094  13.509 -1.0648  0.2397  0.7710
 7982TIP3   OH245436   2.792   6.123  11.244  0.5446  0.1596  0.0540
 7982TIP3    H145437   2.757   6.055  11.301  1.4128 -0.9888 -0.7379
 7982TIP3    H245438   2.877   6.090  11.216  0.7111  1.2850 -0.8683
 7983TIP3   OH245439   6.422   0.852  11.333 -0.0678  0.0307 -0.1438
 7983TIP3    H145440   6.476   0.918  11.289 -0.6455  0.6393  0.0547
 7983TIP3    H245441   6.340   0.851  11.283  0.3849 -1.4653 -0.9455
 7984TIP3   OH245442   3.909   2.882   3.118  0.4432  0.1740 -0.3311
 7984TIP3    H145443   3.985   2.936   3.141 -1.0624  2.7312 -1.0525
 7984TIP3    H245444   3.897   2.896   3.024  1.2679 -3.2346 -1.0720
 7985TIP3   OH245445   2.632   5.480  13.759 -0.1233  0.0965  0.6494
 7985TIP3    H145446   2.662   5.535  13.687 -1.8370  0.1382 -0.0740
 7985TIP3    H245447   2.595   5.541  13.822  0.6583 -0.0098  1.2278
 7986TIP3   OH245448   6.016   1.384  16.836  0.0798  1.1314 -0.4849
 7986TIP3    H145449   6.074   1.439  16.784  1.6988  2.2241  2.2687
 7986TIP3    H245450   6.031   1.411  16.926 -2.6940 -0.5177  0.6166
 7987TIP3   OH245451   2.350   1.434   4.666  0.3267 -0.3639 -0.1767
 7987TIP3    H145452   2.331   1.387   4.584  1.1389  2.2204 -2.0068
 7987TIP3    H245453   2.282   1.500   4.672  2.5492  2.2177 -1.1810
 7988TIP3   OH245454   4.492   4.992  15.080 -0.2458 -0.1781  0.2251
 7988TIP3    H145455   4.437   5.058  15.038 -2.1695 -1.2785  0.9381
 7988TIP3    H245456   4.502   5.023  15.170 -0.2383 -0.3112  0.2696
 7989TIP3   OH245457   6.603   3.052  13.143 -0.0330  0.6156 -0.6778
 7989TIP3    H145458   6.577   3.013  13.226 -0.5194  1.9726 -0.1677
 7989TIP3    H245459   6.694   3.080  13.156 -0.0283  0.6081 -0.6932
 7990TIP3   OH245460   1.010   6.269   0.374  0.8755  0.6792 -0.4724
 7990TIP3    H145461   0.931   6.283   0.427 -0.6734 -1.8248 -1.9045
 7990TIP3    H245462   1.077   6.246   0.438 -0.4446 -0.3411  0.6267
 7991TIP3   OH245463   1.602   5.099   0.243  0.2699  0.2155  0.0763
 7991TIP3    H145464   1.529   5.054   0.286  0.7067 -1.3544 -0.7466
 7991TIP3    H245465   1.567   5.184   0.218 -1.6356 -0.8965 -1.2741
 7992TIP3   OH245466   5.083   3.632  14.437  0.3173  0.4193 -0.2136
 7992TIP3    H145467   5.099   3.556  14.381 -0.4462  1.2005 -1.5103
 7992TIP3    H245468   5.134   3.702  14.398 -0.7226  1.1359 -0.3217
 7993TIP3   OH245469   1.932   2.346  12.449  0.1709 -0.2174 -0.3960
 7993TIP3    H145470   1.989   2.395  12.508 -0.1703  1.1241 -1.1215
 7993TIP3    H245471   1.960   2.255  12.458 -0.1063 -0.1285  2.0770
 7994TIP3   OH245472   6.609   0.763   0.502  0.2033  0.1174 -0.2828
 7994TIP3    H145473   6.530   0.729   0.459  0.2251 -0.3516  0.0355
 7994TIP3    H245474   6.680   0.710   0.467  0.3846  0.5634 -0.5941
 7995TIP3   OH245475   2.624   5.208  14.615 -0.5170  0.2334 -0.4019
 7995TIP3    H145476   2.664   5.143  14.557  1.7637  0.6633  0.5725
 7995TIP3    H245477   2.596   5.278  14.557 -1.8300 -0.9909 -1.3260
 7996TIP3   OH245478   0.847   4.637  15.414 -0.0004  0.7245  0.5674
 7996TIP3    H145479   0.831   4.614  15.505 -3.0402  1.1820  0.2698
 7996TIP3    H245480   0.905   4.568  15.381 -0.1222 -0.3177  2.4351
 7997TIP3   OH245481   2.895   5.828  12.131 -0.4221 -0.2900  0.6712
 7997TIP3    H145482   2.925   5.867  12.050 -1.3595 -0.9913 -0.0338
 7997TIP3    H245483   2.864   5.902  12.184  1.5182  0.3314  1.0135
 7998TIP3   OH245484   4.995   5.059   0.614  0.6904 -0.0252 -0.0632
 7998TIP3    H145485   5.013   5.093   0.702 -0.9345 -0.1008  0.3400
 7998TIP3    H245486   4.949   4.977   0.630  0.3091  0.0018 -0.9849
 7999TIP3   OH245487   2.754   1.296  14.104  0.2804 -0.5708  0.3039
 7999TIP3    H145488   2.741   1.241  14.026  0.7966 -1.5953  0.9090
 7999TIP3    H245489   2.810   1.367  14.074  1.3766 -1.5411 -0.0394
 8000TIP3   OH245490   4.116   6.456  13.230 -0.3274  0.3536  0.6268
 8000TIP3    H145491   4.201   6.411  13.222 -0.5385  0.0588 -0.0455
 8000TIP3    H245492   4.098   6.457  13.324 -0.0885 -0.5516  0.6926
 8001TIP3   OH245493   3.546   0.285  14.342 -0.5445 -0.4867 -0.0587
 8001TIP3    H145494   3.458   0.257  14.368 -0.1989 -1.0512  0.5649
 8001TIP3    H245495   3.593   0.294  14.425 -0.3836  1.1359 -0.3027
 8002TIP3   OH245496   2.091   1.720  14.611  0.2656 -0.0870 -0.0374
 8002TIP3    H145497   2.007   1.675  14.612  0.3077 -0.1634  0.1614
 8002TIP3    H245498   2.141   1.676  14.542 -0.1116  0.4306 -0.6508
 8003TIP3   OH245499   1.670   3.881  11.181  0.1919  0.3711  0.2122
 8003TIP3    H145500   1.671   3.786  11.186 -0.9379  0.3943  1.8231
 8003TIP3    H245501   1.661   3.900  11.087 -1.5253 -1.1717 -0.0064
 8004TIP3   OH245502   5.767   1.192  11.910  0.1771  0.0696 -0.0752
 8004TIP3    H145503   5.762   1.110  11.861  1.0056  0.1621 -0.3304
 8004TIP3    H245504   5.809   1.167  11.993  1.1492  0.3681 -0.4718
 8005TIP3   OH245505   1.606   5.857  10.472 -0.0155  0.9480  0.1849
 8005TIP3    H145506   1.534   5.825  10.526 -0.1141  0.0322 -0.4498
 8005TIP3    H245507   1.566   5.919  10.412 -0.6797 -0.8321 -1.3363
 8006TIP3   OH245508   1.223   6.440   2.474  0.1136 -0.0068  0.3588
 8006TIP3    H145509   1.157   6.500   2.510  0.1711  1.1412 -1.3250
 8006TIP3    H245510   1.199   6.431   2.381 -0.0641 -2.8870  0.5984
 8007TIP3   OH245511   2.420   5.434   2.397  0.0060  0.4286 -0.2132
 8007TIP3    H145512   2.457   5.466   2.315  2.3537 -2.9295 -0.6769
 8007TIP3    H245513   2.330   5.412   2.377  0.6545 -0.7302 -2.0829
 8008TIP3   OH245514   0.170   6.680  15.897  0.1304  0.3477 -0.4119
 8008TIP3    H145515   0.134   6.760  15.935  0.9420  0.3985  0.2910
 8008TIP3    H245516   0.217   6.709  15.818  0.7637  0.6364  0.0604
 8009TIP3   OH245517   2.546   2.399  16.475  0.0930 -0.3332 -0.2515
 8009TIP3    H145518   2.603   2.333  16.435 -1.7105 -2.7640  0.8991
 8009TIP3    H245519   2.556   2.385  16.569 -2.2957 -0.8605 -0.0016
 8010TIP3   OH245520   2.137   2.901  13.994  0.5713  0.4463 -0.3143
 8010TIP3    H145521   2.077   2.848  14.045  0.9947  0.0149 -0.2498
 8010TIP3    H245522   2.093   2.985  13.982 -0.7265 -0.3699 -1.6073
 8011TIP3   OH245523   1.298   2.063  11.835  0.4012  0.7081 -0.2848
 8011TIP3    H145524   1.221   2.012  11.863  1.4690  0.2675  2.0732
 8011TIP3    H245525   1.262   2.128  11.775 -1.2764 -1.6955 -2.1216
 8012TIP3   OH245526   6.221   1.704  16.133  0.2441 -0.0381 -0.4151
 8012TIP3    H145527   6.269   1.762  16.191 -1.8712  1.0847  0.3125
 8012TIP3    H245528   6.173   1.645  16.191  1.2417 -1.6532 -1.1272
 8013TIP3   OH245529   0.794   2.385  12.469  0.1501  0.6199  0.0951
 8013TIP3    H145530   0.758   2.461  12.515 -1.2538 -0.1042  0.2537
 8013TIP3    H245531   0.877   2.416  12.432  1.2378  1.3293  2.8583
 8014TIP3   OH245532   6.619   0.119  14.736  0.1554  0.4493 -0.6667
 8014TIP3    H145533   6.564   0.083  14.667 -0.5835 -0.1276  0.1988
 8014TIP3    H245534   6.610   0.214  14.727 -3.8518  0.4765  1.5651
 8015TIP3   OH245535   3.002   3.834   2.323 -0.5148 -0.6009 -0.0042
 8015TIP3    H145536   2.965   3.842   2.411 -1.4338 -0.1680 -0.4140
 8015TIP3    H245537   2.967   3.909   2.275  3.6790  2.0059  0.4674
 8016TIP3   OH245538   3.066   6.449   0.626  0.0918 -0.4521 -0.2248
 8016TIP3    H145539   3.049   6.543   0.620  2.0540 -0.1678 -2.7187
 8016TIP3    H245540   2.980   6.411   0.644 -0.6493  1.7962  1.5013
 8017TIP3   OH245541   5.954   2.166  13.380 -0.0958  0.0372  0.0643
 8017TIP3    H145542   6.043   2.194  13.399 -0.4597  1.1329  0.2224
 8017TIP3    H245543   5.943   2.186  13.287  0.3966 -1.7479 -0.4181
 8018TIP3   OH245544   2.408   5.009  13.644  0.4063 -0.0120 -0.2808
 8018TIP3    H145545   2.400   5.090  13.695 -0.2037 -0.9457  1.1444
 8018TIP3    H245546   2.389   4.939  13.706  0.9879 -1.2747 -1.4757
 8019TIP3   OH245547   0.648   3.092   0.526 -0.3440 -0.3451  0.2405
 8019TIP3    H145548   0.606   3.163   0.576  1.1706  1.0236 -0.3527
 8019TIP3    H245549   0.685   3.135   0.449 -0.2223 -1.9692 -0.6557
 8020TIP3   OH245550   3.289   3.610  16.010 -0.1327 -0.1157  0.4002
 8020TIP3    H145551   3.309   3.572  16.096 -0.2394  0.4957  0.6962
 8020TIP3    H245552   3.238   3.688  16.029 -0.0535  0.0930 -0.2191
 8021TIP3   OH245553   4.964   4.659   3.602 -0.8989 -0.0632 -0.0511
 8021TIP3    H145554   5.043   4.675   3.653 -0.8863  1.7539 -0.5566
 8021TIP3    H245555   4.975   4.571   3.567  0.8596  0.1231 -0.0466
 8022TIP3   OH245556   1.419   4.275  17.016 -0.5115 -0.3919  0.2018
 8022TIP3    H145557   1.404   4.285  17.110 -2.2028  0.4821 -0.1063
 8022TIP3    H245558   1.356   4.208  16.989 -0.2788 -0.3884 -0.3605
 8023TIP3   OH245559   5.186   5.901   5.075 -0.3076  0.0066  0.5567
 8023TIP3    H145560   5.145   5.928   4.993  1.8176  0.3127 -0.4741
 8023TIP3    H245561   5.190   5.981   5.127  0.1760  0.2626  0.1272
 8024TIP3   OH245562   0.416   3.378   4.458 -0.2717 -0.1850  0.3363
 8024TIP3    H145563   0.477   3.326   4.407  0.2848 -0.2473  1.0463
 8024TIP3    H245564   0.397   3.324   4.535  1.3507  1.1518  1.7674
 8025TIP3   OH245565   4.459   0.432   2.309  0.0279  0.1200 -0.4308
 8025TIP3    H145566   4.494   0.362   2.363  0.1363 -0.3771 -1.1324
 8025TIP3    H245567   4.455   0.508   2.367  0.0444 -0.4264  0.2936
 8026TIP3   OH245568   3.487   6.308   6.488 -0.8691  0.5370  0.1034
 8026TIP3    H145569   3.478   6.248   6.562 -2.5212 -1.1539 -1.3673
 8026TIP3    H245570   3.577   6.295   6.458 -0.6272  0.1991  0.9309
 8027TIP3   OH245571   5.522   4.043  11.553 -0.1651 -0.1916  0.2183
 8027TIP3    H145572   5.464   4.030  11.628 -1.7502  0.1374 -0.8863
 8027TIP3    H245573   5.465   4.029  11.477  0.6363  2.4463 -0.9651
 8028TIP3   OH245574   3.833   6.808   4.386  0.5875  0.3499  0.1654
 8028TIP3    H145575   3.922   6.806   4.352  0.3217  1.3889 -0.6717
 8028TIP3    H245576   3.806   6.717   4.390  2.2600 -0.1370  2.0587
 8029TIP3   OH245577   4.230   2.683  12.083  0.4032  0.1286  0.4936
 8029TIP3    H145578   4.279   2.763  12.063 -2.7397  1.4849 -2.8694
 8029TIP3    H245579   4.259   2.659  12.171  2.6608  4.0326  1.0737
 8030TIP3   OH245580   0.860   1.149   4.347 -0.3189 -0.1608 -0.5980
 8030TIP3    H145581   0.925   1.079   4.339 -0.9420 -0.6055 -2.0470
 8030TIP3    H245582   0.823   1.137   4.435  1.6562  0.2337  0.3360
 8031TIP3   OH245583   5.703   0.357  12.172 -0.9476 -0.2917  0.0656
 8031TIP3    H145584   5.616   0.376  12.138 -0.4909  2.9780  0.4308
 8031TIP3    H245585   5.762   0.375  12.098 -0.4572 -0.7868  0.3295
 8032TIP3   OH245586   2.850   0.947  13.389  0.5652  0.0750  0.9406
 8032TIP3    H145587   2.840   0.881  13.320  0.4113  1.8986 -0.9154
 8032TIP3    H245588   2.943   0.945  13.410  0.3951 -1.4040  1.6829
 8033TIP3   OH245589   1.296   3.570  12.383  0.0613 -0.2868 -0.6997
 8033TIP3    H145590   1.262   3.588  12.295 -0.3468  1.7580 -0.1533
 8033TIP3    H245591   1.225   3.521  12.426 -0.2094 -0.2866 -1.1352
 8034TIP3   OH245592   6.722   5.815   0.060 -0.3709  0.7890 -0.1450
 8034TIP3    H145593   6.690   5.725   0.054 -0.1610  0.5314  1.8574
 8034TIP3    H245594   6.687   5.858  -0.018 -0.8450 -0.9009 -0.9166
 8035TIP3   OH245595   0.984   3.552  10.940  0.1935  0.2554  0.0958
 8035TIP3    H145596   0.985   3.566  10.846  2.4476  2.4047  0.3437
 8035TIP3    H245597   0.975   3.639  10.978 -0.0556 -0.4913  1.9036
 8036TIP3   OH245598   2.222   1.084  11.574  0.3358  0.9239  0.0910
 8036TIP3    H145599   2.213   1.084  11.478  0.3316  1.2752  0.0919
 8036TIP3    H245600   2.238   0.992  11.596  0.7034  0.8962 -0.2810
 8037TIP3   OH245601   1.888   3.953   4.205 -0.7236 -0.0599  0.0403
 8037TIP3    H145602   1.954   3.981   4.142  1.0517 -1.5085  1.1456
 8037TIP3    H245603   1.899   4.013   4.279  0.5588 -1.2956  0.9014
 8038TIP3   OH245604   5.601   1.072  13.988  0.2773  0.3214 -0.7970
 8038TIP3    H145605   5.647   1.131  14.049 -1.0302  1.2059 -0.6229
 8038TIP3    H245606   5.626   0.984  14.017  1.2262  0.7548 -0.2224
 8039TIP3   OH245607   6.686   2.904   2.148 -0.1139  0.1130 -0.3297
 8039TIP3    H145608   6.721   2.993   2.135  2.0627 -0.7714 -1.0798
 8039TIP3    H245609   6.736   2.850   2.086 -1.6208 -1.5936 -0.1311
 8040TIP3   OH245610   4.189   2.497   1.263  0.0992 -0.4114  0.0952
 8040TIP3    H145611   4.122   2.564   1.249  0.7451  0.3157  0.4203
 8040TIP3    H245612   4.252   2.538   1.321  0.5346 -1.2946  0.2604
 8041TIP3   OH245613   2.167   3.625  11.433 -0.2212 -0.0069 -0.1971
 8041TIP3    H145614   2.248   3.671  11.411 -0.4589  0.5588  0.0813
 8041TIP3    H245615   2.097   3.685  11.405 -0.5428 -0.4686 -0.3924
 8042TIP3   OH245616   3.264   6.240  13.157  0.3383  0.8549  0.1527
 8042TIP3    H145617   3.276   6.308  13.090  2.0133  1.1032  0.6701
 8042TIP3    H245618   3.292   6.159  13.114  1.7281  1.0634  0.6091
 8043TIP3   OH245619   0.718   1.384   2.478  0.0649  0.4068 -0.0803
 8043TIP3    H145620   0.647   1.322   2.462 -1.0878  1.6572 -0.0482
 8043TIP3    H245621   0.788   1.358   2.418 -0.6148 -0.5622 -0.4623
 8044TIP3   OH245622   5.111   0.257   3.110 -0.1312 -0.3282 -0.2350
 8044TIP3    H145623   5.115   0.229   3.019 -2.7198 -0.2910 -0.4333
 8044TIP3    H245624   5.038   0.318   3.114  0.4464  0.3361  1.7237
 8045TIP3   OH245625   0.426   0.212   3.767  0.0398  0.3949  0.1509
 8045TIP3    H145626   0.395   0.255   3.687  0.3202 -1.9475 -1.3001
 8045TIP3    H245627   0.382   0.259   3.838 -1.5131  1.5006 -1.4570
 8046TIP3   OH245628   6.356   4.128  12.987  0.4335 -0.0724  0.5287
 8046TIP3    H145629   6.335   4.158  12.898  1.1128 -0.4282  0.2451
 8046TIP3    H245630   6.298   4.053  13.001 -1.3634  1.3730  1.2866
 8047TIP3   OH245631   2.789   2.972  13.238  0.0149  0.3985 -0.6438
 8047TIP3    H145632   2.720   2.960  13.303  0.6190 -1.2895 -0.2729
 8047TIP3    H245633   2.761   3.049  13.187 -1.6614  0.2978  0.0729
 8048TIP3   OH245634   3.722   0.552   5.447  0.1182 -0.1575 -0.3439
 8048TIP3    H145635   3.771   0.485   5.494  0.8067 -0.6712 -1.7091
 8048TIP3    H245636   3.772   0.632   5.461 -0.5456  0.0342  1.0552
 8049TIP3   OH245637   2.227   3.630   1.186 -0.0579 -0.3280  0.4672
 8049TIP3    H145638   2.226   3.615   1.092  0.5915  0.8659  0.2503
 8049TIP3    H245639   2.235   3.542   1.224  1.4231 -0.7225 -0.6450
 8050TIP3   OH245640   3.371   0.661   5.830  0.0438  0.4753 -0.8162
 8050TIP3    H145641   3.451   0.710   5.846  0.7198 -0.4844 -1.1064
 8050TIP3    H245642   3.350   0.678   5.738 -0.6967  1.5566 -0.4687
 8051TIP3   OH245643   2.860   3.932   3.190 -0.2873 -0.0990  0.1482
 8051TIP3    H145644   2.916   4.003   3.222 -1.4191  0.0030  2.0428
 8051TIP3    H245645   2.772   3.957   3.218 -1.2829 -0.4272 -2.4442
 8052TIP3   OH245646   3.053   4.001  13.262  0.2095  1.6176 -0.2196
 8052TIP3    H145647   3.147   3.985  13.249 -0.3099 -1.7600 -0.6874
 8052TIP3    H245648   3.029   3.942  13.334 -1.8124  1.4197 -1.0116
 8053TIP3   OH245649   3.668   4.031  15.726  0.4371 -0.3094 -0.0028
 8053TIP3    H145650   3.750   3.992  15.696  0.4072 -0.0143 -0.4641
 8053TIP3    H245651   3.600   3.980  15.683  0.3814 -0.3046  0.0789
 8054TIP3   OH245652   0.069   1.787  13.166 -0.0806 -0.2229  0.2922
 8054TIP3    H145653   0.088   1.695  13.147 -0.6897 -0.6089  1.5032
 8054TIP3    H245654   0.129   1.810  13.237 -0.5448  0.0540  0.5996
 8055TIP3   OH245655   2.544   1.048  12.801 -0.9060  0.6649 -0.3246
 8055TIP3    H145656   2.534   1.043  12.896 -0.4711 -0.8124 -0.3172
 8055TIP3    H245657   2.478   0.987  12.767  0.0985 -0.1789 -0.8475
 8056TIP3   OH245658   6.409   2.520   1.681 -0.3828  0.5369  0.3228
 8056TIP3    H145659   6.437   2.444   1.732  0.6423  1.4054  1.1151
 8056TIP3    H245660   6.369   2.579   1.746 -1.9806  0.3279 -0.4217
 8057TIP3   OH245661   1.232   2.463   2.259  0.2265 -0.1052  0.3760
 8057TIP3    H145662   1.273   2.378   2.270 -1.1324 -1.1366 -1.9278
 8057TIP3    H245663   1.302   2.526   2.281  1.6953 -1.7724  0.7205
 8058TIP3   OH245664   0.763   5.208  13.111  0.0911  0.1103  0.3031
 8058TIP3    H145665   0.798   5.141  13.170  1.5519  1.9461  1.6299
 8058TIP3    H245666   0.839   5.262  13.088 -0.8791  0.8187 -1.4289
 8059TIP3   OH245667   3.919   4.840   0.816  0.1417  0.2287  0.2092
 8059TIP3    H145668   3.925   4.935   0.826  1.6545  0.1306  0.6488
 8059TIP3    H245669   3.858   4.812   0.884  2.1506  0.6359  2.3246
 8060TIP3   OH245670   4.247   5.748  11.337 -0.1252  0.3085 -0.0043
 8060TIP3    H145671   4.243   5.759  11.242  0.9779 -1.7644 -0.3321
 8060TIP3    H245672   4.325   5.797  11.363  0.7205 -0.7505 -0.4715
 8061TIP3   OH245673   3.431   2.923   0.573  0.3045 -0.2433 -0.0998
 8061TIP3    H145674   3.443   2.840   0.619 -0.3352 -1.7658 -2.4873
 8061TIP3    H245675   3.422   2.988   0.642  1.8876 -1.9869  1.8515
 8062TIP3   OH245676   3.465   6.561   3.180  0.0550 -0.4478  0.4292
 8062TIP3    H145677   3.465   6.509   3.260 -2.4732 -2.2116 -0.5917
 8062TIP3    H245678   3.444   6.499   3.111  1.3265  1.1847 -1.5293
 8063TIP3   OH245679   1.954   5.910   4.697 -0.2151  0.8450 -0.1385
 8063TIP3    H145680   1.964   5.994   4.652 -0.9105  1.3083  0.5500
 8063TIP3    H245681   1.963   5.844   4.627  0.0599  1.4926 -0.7256
 8064TIP3   OH245682   5.142   2.678   5.845 -0.3482 -0.3875 -0.3971
 8064TIP3    H145683   5.076   2.742   5.871 -1.0073 -1.1364 -0.1787
 8064TIP3    H245684   5.141   2.613   5.916 -0.8656 -1.4910 -1.3780
 8065TIP3   OH245685   2.592   2.705   5.680  0.3735 -0.0461  0.0975
 8065TIP3    H145686   2.513   2.663   5.712  1.3960 -0.8648  1.6849
 8065TIP3    H245687   2.659   2.638   5.685  1.4008  0.9232 -0.1905
 8066TIP3   OH245688   0.876   0.757   5.311  0.9136 -0.5135  0.6724
 8066TIP3    H145689   0.807   0.762   5.377  0.5541  1.5402  0.2054
 8066TIP3    H245690   0.945   0.814   5.344  0.1899  1.6324 -1.2560
 8067TIP3   OH245691   3.873   5.438  14.163 -0.1013  0.0293  0.1682
 8067TIP3    H145692   3.799   5.390  14.199 -0.1007 -0.3759 -0.3580
 8067TIP3    H245693   3.949   5.407  14.213 -0.0943 -0.5546 -0.2083
 8068TIP3   OH245694   1.003   3.695  16.576  0.8714 -0.0278  0.2666
 8068TIP3    H145695   0.925   3.748  16.593 -0.2589 -2.0343  1.6833
 8068TIP3    H245696   1.068   3.729  16.639  0.3853  0.1173  0.6971
 8069TIP3   OH245697   2.316   1.232   3.874 -0.6148  0.1147  0.2029
 8069TIP3    H145698   2.348   1.271   3.793 -0.5831  0.2552  0.2833
 8069TIP3    H245699   2.344   1.292   3.943  0.6045 -0.7077  0.4585
 8070TIP3   OH245700   2.338   6.400   2.754  0.0586  0.5898  0.4340
 8070TIP3    H145701   2.387   6.404   2.672 -1.5771 -1.5126 -0.7447
 8070TIP3    H245702   2.378   6.328   2.802 -0.7892 -0.0656  0.1801
 8071TIP3   OH245703   3.164   6.744   4.380 -0.4187  0.4441  0.5351
 8071TIP3    H145704   3.237   6.699   4.337 -2.0075 -0.9955 -0.7707
 8071TIP3    H245705   3.140   6.687   4.453 -1.0023  0.3091  0.2397
 8072TIP3   OH245706   1.126   0.941   2.390  0.7680  0.6422 -0.7153
 8072TIP3    H145707   1.204   0.898   2.354 -0.0408 -1.7533  0.1918
 8072TIP3    H245708   1.061   0.936   2.321  1.0359  1.5320 -1.0380
 8073TIP3   OH245709   5.108   3.524   5.362 -0.3534 -0.5348  0.0608
 8073TIP3    H145710   5.086   3.438   5.398 -0.2076 -1.1963 -1.3667
 8073TIP3    H245711   5.081   3.519   5.270  1.6603  0.1790 -0.6098
 8074TIP3   OH245712   5.350   3.107   1.804 -0.2091 -0.2663  0.3483
 8074TIP3    H145713   5.302   3.086   1.724  0.6776  1.4130 -0.6875
 8074TIP3    H245714   5.358   3.023   1.850 -2.6724 -0.8911 -0.2059
 8075TIP3   OH245715   6.056   3.656   1.440 -0.3331  0.9508 -0.5097
 8075TIP3    H145716   6.044   3.613   1.524 -0.4684  1.5821 -0.1980
 8075TIP3    H245717   6.151   3.658   1.427 -0.0511  3.5116  1.0860
 8076TIP3   OH245718   0.062   4.401  12.156  0.2091  0.4629  0.5267
 8076TIP3    H145719   0.126   4.442  12.213  1.8466 -2.1685  0.7586
 8076TIP3    H245720   0.101   4.402  12.069 -1.0202  1.8981 -0.0584
 8077TIP3   OH245721   1.470   5.684  16.053  0.0817  0.4855 -0.0744
 8077TIP3    H145722   1.552   5.728  16.032  0.7208 -0.3365  0.5842
 8077TIP3    H245723   1.491   5.630  16.130 -0.8469 -0.3911 -0.4056
 8078TIP3   OH245724   0.753   3.822   5.297 -0.1028  0.5011 -0.6544
 8078TIP3    H145725   0.756   3.903   5.347 -0.5837 -0.2686  0.6742
 8078TIP3    H245726   0.671   3.827   5.248 -0.1104  0.8388 -0.6040
 8079TIP3   OH245727   4.682   3.394   3.602  0.0506  0.5194  0.2006
 8079TIP3    H145728   4.599   3.423   3.565 -0.8158 -0.4696  1.2892
 8079TIP3    H245729   4.715   3.330   3.538  0.0640  1.0196 -0.3038
 8080TIP3   OH245730   1.803   5.023   0.866  0.3002 -0.1393  0.5932
 8080TIP3    H145731   1.879   4.971   0.889  0.7717  0.4319  0.3454
 8080TIP3    H245732   1.759   5.040   0.949  1.7207  1.4915  1.0821
 8081TIP3   OH245733   0.436   4.326  15.469 -0.0699 -0.6420 -0.3983
 8081TIP3    H145734   0.443   4.351  15.377 -3.0299 -0.9116 -0.7981
 8081TIP3    H245735   0.362   4.377  15.502  1.1757 -0.2396  1.9885
 8082TIP3   OH245736   3.446   3.099   0.780 -0.4998  0.7392  0.5138
 8082TIP3    H145737   3.530   3.072   0.817 -0.1666  1.0514 -0.0041
 8082TIP3    H245738   3.420   3.176   0.832  0.5385  1.9029 -0.6196
 8083TIP3   OH245739   1.957   6.576   0.322 -0.0755 -0.3490 -0.0199
 8083TIP3    H145740   1.958   6.482   0.305 -1.0353 -0.3492 -0.1636
 8083TIP3    H245741   1.865   6.596   0.339  0.2003  0.4706  0.5671
 8084TIP3   OH245742   5.828   0.212   4.403  0.7280  0.2592  0.3919
 8084TIP3    H145743   5.888   0.140   4.384  0.1740 -0.0132 -0.3806
 8084TIP3    H245744   5.817   0.210   4.499  1.5194 -0.0221  0.4816
 8085TIP3   OH245745   5.054   2.633  13.106 -0.8944  0.1858 -0.0710
 8085TIP3    H145746   5.079   2.724  13.092 -1.1895  0.5480  1.6047
 8085TIP3    H245747   5.136   2.587  13.122 -0.8553  0.3885  0.3041
 8086TIP3   OH245748   6.143   0.245   3.210 -0.1136  0.1352 -0.1003
 8086TIP3    H145749   6.072   0.278   3.266 -0.3510  1.0933 -0.9357
 8086TIP3    H245750   6.152   0.153   3.235 -1.4641  0.0605  0.2120
 8087TIP3   OH245751   6.066   6.007   3.995  0.1924 -0.1166  0.1557
 8087TIP3    H145752   6.137   6.059   4.032  0.1680  1.3193 -1.6530
 8087TIP3    H245753   6.049   6.047   3.910  0.1740 -3.1152 -1.3915
 8088TIP3   OH245754   5.671   4.262   1.960  0.1512 -0.0707  0.2920
 8088TIP3    H145755   5.646   4.304   2.042  0.4780 -0.2425  0.4840
 8088TIP3    H245756   5.709   4.178   1.986 -1.1585 -0.8145 -0.1372
 8089TIP3   OH245757   4.937   3.236  13.280 -0.2307 -0.3077  0.1231
 8089TIP3    H145758   4.882   3.307  13.248 -0.9887 -0.2356  1.4775
 8089TIP3    H245759   4.994   3.213  13.207 -1.4457  0.2387 -1.0210
 8090TIP3   OH245760   2.641   0.522   3.819 -0.4783 -0.4623  0.1083
 8090TIP3    H145761   2.698   0.469   3.764  1.7508 -0.8588  2.5746
 8090TIP3    H245762   2.682   0.608   3.820  1.1910 -1.1554  3.1659
 8091TIP3   OH245763   3.238   2.156   2.487 -0.4173 -0.3381 -0.1355
 8091TIP3    H145764   3.160   2.194   2.528 -0.2750 -0.1769 -0.0119
 8091TIP3    H245765   3.214   2.065   2.471 -1.5603  0.2862 -2.4247
 8092TIP3   OH245766   5.227   2.117   1.547  0.1875 -0.4635 -0.3620
 8092TIP3    H145767   5.305   2.064   1.565  1.1395  0.6319 -1.0671
 8092TIP3    H245768   5.172   2.106   1.624  1.1670 -1.0571  0.2775
 8093TIP3   OH245769   2.891   4.356  12.615 -0.2489 -0.1963  0.3779
 8093TIP3    H145770   2.864   4.418  12.682 -0.1312 -0.6583  0.8619
 8093TIP3    H245771   2.868   4.270  12.652  2.2390 -0.6559  1.0037
 8094TIP3   OH245772   5.691   5.128   4.903 -0.4548  0.4506  0.1849
 8094TIP3    H145773   5.657   5.173   4.826  0.0600  1.7482  0.6962
 8094TIP3    H245774   5.783   5.113   4.884 -0.1920  1.2813  0.7649
 8095TIP3   OH245775   6.686   2.237   3.867 -0.4609 -0.5580 -0.0098
 8095TIP3    H145776   6.596   2.266   3.857 -0.0619  0.2007 -1.8633
 8095TIP3    H245777   6.735   2.289   3.804  1.2127 -1.2733  0.6334
 8096TIP3   OH245778   1.965   5.468   0.004  0.1943 -0.6872  0.3726
 8096TIP3    H145779   1.933   5.397  -0.051  0.0880 -0.0294 -0.4295
 8096TIP3    H245780   1.892   5.531   0.006  0.9203  0.2099 -0.3884
 8097TIP3   OH245781   6.291   0.787  10.564  0.4605 -0.1621 -0.6602
 8097TIP3    H145782   6.334   0.866  10.596  0.9409 -0.0128 -1.6434
 8097TIP3    H245783   6.345   0.715  10.597  0.7943 -0.0246 -0.9023
 8098TIP3   OH245784   3.940   2.963  13.417 -0.4246 -0.3116  0.2869
 8098TIP3    H145785   4.011   2.925  13.469 -0.2919 -0.6985 -0.1709
 8098TIP3    H245786   3.882   3.003  13.482  0.2220  0.0300  0.6610
 8099TIP3   OH245787   4.354   0.989   0.926 -0.0225  0.3567 -0.7574
 8099TIP3    H145788   4.413   0.922   0.892 -0.3473 -0.8561  0.9134
 8099TIP3    H245789   4.267   0.960   0.899 -0.2031 -0.1630  0.3172
 8100TIP3   OH245790   1.918   4.869   2.239 -0.1330  0.5483 -0.1528
 8100TIP3    H145791   1.832   4.882   2.280 -1.0336 -1.5096 -1.2200
 8100TIP3    H245792   1.899   4.821   2.159  2.0704 -0.5240 -0.1015
 8101TIP3   OH245793   1.571   2.328  16.773  0.6485 -0.5097 -0.2997
 8101TIP3    H145794   1.661   2.299  16.764  1.0573  1.0811 -1.7584
 8101TIP3    H245795   1.547   2.363  16.687 -0.4851  1.4503  0.7241
 8102TIP3   OH245796   6.701   5.267  12.908  0.6921 -0.3325 -0.7534
 8102TIP3    H145797   6.615   5.309  12.900  0.9093  0.2784 -0.0647
 8102TIP3    H245798   6.744   5.315  12.979  2.8186  1.4436 -3.0923
 8103TIP3   OH245799   1.231   2.651  11.724  0.2221 -0.2037  0.3358
 8103TIP3    H145800   1.185   2.733  11.709  0.7775  0.1541  0.5582
 8103TIP3    H245801   1.165   2.594  11.764 -0.0212  0.3100  0.6863
 8104TIP3   OH245802   0.586   4.466   0.511 -0.1803 -0.5501  0.1082
 8104TIP3    H145803   0.678   4.464   0.485 -0.7464 -0.8010 -2.0659
 8104TIP3    H245804   0.548   4.535   0.457 -1.1492  0.0916  1.5522
 8105TIP3   OH245805   4.839   4.338  12.852  0.0045  0.0187  0.0579
 8105TIP3    H145806   4.876   4.288  12.779 -1.8627 -1.6020  0.1529
 8105TIP3    H245807   4.871   4.293  12.930 -0.7913 -0.3758  0.1630
 8106TIP3   OH245808   6.495   1.568  16.586  0.5720 -0.0970  0.1859
 8106TIP3    H145809   6.589   1.582  16.574  0.6588 -0.0944  0.8532
 8106TIP3    H245810   6.454   1.629  16.524  1.0074 -0.8648 -0.8976
 8107TIP3   OH245811   5.118   1.932   3.226  0.2177 -0.2352  0.2778
 8107TIP3    H145812   5.108   1.840   3.205 -2.2233 -0.2017  1.0425
 8107TIP3    H245813   5.185   1.933   3.295  1.0766 -1.2803 -0.5010
 8108TIP3   OH245814   6.536   3.403  16.849  0.3213  0.1098 -0.2265
 8108TIP3    H145815   6.556   3.310  16.841 -1.4442 -0.4064  0.7488
 8108TIP3    H245816   6.616   3.448  16.822  1.4107 -1.6883 -0.1161
 8109TIP3   OH245817   2.014   0.205   6.202  0.0530  0.3144 -0.6328
 8109TIP3    H145818   2.030   0.289   6.244 -1.0936  0.9660 -1.4450
 8109TIP3    H245819   2.097   0.181   6.161  0.6527  0.5718  0.4003
 8110TIP3   OH245820   6.383   1.092   2.209  0.3264 -0.2306 -0.1862
 8110TIP3    H145821   6.447   1.113   2.141 -0.3558  0.1893 -0.7141
 8110TIP3    H245822   6.426   1.115   2.291  1.5378 -1.6512 -0.3762
 8111TIP3   OH245823   2.554   4.864   3.944  0.0250  0.0245  0.3203
 8111TIP3    H145824   2.472   4.875   3.895  0.3458 -1.6936 -0.7028
 8111TIP3    H245825   2.575   4.771   3.933  1.2176  0.0667  2.0147
 8112TIP3   OH245826   6.741   1.429  16.966  0.0521  0.5876 -0.0910
 8112TIP3    H145827   6.751   1.334  16.978 -1.2406  0.4837  0.2731
 8112TIP3    H245828   6.790   1.448  16.886 -0.1351 -0.4775 -0.4732
 8113TIP3   OH245829   6.335   1.933  10.951 -0.7488  0.2285  0.0271
 8113TIP3    H145830   6.318   1.919  11.044 -1.8779 -0.8785 -0.3250
 8113TIP3    H245831   6.314   1.850  10.909 -2.5780  1.3869 -1.5183
 8114TIP3   OH245832   0.181   1.337   0.464  0.0964  0.1508  0.2676
 8114TIP3    H145833   0.268   1.362   0.432 -0.6701 -0.8289 -2.9314
 8114TIP3    H245834   0.120   1.386   0.409 -1.3628 -2.9843 -1.1074
 8115TIP3   OH245835   0.476   1.567  16.306 -0.2457  0.3080 -0.4627
 8115TIP3    H145836   0.481   1.661  16.290 -0.2919  0.1009 -1.8184
 8115TIP3    H245837   0.390   1.541  16.273  0.0932 -0.3332 -0.8724
 8116TIP3   OH245838   1.393   5.052  15.733  0.2773 -0.3806  0.1823
 8116TIP3    H145839   1.328   5.123  15.741 -0.2433 -0.7214 -0.8339
 8116TIP3    H245840   1.361   4.998  15.661  1.5434 -0.7369 -0.1394
 8117TIP3   OH245841   1.073   0.965   4.385  0.1047  0.4700 -0.0486
 8117TIP3    H145842   1.048   0.905   4.456 -0.6107  1.1447  0.2813
 8117TIP3    H245843   1.108   0.908   4.317 -2.5956 -0.5786 -0.6695
 8118TIP3   OH245844   2.003   1.091  15.836  0.1184 -0.2173  0.3848
 8118TIP3    H145845   2.020   0.998  15.851 -0.7605 -0.4780 -0.1784
 8118TIP3    H245846   1.926   1.110  15.889  0.3230  0.2125  0.5369
 8119TIP3   OH245847   2.035   2.362  13.222  0.3933  0.5059 -0.3769
 8119TIP3    H145848   2.061   2.321  13.305 -0.2412  0.8261 -0.0149
 8119TIP3    H245849   1.940   2.365  13.225  0.3877  0.9967 -0.8893
 8120TIP3   OH245850   4.635   3.238  16.458  0.3792  0.6065  0.6039
 8120TIP3    H145851   4.606   3.155  16.496 -0.5371  0.4816 -0.2927
 8120TIP3    H245852   4.686   3.212  16.381 -1.3242  0.8406 -0.6630
 8121TIP3   OH245853   6.540   0.436   0.566 -0.3754  0.4715  0.2045
 8121TIP3    H145854   6.601   0.366   0.591 -0.4944  0.5012  0.5762
 8121TIP3    H245855   6.453   0.395   0.574 -0.3705 -0.0138 -1.6558
 8122TIP3   OH245856   5.312   1.903  13.357 -0.0858 -0.3252  0.0605
 8122TIP3    H145857   5.405   1.924  13.346  0.0190 -1.7276 -2.3858
 8122TIP3    H245858   5.271   1.987  13.378  1.4765  0.6414 -0.5719
 8123TIP3   OH245859   0.796   4.664   5.000  0.4677 -0.2625 -0.5245
 8123TIP3    H145860   0.759   4.620   5.076 -0.3179 -0.1587 -0.8384
 8123TIP3    H245861   0.720   4.689   4.947  1.0273 -1.9084 -2.2159
 8124TIP3   OH245862   2.168   3.191  14.695 -0.2333  0.4413  0.1161
 8124TIP3    H145863   2.120   3.145  14.764  2.5583  0.5635  2.3289
 8124TIP3    H245864   2.172   3.130  14.622 -0.8050 -0.8478  1.1351
 8125TIP3   OH245865   2.246   5.323  12.890 -0.5257 -0.1859 -0.0469
 8125TIP3    H145866   2.271   5.413  12.913  2.0011 -1.0075  0.7301
 8125TIP3    H245867   2.210   5.330  12.802  2.5920  1.2630 -1.3828
 8126TIP3   OH245868   2.079   1.828  16.980  0.0852 -0.3574  0.4968
 8126TIP3    H145869   2.050   1.884  17.051 -0.3873 -0.5794  0.4816
 8126TIP3    H245870   2.167   1.799  17.005  0.0394 -0.1890  0.8424
 8127TIP3   OH245871   4.487   3.713   0.840 -0.1580  0.3231  0.3987
 8127TIP3    H145872   4.559   3.773   0.859 -0.0127  1.1668 -2.4753
 8127TIP3    H245873   4.409   3.757   0.876  0.5643 -0.2493  2.8548
 8128TIP3   OH245874   4.575   2.595  11.858 -0.4206 -0.2595  0.0587
 8128TIP3    H145875   4.534   2.654  11.921 -1.1670 -1.5381  0.8393
 8128TIP3    H245876   4.515   2.595  11.783 -0.6283 -0.3149  0.2209
 8129TIP3   OH245877   0.231   6.423   4.837 -0.3023  0.3546 -0.1988
 8129TIP3    H145878   0.227   6.497   4.776 -0.2210  0.4409 -0.0997
 8129TIP3    H245879   0.297   6.365   4.800 -0.1477  0.4768 -0.1165
 8130TIP3   OH245880   5.898   5.630  15.406  0.3473  0.9902  0.0102
 8130TIP3    H145881   5.842   5.651  15.331 -0.5471  0.6134  0.5592
 8130TIP3    H245882   5.946   5.711  15.423  0.1247  1.2574 -0.6005
 8131TIP3   OH245883   4.914   0.188   0.778  0.0634  0.3216  0.2275
 8131TIP3    H145884   4.981   0.123   0.801  0.3199  0.5300  0.0821
 8131TIP3    H245885   4.960   0.272   0.782 -0.4310  0.5609  1.0504
 8132TIP3   OH245886   4.591   5.632   0.184  0.0078 -0.8353 -0.1267
 8132TIP3    H145887   4.539   5.647   0.263 -1.2867 -0.1040 -1.0816
 8132TIP3    H245888   4.653   5.706   0.182 -0.1229 -0.7200  0.0712
 8133TIP3   OH245889   5.589   4.852  10.939  0.3222 -0.1617  0.3201
 8133TIP3    H145890   5.646   4.781  10.967  0.2607 -0.7723 -1.0212
 8133TIP3    H245891   5.636   4.893  10.866 -0.5193 -0.0684 -0.1823
 8134TIP3   OH245892   3.137   1.872  14.859 -0.0943 -0.1154 -0.2468
 8134TIP3    H145893   3.202   1.915  14.915 -2.3764  0.2012  2.3850
 8134TIP3    H245894   3.058   1.925  14.869 -0.8959 -0.5564 -3.2130
 8135TIP3   OH245895   4.543   2.523   1.063  0.3429  0.5603 -0.3585
 8135TIP3    H145896   4.447   2.514   1.064  0.2753  1.3275  0.2606
 8135TIP3    H245897   4.575   2.433   1.054 -0.4148  0.1718  0.6660
 8136TIP3   OH245898   4.775   1.031  16.012 -0.9397 -0.4929 -0.3685
 8136TIP3    H145899   4.839   1.056  15.945 -1.8782  2.2232 -0.3590
 8136TIP3    H245900   4.811   1.066  16.094 -1.0953 -1.4771  0.1459
 8137TIP3   OH245901   4.090   6.328  12.021 -0.1263  0.0563  0.2578
 8137TIP3    H145902   4.109   6.379  12.099 -1.2074  1.8208 -0.5621
 8137TIP3    H245903   4.162   6.346  11.961 -0.4997  0.6321 -0.0255
 8138TIP3   OH245904   2.691   0.230   3.774  0.4613  0.4546  0.1009
 8138TIP3    H145905   2.745   0.151   3.772  0.0052  0.0459  2.1426
 8138TIP3    H245906   2.706   0.268   3.861 -1.9309  0.7270  0.4744
 8139TIP3   OH245907   3.168   2.030  17.109 -0.7318  0.0432 -0.0849
 8139TIP3    H145908   3.171   1.940  17.078 -0.2871  0.0615 -0.0915
 8139TIP3    H245909   3.203   2.026  17.198 -0.6686  0.2189 -0.1012
 8140TIP3   OH245910   0.385   3.256  11.890 -0.5048  0.0204 -0.4646
 8140TIP3    H145911   0.469   3.260  11.845  0.2887  2.3291  1.0602
 8140TIP3    H245912   0.363   3.347  11.908 -0.4519 -0.6596  4.3224
 8141TIP3   OH245913   1.121   2.505  12.833  0.5330 -0.0177 -0.2055
 8141TIP3    H145914   1.156   2.487  12.920  1.4982 -1.1224 -0.7989
 8141TIP3    H245915   1.066   2.429  12.813 -1.8269  1.4062  0.4648
 8142TIP3   OH245916   4.706   5.199  14.517  0.0659 -0.6988  0.5742
 8142TIP3    H145917   4.780   5.237  14.469 -0.4831 -0.0758  0.2121
 8142TIP3    H245918   4.638   5.189  14.451 -1.0585  1.1184  1.3890
 8143TIP3   OH245919   4.600   3.261  13.081 -0.0762  0.1207  0.3802
 8143TIP3    H145920   4.631   3.171  13.093 -2.7665 -0.7475  1.8477
 8143TIP3    H245921   4.620   3.304  13.164 -0.2260  0.4021  0.2710
 8144TIP3   OH245922   2.890   4.946   5.917 -0.4213  0.0597  0.3599
 8144TIP3    H145923   2.795   4.954   5.926 -0.6357 -1.7617  0.0764
 8144TIP3    H245924   2.918   5.029   5.879 -2.0820  0.1006 -0.8815
 8145TIP3   OH245925   3.130   0.732  10.899 -0.2458  0.1444  0.0297
 8145TIP3    H145926   3.065   0.741  10.829  1.4057  0.1175 -1.5803
 8145TIP3    H245927   3.214   0.742  10.855  0.8384  1.4879  2.2442
 8146TIP3   OH245928   0.929   2.626  11.848  0.1007 -0.0647 -0.0377
 8146TIP3    H145929   0.978   2.545  11.861  1.4658  0.8257  0.6041
 8146TIP3    H245930   0.862   2.603  11.783  0.2034 -1.7810  0.4089
 8147TIP3   OH245931   5.925   4.455  15.122 -0.5442  0.1309 -0.1828
 8147TIP3    H145932   5.956   4.510  15.194 -0.5315  0.7758 -0.6711
 8147TIP3    H245933   5.938   4.366  15.153  1.4640  0.3785 -0.2187
 8148TIP3   OH245934   1.117   0.710   2.106  0.4276 -0.3624 -0.1099
 8148TIP3    H145935   1.116   0.799   2.071 -1.9080 -0.8305 -1.5051
 8148TIP3    H245936   1.201   0.702   2.150  0.9085  2.3568 -0.3623
 8149TIP3   OH245937   2.920   6.102  11.559 -0.5227 -0.3967 -0.0612
 8149TIP3    H145938   2.885   6.190  11.546  0.8875  0.1318 -0.4445
 8149TIP3    H245939   2.865   6.046  11.505 -1.9659  0.1037  0.8260
 8150TIP3   OH245940   3.721   0.498  14.204  0.2442  0.0139 -0.1412
 8150TIP3    H145941   3.734   0.553  14.281 -0.8419  1.2519 -0.8051
 8150TIP3    H245942   3.644   0.445  14.225 -1.4804  1.9873 -1.2052
 8151TIP3   OH245943   6.066   3.717   6.395  0.1505  0.2797 -0.6969
 8151TIP3    H145944   5.982   3.712   6.348 -1.0128 -0.8626  1.3765
 8151TIP3    H245945   6.071   3.635   6.444  2.0115  0.7817  0.0491
 8152TIP3   OH245946   5.508   5.436   4.393  0.3853  0.9778  0.3955
 8152TIP3    H145947   5.601   5.412   4.386 -0.1099 -0.9690 -0.0023
 8152TIP3    H245948   5.497   5.465   4.483  1.2447  0.5634  0.6421
 8153TIP3   OH245949   3.462   6.362  14.012 -0.2686  0.3570  0.2950
 8153TIP3    H145950   3.414   6.321  13.941 -0.2211 -1.2885  1.1661
 8153TIP3    H245951   3.535   6.303  14.029  4.0105  4.0130 -2.8718
 8154TIP3   OH245952   6.094   1.486   2.735 -0.3950  0.8175 -0.5067
 8154TIP3    H145953   6.074   1.458   2.645 -0.7346 -1.2178  0.1553
 8154TIP3    H245954   6.015   1.532   2.764 -0.6054  0.7432 -0.9543
 8155TIP3   OH245955   5.113   1.600  11.268 -0.7579 -0.1664  0.1309
 8155TIP3    H145956   5.090   1.536  11.335 -2.1437  1.6069  1.4564
 8155TIP3    H245957   5.200   1.632  11.294 -0.7795 -0.3209  0.3945
 8156TIP3   OH245958   6.541   4.505  15.020 -0.1634 -0.1687 -0.0856
 8156TIP3    H145959   6.633   4.488  15.002 -0.2833 -2.5996  1.1698
 8156TIP3    H245960   6.540   4.538  15.110 -0.4713  0.5118 -0.3338
 8157TIP3   OH245961   4.712   5.895  12.220  0.4875  0.2961  0.4337
 8157TIP3    H145962   4.775   5.824  12.220  0.7273  0.4881  1.4202
 8157TIP3    H245963   4.627   5.852  12.213  0.6671 -0.0471  0.3540
 8158TIP3   OH245964   4.524   1.129  15.098  0.0289  0.1289 -0.4213
 8158TIP3    H145965   4.484   1.044  15.112  0.3572  0.0961  0.3431
 8158TIP3    H245966   4.567   1.121  15.013 -1.0093 -0.0437 -0.9548
 8159TIP3   OH245967   2.145   6.447   1.390  0.5298 -0.0238  0.1804
 8159TIP3    H145968   2.085   6.498   1.335  1.3350 -0.4510 -1.1425
 8159TIP3    H245969   2.206   6.512   1.424 -0.7642  0.4518  1.7248
 8160TIP3   OH245970   2.826   6.233   6.321 -0.0733  0.1102 -0.1193
 8160TIP3    H145971   2.834   6.207   6.412  0.7007 -2.2270 -0.7631
 8160TIP3    H245972   2.811   6.150   6.274  1.2779  0.9868 -2.2838
 8161TIP3   OH245973   0.386   3.375  12.184  0.4883 -0.1806 -0.2907
 8161TIP3    H145974   0.389   3.445  12.119 -0.6177  0.2787  0.1338
 8161TIP3    H245975   0.466   3.324  12.168  1.1429  0.9735 -0.8198
 8162TIP3   OH245976   5.521   5.685   0.943 -0.0411 -0.6746  0.1406
 8162TIP3    H145977   5.566   5.768   0.929  0.6186 -0.8701  0.9999
 8162TIP3    H245978   5.585   5.618   0.920  0.5440 -0.9721  2.3737
 8163TIP3   OH245979   2.812   1.155   1.998 -0.4162 -0.4518  0.3612
 8163TIP3    H145980   2.749   1.145   1.926 -1.2583 -0.3169  1.0553
 8163TIP3    H245981   2.794   1.080   2.055  0.7540 -0.9764  0.0711
 8164TIP3   OH245982   4.519   3.428   6.405  0.5357 -0.0275  0.6792
 8164TIP3    H145983   4.424   3.418   6.410  0.4932  0.1905  0.3744
 8164TIP3    H245984   4.546   3.367   6.337  0.7756 -1.0263  1.6526
 8165TIP3   OH245985   4.479   6.032   4.942 -0.6391  0.3572 -0.2478
 8165TIP3    H145986   4.571   6.047   4.964 -0.2281 -0.8536 -1.0470
 8165TIP3    H245987   4.454   6.110   4.891  0.0793  0.4959 -0.4061
 8166TIP3   OH245988   4.740   2.611  12.603  0.3414 -0.1779  0.4924
 8166TIP3    H145989   4.648   2.586  12.609  0.4214 -0.5305  0.2649
 8166TIP3    H245990   4.758   2.658  12.685 -0.2030  0.4402  0.2664
 8167TIP3   OH245991   2.361   3.137  16.498 -0.2299  0.0780 -0.1115
 8167TIP3    H145992   2.343   3.226  16.526  1.0661  0.0648  0.8797
 8167TIP3    H245993   2.344   3.083  16.575  2.4977 -0.0667  0.4964
 8168TIP3   OH245994   5.072   2.036   4.025 -0.0269 -0.1780 -0.4950
 8168TIP3    H145995   5.073   1.943   4.002 -1.0790 -0.0765 -1.0086
 8168TIP3    H245996   5.163   2.055   4.050 -0.0466 -1.6114  0.7854
 8169TIP3   OH245997   4.607   1.820   0.132 -0.1386 -0.1805 -0.0922
 8169TIP3    H145998   4.676   1.884   0.152 -1.3710  0.3946  2.9967
 8169TIP3    H245999   4.654   1.740   0.109  1.5779  0.3806  1.2432
 8170TIP3   OH246000   6.050   0.891   6.214  0.3597 -0.2627  0.0368
 8170TIP3    H146001   6.113   0.961   6.197  1.3219 -0.9183  0.8565
 8170TIP3    H246002   6.009   0.915   6.297  0.1003 -0.2618 -0.0895
 8171TIP3   OH246003   3.081   2.175   3.732 -0.7314  0.2250 -0.0394
 8171TIP3    H146004   3.097   2.186   3.638  1.5691  0.4261  0.2998
 8171TIP3    H246005   3.048   2.085   3.739 -1.7012  0.4721 -1.0955
 8172TIP3   OH246006   5.163   3.339  12.433  0.1479 -0.1319 -0.7065
 8172TIP3    H146007   5.070   3.341  12.410  0.2653  0.7444 -1.1417
 8172TIP3    H246008   5.186   3.431  12.450  0.3092 -0.5970  2.0570
 8173TIP3   OH246009   1.055   6.347   1.739 -0.3280  0.6391 -0.1731
 8173TIP3    H146010   1.083   6.360   1.830  1.1074 -0.4690 -0.4288
 8173TIP3    H246011   1.077   6.256   1.720 -0.0865  1.0172 -1.8147
 8174TIP3   OH246012   2.787   1.354  16.292  0.4040  0.4704  0.1127
 8174TIP3    H146013   2.730   1.288  16.253 -1.7972 -0.1139  3.8554
 8174TIP3    H246014   2.872   1.311  16.298 -0.4188 -1.2043  0.4000
 8175TIP3   OH246015   6.655   4.719   2.966  0.2436  0.0976 -0.3109
 8175TIP3    H146016   6.560   4.710   2.958  0.0884  1.6203 -0.3591
 8175TIP3    H246017   6.677   4.797   2.916  1.3401  0.5702  0.8492
 8176TIP3   OH246018   5.870   5.431   4.582  0.7736 -0.0224  0.3745
 8176TIP3    H146019   5.948   5.486   4.573 -1.1317  2.9669  0.7390
 8176TIP3    H246020   5.849   5.404   4.493  0.5430  1.7732 -0.1597
 8177TIP3   OH246021   3.694   3.520   4.945 -0.3165 -0.1849 -0.4775
 8177TIP3    H146022   3.772   3.491   4.992  0.7878  1.6135 -1.0925
 8177TIP3    H246023   3.633   3.544   5.015  1.6055  3.2742  0.2684
 8178TIP3   OH246024   2.107   1.763  15.233  0.0755  0.1557  0.1099
 8178TIP3    H146025   2.113   1.689  15.173 -1.6729 -0.9587  1.1967
 8178TIP3    H246026   2.069   1.833  15.181  0.7812 -0.0343 -0.6789
 8179TIP3   OH246027   6.616   6.200   0.532 -0.0424  0.3819 -0.1170
 8179TIP3    H146028   6.551   6.162   0.473 -0.6204  1.0992  0.0503
 8179TIP3    H246029   6.571   6.207   0.616  0.5416  0.0605  0.2288
 8180TIP3   OH246030   6.104   6.693  15.271  0.1860  0.4621  0.2337
 8180TIP3    H146031   6.152   6.724  15.194 -0.6479  1.5009  0.1107
 8180TIP3    H246032   6.150   6.732  15.346  2.1396 -2.0283  0.4617
 8181TIP3   OH246033   3.473   5.992   5.938  0.4986  0.1226 -0.8094
 8181TIP3    H146034   3.423   5.970   5.859 -2.1876 -0.5173  0.9434
 8181TIP3    H246035   3.436   5.937   6.006  1.6451  1.7634  1.2502
 8182TIP3   OH246036   6.699   4.704  14.130 -0.0351 -0.6097 -0.6759
 8182TIP3    H146037   6.794   4.707  14.144  0.2602 -1.9689 -2.1601
 8182TIP3    H246038   6.662   4.734  14.213  1.6693 -1.7451  0.5635
 8183TIP3   OH246039   4.508   3.638  14.380 -0.4990  0.3382 -0.1764
 8183TIP3    H146040   4.590   3.664  14.421  0.1448 -1.1040 -0.4892
 8183TIP3    H246041   4.487   3.710  14.321 -0.8858  1.9445  1.8173
 8184TIP3   OH246042   1.515   6.058  16.017 -0.1760 -0.2571 -0.3287
 8184TIP3    H146043   1.551   6.066  15.929  3.2603 -1.8136  0.7660
 8184TIP3    H246044   1.472   5.973  16.019  0.3385 -0.5220 -0.3540
 8185TIP3   OH246045   0.369   3.555   2.627  0.2587 -0.6317 -0.4021
 8185TIP3    H146046   0.282   3.522   2.648 -0.4768  1.4194 -0.0219
 8185TIP3    H246047   0.404   3.492   2.563 -1.2558 -1.7800 -0.1478
 8186TIP3   OH246048   1.794   1.414  10.676  0.0276 -0.3170  0.7608
 8186TIP3    H146049   1.851   1.413  10.599 -0.3002 -0.8061  0.5236
 8186TIP3    H246050   1.817   1.495  10.721  0.4549 -0.1897  0.3240
 8187TIP3   OH246051   5.360   1.954  16.677  0.2603  0.1252 -0.0367
 8187TIP3    H146052   5.324   2.017  16.739 -1.4408 -0.1944 -0.6473
 8187TIP3    H246053   5.429   2.001  16.631  2.0059  0.1922  2.4533
 8188TIP3   OH246054   2.818   1.248   2.812  0.3473 -0.6726 -0.2927
 8188TIP3    H146055   2.867   1.208   2.884  1.2895  0.9605  0.0408
 8188TIP3    H246056   2.867   1.328   2.792 -2.1187  1.0408 -0.0021
 8189TIP3   OH246057   1.145   6.545   0.222  0.0587 -0.3351  0.3387
 8189TIP3    H146058   1.214   6.483   0.243 -0.9858 -1.3597  0.8722
 8189TIP3    H246059   1.065   6.492   0.217 -0.8832  0.9607  0.8823
 8190TIP3   OH246060   1.852   5.356  15.889  0.2603 -0.2704 -0.5034
 8190TIP3    H146061   1.875   5.264  15.874  1.1798 -0.0432 -0.5254
 8190TIP3    H246062   1.931   5.405  15.867 -0.3303  0.5630 -0.8493
 8191TIP3   OH246063   6.085   0.798  12.544 -0.6810  0.0507  0.0167
 8191TIP3    H146064   6.091   0.739  12.469  2.8429  1.2067 -0.8245
 8191TIP3    H246065   6.156   0.771  12.602  1.1725  3.2923 -0.4522
 8192TIP3   OH246066   5.152   5.722  11.723  0.2228 -0.7081  0.2887
 8192TIP3    H146067   5.104   5.804  11.736  1.2629 -0.1659  0.7700
 8192TIP3    H246068   5.240   5.739  11.757  0.9927 -1.4564 -1.2172
 8193TIP3   OH246069   2.700   1.160   1.745  0.1859 -0.3049 -0.4444
 8193TIP3    H146070   2.741   1.230   1.694 -2.0623  1.9959  0.6958
 8193TIP3    H246071   2.607   1.183   1.747 -0.6670 -3.3378  0.0670
 8194TIP3   OH246072   5.416   4.529  13.945 -0.2441  0.4609  0.6230
 8194TIP3    H146073   5.357   4.475  13.893 -0.8109  0.9906  0.6955
 8194TIP3    H246074   5.480   4.561  13.882 -0.3293  0.2836  0.4438
 8195TIP3   OH246075   4.133   5.551  14.880 -0.3875 -0.0571 -0.1049
 8195TIP3    H146076   4.158   5.462  14.854 -1.3460 -0.3636 -0.0281
 8195TIP3    H246077   4.038   5.554  14.865 -0.4447  0.7879  0.3775
 8196TIP3   OH246078   3.615   1.151  14.587 -0.5295  0.4515 -0.3881
 8196TIP3    H146079   3.704   1.158  14.553  0.0205  2.7137  1.2458
 8196TIP3    H246080   3.578   1.076  14.542  3.0028 -2.1996  0.6890
 8197TIP3   OH246081   0.351   3.651   4.081  0.4053  0.2247 -0.3408
 8197TIP3    H146082   0.283   3.586   4.061 -0.2413  0.8514 -0.2289
 8197TIP3    H246083   0.331   3.680   4.170  0.8976  0.3219 -0.2590
 8198TIP3   OH246084   3.358   0.009  14.542 -0.1278  0.1394 -0.4397
 8198TIP3    H146085   3.332  -0.082  14.531  0.5049 -0.2330  0.9081
 8198TIP3    H246086   3.396   0.013  14.630  0.1287  1.6401 -0.5850
 8199TIP3   OH246087   0.071   5.442   2.158 -0.3319  0.3108  0.3511
 8199TIP3    H146088   0.129   5.450   2.235  1.2431 -0.0227 -0.7552
 8199TIP3    H246089   0.108   5.503   2.094 -0.3235 -0.9736 -0.9079
 8200TIP3   OH246090   6.370   6.507   4.494 -0.5242 -0.2689 -0.1439
 8200TIP3    H146091   6.364   6.599   4.467  1.6931  0.6572  2.0353
 8200TIP3    H246092   6.452   6.477   4.457 -1.0152 -1.2461 -0.4544
 8201TIP3   OH246093   4.590   6.458  12.380 -0.3895 -0.3371  0.2014
 8201TIP3    H146094   4.594   6.427  12.470  2.6208 -0.6129  0.0821
 8201TIP3    H246095   4.677   6.437  12.344 -1.2670  0.3818 -2.5521
 8202TIP3   OH246096   4.719   1.104  12.215  0.1358  0.8097  0.1675
 8202TIP3    H146097   4.783   1.058  12.161 -0.1470  0.8934 -0.2396
 8202TIP3    H246098   4.772   1.154  12.278  0.4406 -0.2115  0.7351
 8203TIP3   OH246099   3.028   0.667   2.325 -0.2911 -0.1327  0.0594
 8203TIP3    H146100   3.096   0.713   2.373  0.2671  0.0743 -0.8998
 8203TIP3    H246101   3.025   0.711   2.240 -0.1003 -1.5308 -0.6980
 8204TIP3   OH246102   0.261   4.274  10.929  0.5306  0.6634 -0.2364
 8204TIP3    H146103   0.230   4.190  10.894 -0.2359  0.9030 -0.1437
 8204TIP3    H246104   0.337   4.296  10.875  0.0305  0.4866 -1.0244
 8205TIP3   OH246105   5.171   6.541   0.497 -0.3140  0.0370  0.1281
 8205TIP3    H146106   5.124   6.618   0.531  0.3039  0.2432  0.5431
 8205TIP3    H246107   5.102   6.483   0.465 -0.7966  0.7213 -0.0972
 8206TIP3   OH246108   1.992   0.438   0.378 -0.4350  0.0088 -0.4198
 8206TIP3    H146109   1.926   0.497   0.416  0.4544  0.6163  0.2301
 8206TIP3    H246110   2.065   0.442   0.440  1.3171  1.4703 -2.4524
 8207TIP3   OH246111   6.090   4.803  11.498  0.5565 -0.0349 -0.0861
 8207TIP3    H146112   6.013   4.746  11.489  0.5678 -0.0314 -0.2122
 8207TIP3    H246113   6.151   4.752  11.551  0.6843 -0.2626 -0.4511
 8208TIP3   OH246114   4.587   5.520   5.478 -0.1055 -0.2009 -0.2799
 8208TIP3    H146115   4.566   5.475   5.560  1.8803 -1.5275 -0.4075
 8208TIP3    H246116   4.519   5.586   5.468 -0.0494  0.4428  2.7674
 8209TIP3   OH246117   1.082   1.462  11.888 -0.4984  0.2325 -0.2827
 8209TIP3    H146118   1.027   1.507  11.823 -0.9670  1.1108  0.7047
 8209TIP3    H246119   1.142   1.529  11.919 -3.0454  1.1482  3.3301
 8210TIP3   OH246120   5.932   5.948   4.999 -0.3121 -0.0607 -0.0513
 8210TIP3    H146121   5.913   6.025   4.946 -2.5257 -0.0414  0.6748
 8210TIP3    H246122   5.901   5.875   4.945  0.6080 -0.3645 -0.1951
 8211TIP3   OH246123   1.357   5.907  14.213  0.1093  1.2522  0.2695
 8211TIP3    H146124   1.332   5.994  14.244 -0.8274  0.2226  2.6021
 8211TIP3    H246125   1.274   5.865  14.190  0.7028  1.6906 -3.1514
 8212TIP3   OH246126   1.420   2.795  13.683  0.3757  0.3602  0.1641
 8212TIP3    H146127   1.504   2.822  13.718  1.3758 -2.0858 -0.1595
 8212TIP3    H246128   1.368   2.769  13.759  0.6297  0.0225  0.2220
 8213TIP3   OH246129   1.867   4.147   5.974 -0.2702  0.6078 -0.0613
 8213TIP3    H146130   1.896   4.116   6.060  1.5209 -1.2005 -1.2276
 8213TIP3    H246131   1.919   4.226   5.959  1.1556 -0.3518 -0.3967
 8214TIP3   OH246132   6.098   1.584  17.013  0.3714  0.5209 -0.3514
 8214TIP3    H146133   6.104   1.648  17.084 -1.6479  1.3252 -0.8178
 8214TIP3    H246134   6.058   1.633  16.940 -1.5974 -1.3039 -0.6030
 8215TIP3   OH246135   4.709   0.986   0.882 -0.5361 -0.3739  0.2008
 8215TIP3    H146136   4.685   0.901   0.921 -1.0016 -0.4157 -0.1650
 8215TIP3    H246137   4.673   1.051   0.942  1.1351 -0.3987  1.3087
 8216TIP3   OH246138   4.800   2.856  11.312  0.3350 -0.0417 -0.1629
 8216TIP3    H146139   4.820   2.867  11.219  2.1202 -1.0957  0.0363
 8216TIP3    H246140   4.853   2.781  11.339 -1.1974 -0.6420  1.4029
 8217TIP3   OH246141   3.267   0.873  14.671  0.0335  0.7006  0.3459
 8217TIP3    H146142   3.180   0.905  14.649 -0.3091 -0.5826 -0.2038
 8217TIP3    H246143   3.323   0.907  14.602  0.3796  3.1606  1.7063
 8218TIP3   OH246144   0.185   5.279   0.479  0.1369  0.5863 -0.0777
 8218TIP3    H146145   0.269   5.321   0.499 -0.5763  1.7660  0.5564
 8218TIP3    H246146   0.120   5.333   0.524 -1.0816  0.3404 -1.4692
 8219TIP3   OH246147   5.461   0.881  12.626  0.6695  0.4146  0.3978
 8219TIP3    H146148   5.403   0.884  12.702 -0.2420 -1.2109 -0.1806
 8219TIP3    H246149   5.523   0.811  12.645  0.7899  0.3692 -0.1304
 8220TIP3   OH246150   0.189   0.547   3.543  0.5894 -0.3904 -0.5711
 8220TIP3    H146151   0.207   0.607   3.471  1.6838 -0.6590 -0.5520
 8220TIP3    H246152   0.104   0.573   3.577  1.0174  1.1039 -0.6000
 8221TIP3   OH246153   2.093   1.084   2.247  0.1068  0.3764  0.0434
 8221TIP3    H146154   2.171   1.132   2.219 -0.1219  0.7253 -0.0004
 8221TIP3    H246155   2.105   0.996   2.212  1.1030  0.0525  1.1329
 8222TIP3   OH246156   3.271   1.820  11.811  0.0229 -0.4675 -0.0480
 8222TIP3    H146157   3.199   1.759  11.825  1.3060 -1.5866  2.2424
 8222TIP3    H246158   3.254   1.891  11.873 -0.6158  0.7670 -1.5783
 8223TIP3   OH246159   1.251   5.757  11.266  0.4216 -0.2566  0.4403
 8223TIP3    H146160   1.219   5.667  11.260 -0.7988  0.0567  1.6168
 8223TIP3    H246161   1.175   5.810  11.242  1.2260  0.4697 -0.5577
 8224TIP3   OH246162   2.535   2.791  13.063 -0.6008 -0.7742 -0.0132
 8224TIP3    H146163   2.630   2.782  13.054 -0.5717  0.5289 -1.5381
 8224TIP3    H246164   2.506   2.706  13.095  1.2292 -0.7184  2.0204
 8225TIP3   OH246165   3.886   5.248   1.465  0.1312 -0.2480  0.0402
 8225TIP3    H146166   3.975   5.263   1.432 -0.2961  0.8432 -0.7025
 8225TIP3    H246167   3.857   5.169   1.421  0.5360 -0.2882 -0.1569
 8226TIP3   OH246168   3.086   1.911   2.055 -0.3307 -0.5728 -0.6744
 8226TIP3    H146169   3.090   1.869   2.141 -0.4627  0.6679 -0.0504
 8226TIP3    H246170   2.994   1.933   2.043 -0.2127 -0.1837 -0.8687
 8227TIP3   OH246171   4.539   2.151   5.433 -0.3184 -0.4571  0.8325
 8227TIP3    H146172   4.527   2.219   5.366 -0.6078 -0.7787  0.5569
 8227TIP3    H246173   4.562   2.200   5.512 -1.1800  0.0202  0.8061
 8228TIP3   OH246174   3.469   2.165  17.005 -0.0816 -0.4970  0.1923
 8228TIP3    H146175   3.487   2.226  17.076  2.7530  0.2185 -1.0178
 8228TIP3    H246176   3.385   2.194  16.969 -1.4244 -0.6615  2.8971
 8229TIP3   OH246177   2.880   5.159  15.813 -0.2847 -0.1812  0.9318
 8229TIP3    H146178   2.932   5.238  15.803 -0.4694 -0.2247 -0.7727
 8229TIP3    H246179   2.935   5.089  15.778 -0.7027 -0.5470  0.9856
 8230TIP3   OH246180   2.233   6.472   1.680 -0.3683  0.8263  0.3615
 8230TIP3    H146181   2.186   6.555   1.695 -0.2433  1.0587 -0.4624
 8230TIP3    H246182   2.317   6.499   1.642 -0.3990  0.3117 -0.0740
 8231TIP3   OH246183   1.673   6.091   5.359  0.1016 -0.8222  0.2784
 8231TIP3    H146184   1.624   6.171   5.341  1.5118 -0.2956 -1.5105
 8231TIP3    H246185   1.705   6.102   5.449 -0.0911  0.4187  0.2081
 8232TIP3   OH246186   3.892   6.732   4.719 -0.1142 -0.0731 -0.8005
 8232TIP3    H146187   3.935   6.648   4.704  2.7152  0.5741  2.3872
 8232TIP3    H246188   3.963   6.796   4.712 -1.3163  1.5381  0.9365
 8233TIP3   OH246189   3.205   3.440   3.693  0.0830  0.5943 -0.0561
 8233TIP3    H146190   3.183   3.533   3.694  0.6511  0.7312  1.0300
 8233TIP3    H246191   3.286   3.433   3.744 -0.9056 -0.7175  1.4695
 8234TIP3   OH246192   6.199   5.074   2.353  0.1433  0.3893  0.1300
 8234TIP3    H146193   6.211   5.016   2.277 -1.9902 -0.9823  0.7473
 8234TIP3    H246194   6.108   5.060   2.379  0.9587  0.3299  3.3299
 8235TIP3   OH246195   1.714   4.720   4.510 -0.1725 -0.2447 -0.0168
 8235TIP3    H146196   1.708   4.679   4.596  0.4466 -1.1868 -0.4075
 8235TIP3    H246197   1.623   4.740   4.487 -0.2823  0.7444  1.1777
 8236TIP3   OH246198   1.805   5.169  15.342  0.7167 -0.3825  0.0007
 8236TIP3    H146199   1.741   5.222  15.294  0.8839 -0.6462 -0.5244
 8236TIP3    H246200   1.788   5.189  15.434  0.0454 -0.2586 -0.1400
 8237TIP3   OH246201   1.627   2.962  10.803  0.0143  0.0662  0.2595
 8237TIP3    H146202   1.677   3.037  10.773  0.2460 -0.5613 -0.9857
 8237TIP3    H246203   1.578   2.933  10.726  1.3827 -2.2061  0.1544
 8238TIP3   OH246204   1.762   2.832   3.402  0.1384  0.1676 -0.2550
 8238TIP3    H146205   1.767   2.831   3.497  0.2906  1.2150 -0.2421
 8238TIP3    H246206   1.814   2.908   3.376  0.1865 -0.1727 -1.1800
 8239TIP3   OH246207   3.366   3.500   6.446 -0.7127 -0.3420 -0.7108
 8239TIP3    H146208   3.383   3.433   6.512 -1.4136  2.0725  2.1304
 8239TIP3    H246209   3.448   3.549   6.440 -1.3282  0.8327  0.1237
 8240TIP3   OH246210   0.790   5.310  16.349 -0.1555  0.5312 -0.3787
 8240TIP3    H146211   0.814   5.361  16.271  0.3543  1.9220  0.6440
 8240TIP3    H246212   0.866   5.254  16.364 -0.6037 -0.3836 -1.3470
 8241TIP3   OH246213   1.730   1.365  12.562 -0.5442 -0.0647  0.1004
 8241TIP3    H146214   1.778   1.428  12.617  0.1909 -1.8332  1.5760
 8241TIP3    H246215   1.647   1.352  12.608  0.6059 -2.5742  1.6732
 8242TIP3   OH246216   1.551   1.451  15.362  0.0485  0.4507 -0.4108
 8242TIP3    H146217   1.580   1.386  15.427  1.4198  0.6535 -0.7876
 8242TIP3    H246218   1.621   1.516  15.361  0.3860  0.1287 -2.5497
 8243TIP3   OH246219   3.418   0.338  12.491  0.6429  0.1669  0.0773
 8243TIP3    H146220   3.373   0.415  12.457  0.2813  0.4306  1.0882
 8243TIP3    H246221   3.505   0.340  12.451  0.8019  1.3707  0.4458
 8244TIP3   OH246222   0.059   6.781  12.140 -0.0933 -0.1480  0.2536
 8244TIP3    H146223  -0.005   6.801  12.208 -0.0840  0.2396  0.1520
 8244TIP3    H246224   0.089   6.692  12.159 -1.1335 -0.5781 -0.0678
 8245TIP3   OH246225   5.144   2.476   1.457 -0.1674  0.2420  0.0891
 8245TIP3    H146226   5.170   2.476   1.549 -0.2335 -1.3731  0.1355
 8245TIP3    H246227   5.138   2.383   1.433 -0.7149  0.6199 -1.3866
 8246TIP3   OH246228   0.671   1.936   5.341 -1.1847 -0.0412  0.5175
 8246TIP3    H146229   0.676   1.980   5.426 -0.0336 -0.1558  0.5177
 8246TIP3    H246230   0.712   1.851   5.355  1.4014  0.9014 -0.7554
 8247TIP3   OH246231   1.906   4.423  13.255  0.3819 -0.2795 -0.0730
 8247TIP3    H146232   1.822   4.468  13.256  0.6318  0.3907 -2.4854
 8247TIP3    H246233   1.893   4.346  13.311 -2.3219 -0.9860 -1.4780
 8248TIP3   OH246234   3.935   4.660   5.690 -0.2201  0.2841 -0.0268
 8248TIP3    H146235   3.892   4.616   5.617  1.8520 -2.7660  0.3993
 8248TIP3    H246236   3.996   4.722   5.649 -0.5605  0.1174 -0.7942
 8249TIP3   OH246237   2.029   5.410  15.405  0.0962 -0.5138  0.6641
 8249TIP3    H146238   2.054   5.379  15.492 -2.1393 -1.2671  1.1183
 8249TIP3    H246239   1.990   5.333  15.363 -1.6466  0.5659  0.1819
 8250TIP3   OH246240   4.593   2.343  16.827 -0.1071 -0.4593  0.9949
 8250TIP3    H146241   4.590   2.394  16.908  1.6572  2.7424 -0.7602
 8250TIP3    H246242   4.680   2.303  16.826  0.7565  1.2933 -0.1656
 8251TIP3   OH246243   4.266   1.224  12.262 -0.1867  0.2188  0.1988
 8251TIP3    H146244   4.220   1.195  12.341  0.7195 -1.4631  0.1693
 8251TIP3    H246245   4.234   1.166  12.193  1.9529 -1.0856  0.2016
 8252TIP3   OH246246   6.306   4.720   5.100  0.5953  0.0314 -0.5406
 8252TIP3    H146247   6.280   4.634   5.132 -0.9196  1.0051  0.9711
 8252TIP3    H246248   6.393   4.734   5.138 -0.0337  0.0298  0.9446
 8253TIP3   OH246249   3.018   1.926  12.508 -0.0245  0.3957 -0.6919
 8253TIP3    H146250   3.019   1.956  12.599  1.2142 -0.8676 -0.2596
 8253TIP3    H246251   3.005   1.832  12.514  1.9497  0.0034 -1.6917
 8254TIP3   OH246252   5.575   6.316  15.169  0.2125  0.2099 -0.0096
 8254TIP3    H146253   5.625   6.238  15.145 -0.4430 -0.5038  0.8680
 8254TIP3    H246254   5.485   6.285  15.179 -0.2589  1.2954 -0.6747
 8255TIP3   OH246255   3.377   4.473  15.850  0.0446  0.0327 -0.0556
 8255TIP3    H146256   3.463   4.431  15.837 -0.0869 -0.4687  0.6060
 8255TIP3    H246257   3.368   4.479  15.945 -0.9499 -0.5537 -0.0963
 8256TIP3   OH246258   5.602   6.484  13.067  0.2883 -0.7649 -0.3818
 8256TIP3    H146259   5.593   6.443  12.981  0.2540 -1.9971  0.1935
 8256TIP3    H246260   5.515   6.520  13.085 -0.5045 -2.9031  0.3017
 8257TIP3   OH246261   2.413   1.735   5.108  0.0690  1.0096  0.2294
 8257TIP3    H146262   2.499   1.694   5.095 -1.4393 -2.5093  0.2812
 8257TIP3    H246263   2.414   1.812   5.052  2.5030 -0.0911 -1.3971
 8258TIP3   OH246264   6.635   2.074  17.094 -0.0819 -0.4645  0.3917
 8258TIP3    H146265   6.678   2.135  17.034 -1.4298 -0.3259 -0.4662
 8258TIP3    H246266   6.706   2.042  17.151  1.2876 -0.7748 -1.4060
 8259TIP3   OH246267   5.947   0.980  12.355  0.2760 -0.2684 -0.1244
 8259TIP3    H146268   5.958   0.972  12.450  0.0749 -0.3371 -0.1072
 8259TIP3    H246269   5.984   0.899  12.320  0.4630 -0.1879 -0.1124
 8260TIP3   OH246270   4.951   5.352   2.791 -0.0356  0.2649  0.0371
 8260TIP3    H146271   4.904   5.338   2.873 -1.1161  0.5886 -0.5109
 8260TIP3    H246272   4.886   5.387   2.731  0.8478  0.4770 -0.8341
 8261TIP3   OH246273   0.882   5.914   6.296  0.3561 -0.1043  0.1622
 8261TIP3    H146274   0.932   5.930   6.376  0.3930  1.5798 -0.1756
 8261TIP3    H246275   0.791   5.919   6.323  0.3694  0.1455  0.1631
 8262TIP3   OH246276   4.143   6.320  16.579  0.5188 -0.5206  0.1548
 8262TIP3    H146277   4.167   6.246  16.523  0.3706  0.3821 -1.1612
 8262TIP3    H246278   4.220   6.336  16.633  0.6099 -1.5162  0.3339
 8263TIP3   OH246279   4.857   0.105  14.836 -0.4899 -0.5042  0.2593
 8263TIP3    H146280   4.762   0.099  14.824 -0.3392  0.1142 -1.5870
 8263TIP3    H246281   4.884   0.018  14.865 -1.5294 -0.9219  0.0032
 8264TIP3   OH246282   0.662   4.795  13.692 -0.6338 -0.3945 -0.6990
 8264TIP3    H146283   0.576   4.783  13.652 -0.2000 -1.7593 -1.3010
 8264TIP3    H246284   0.723   4.794  13.618  0.2874 -4.0026 -0.0899
 8265TIP3   OH246285   2.096   2.709  15.925  0.0649 -0.5038  0.3229
 8265TIP3    H146286   2.011   2.743  15.897  0.2787  0.5501  0.9306
 8265TIP3    H246287   2.107   2.741  16.014  1.7296  0.5755 -0.2276
 8266TIP3   OH246288   2.459   2.224   0.098  0.2110  0.4654 -0.3902
 8266TIP3    H146289   2.432   2.212   0.007  0.3313  1.5801 -0.5969
 8266TIP3    H246290   2.551   2.252   0.091 -0.3477  2.5753 -0.0869
 8267TIP3   OH246291   6.043   5.865  16.519 -0.1190 -0.2218  0.3464
 8267TIP3    H146292   6.037   5.784  16.570  1.4097 -1.6944 -1.6719
 8267TIP3    H246293   5.987   5.926  16.566  0.5564 -1.6893  3.3216
 8268TIP3   OH246294   3.910   0.758  12.909 -0.0497 -0.3587 -0.4737
 8268TIP3    H146295   3.985   0.763  12.850 -0.3526  0.2887 -0.8175
 8268TIP3    H246296   3.936   0.811  12.985 -1.1580  2.2422 -1.7584
 8269TIP3   OH246297   1.506   1.508  15.689 -0.6414 -0.2341  0.0516
 8269TIP3    H146298   1.577   1.445  15.679 -0.0240  0.4946 -0.3469
 8269TIP3    H246299   1.539   1.571  15.754 -1.5708 -0.7548  1.0606
 8270TIP3   OH246300   1.862   3.187  16.088 -0.6429 -0.4753  0.1291
 8270TIP3    H146301   1.806   3.143  16.152 -1.2712  3.2247  2.4630
 8270TIP3    H246302   1.937   3.218  16.138  0.2985  0.1615 -1.5693
 8271TIP3   OH246303   0.065   0.261   4.035  0.0537  0.2557  0.1152
 8271TIP3    H146304   0.060   0.345   4.080 -0.4787  0.9855 -1.2550
 8271TIP3    H246305   0.132   0.273   3.969 -0.1044 -0.3685 -0.1685
 8272TIP3   OH246306   1.483   5.729  15.513  0.2288  0.3455  0.0768
 8272TIP3    H146307   1.493   5.729  15.418 -0.6626 -1.1405 -0.0419
 8272TIP3    H246308   1.519   5.645  15.542  0.2020  0.6440  1.0193
 8273TIP3   OH246309   0.995   0.221   4.146  0.1384  0.2761 -0.0717
 8273TIP3    H146310   0.995   0.141   4.093  0.2373  0.1369  0.1397
 8273TIP3    H246311   1.036   0.287   4.090  0.8214 -0.0265  0.0685
 8274TIP3   OH246312   2.694   0.090  15.046 -0.4497 -0.2494 -0.1381
 8274TIP3    H146313   2.605   0.067  15.074 -0.9290  0.8900 -0.6417
 8274TIP3    H246314   2.718   0.165  15.101  0.4381 -0.9097  0.3907
 8275TIP3   OH246315   6.160   6.224  11.924 -0.0466 -0.2518  0.1948
 8275TIP3    H146316   6.149   6.240  12.018  0.3798  0.3919  0.1333
 8275TIP3    H246317   6.080   6.176  11.899  0.2506 -1.2522  1.0672
 8276TIP3   OH246318   2.517   2.941   2.787  0.2817  0.3201  0.6502
 8276TIP3    H146319   2.526   2.949   2.882 -0.2201  1.9307  0.5911
 8276TIP3    H246320   2.549   2.853   2.767 -2.6385 -1.3737  2.6727
 8277TIP3   OH246321   4.591   6.791  16.619 -0.2750 -0.1906 -0.0129
 8277TIP3    H146322   4.534   6.865  16.637  0.6501  0.8121 -1.0697
 8277TIP3    H246323   4.661   6.799  16.683  0.6723  0.8151 -1.1264
 8278TIP3   OH246324   6.576   3.688  16.784  0.2816  0.0640  0.2746
 8278TIP3    H146325   6.564   3.724  16.871  1.3385 -0.8055  0.8041
 8278TIP3    H246326   6.609   3.761  16.732 -0.3640  0.5891  0.5956
 8279TIP3   OH246327   4.069   0.341   0.878  0.1855 -0.0244  0.5157
 8279TIP3    H146328   4.164   0.335   0.890  1.0871  2.4323 -3.3620
 8279TIP3    H246329   4.047   0.429   0.909 -0.3532  0.2170 -0.4994
 8280TIP3   OH246330   5.308   0.446   3.961 -0.2537 -0.2561  0.2858
 8280TIP3    H146331   5.369   0.518   3.978  0.2958 -1.0593  1.9248
 8280TIP3    H246332   5.236   0.486   3.913  1.1789  0.8734 -1.0321
 8281TIP3   OH246333   3.257   3.512  10.458  0.2113 -0.1418 -0.0300
 8281TIP3    H146334   3.289   3.450  10.523 -0.1198 -0.9057 -0.5820
 8281TIP3    H246335   3.238   3.459  10.381  1.2694  0.8211 -1.0030
 8282TIP3   OH246336   3.847   1.892  12.300 -0.7773 -0.1202 -0.1690
 8282TIP3    H146337   3.819   1.908  12.390 -0.0069 -1.1747  0.2725
 8282TIP3    H246338   3.880   1.977  12.269  0.4522 -0.1111  1.0846
 8283TIP3   OH246339   4.424   4.294  15.874  0.0399 -0.5838  0.2447
 8283TIP3    H146340   4.452   4.385  15.868 -0.9326 -0.2860  0.0599
 8283TIP3    H246341   4.355   4.286  15.809  0.1318 -1.4676  0.2424
 8284TIP3   OH246342   4.380   5.802   2.619 -0.6513  0.3797 -0.0449
 8284TIP3    H146343   4.291   5.773   2.597 -0.3366 -0.9279  0.3223
 8284TIP3    H246344   4.368   5.856   2.697 -0.8791 -2.1381  1.7744
 8285TIP3   OH246345   1.861   4.346   4.082  0.2418  0.7372 -0.0107
 8285TIP3    H146346   1.802   4.274   4.057  0.5584  0.0630  1.0872
 8285TIP3    H246347   1.806   4.423   4.085 -0.3181  0.3504 -0.2708
 8286TIP3   OH246348   5.315   6.814   5.232 -0.1233  0.1701  0.4431
 8286TIP3    H146349   5.230   6.788   5.197  0.4551 -0.9810 -0.1787
 8286TIP3    H246350   5.372   6.817   5.155  0.4540  0.6929  0.8864
 8287TIP3   OH246351   1.090   4.380  13.075 -0.1100 -0.5754 -0.4948
 8287TIP3    H146352   1.084   4.331  12.992 -0.7930 -0.4739 -0.5124
 8287TIP3    H246353   1.184   4.390  13.090  0.0249 -0.4869 -1.3260
 8288TIP3   OH246354   3.108   2.426  14.472  0.4425  0.0668  0.5592
 8288TIP3    H146355   3.191   2.470  14.455 -0.7198  2.5249  0.6863
 8288TIP3    H246356   3.096   2.432  14.566 -0.8005  1.7127  0.3505
 8289TIP3   OH246357   3.758   1.849  16.051 -0.4808  0.3414  0.0349
 8289TIP3    H146358   3.789   1.760  16.034 -1.0583  0.1242  0.1032
 8289TIP3    H246359   3.828   1.905  16.018  0.0760 -0.1421  0.3693
 8290TIP3   OH246360   0.562   5.466  14.320 -0.2199  0.4392 -0.2149
 8290TIP3    H146361   0.653   5.480  14.346  0.7988 -0.2783 -3.0488
 8290TIP3    H246362   0.558   5.375  14.291 -1.1925  1.0806 -2.3251
 8291TIP3   OH246363   4.421   6.265   0.948  0.8792 -0.7675  0.0129
 8291TIP3    H146364   4.498   6.310   0.913  0.0537  1.3915  0.7974
 8291TIP3    H246365   4.354   6.332   0.953 -1.0035 -2.5215 -0.3261
 8292TIP3   OH246366   2.883   5.122  16.086 -0.4838 -0.0365 -0.5592
 8292TIP3    H146367   2.854   5.138  15.996  0.5525 -0.8088 -1.0578
 8292TIP3    H246368   2.970   5.082  16.076 -0.3173 -0.0479  0.7898
 8293TIP3   OH246369   0.713   0.544   6.076  0.9175  0.4165 -0.3695
 8293TIP3    H146370   0.784   0.510   6.021  0.4461 -1.6407  0.2173
 8293TIP3    H246371   0.752   0.552   6.163  0.8828  0.9677 -0.3983
 8294TIP3   OH246372   6.084   3.969   3.825 -0.0571  0.7453 -0.3813
 8294TIP3    H146373   6.081   3.874   3.810  1.7700  0.4127  0.9896
 8294TIP3    H246374   6.029   4.006   3.756 -1.6905 -1.3678 -0.3098
 8295TIP3   OH246375   0.464   0.570  15.410 -0.6809  0.3136  0.2941
 8295TIP3    H146376   0.440   0.629  15.482 -2.0101  1.3429 -0.9222
 8295TIP3    H246377   0.523   0.621  15.355  0.0360 -0.3381  0.4432
 8296TIP3   OH246378   3.820   5.416   6.296  0.3525  0.1216 -0.6657
 8296TIP3    H146379   3.774   5.492   6.333 -0.4704 -1.0726  0.8811
 8296TIP3    H246380   3.912   5.434   6.314  0.0407  0.0013  1.2939
 8297TIP3   OH246381   0.568   0.330  15.955  0.1081 -0.4518 -0.0730
 8297TIP3    H146382   0.483   0.360  15.922 -0.0260  0.8870  1.3923
 8297TIP3    H246383   0.631   0.358  15.888 -0.7000 -2.8051 -1.9287
 8298TIP3   OH246384   1.881   0.381  13.542  0.1208  0.3340 -0.7544
 8298TIP3    H146385   1.798   0.421  13.570  0.7249  1.0097  0.1540
 8298TIP3    H246386   1.878   0.292  13.578  0.2018  0.6791  0.1265
 8299TIP3   OH246387   1.821   6.445  12.161  0.1973  0.3774  0.2886
 8299TIP3    H146388   1.856   6.490  12.084 -0.8771  1.4869  0.4310
 8299TIP3    H246389   1.733   6.417  12.135 -0.0155  0.3906  0.9749
 8300TIP3   OH246390   2.985   3.564  16.672 -0.1478 -0.0622  0.2314
 8300TIP3    H146391   3.075   3.542  16.694 -0.4104 -3.2200 -1.2456
 8300TIP3    H246392   2.992   3.616  16.592  0.4213 -2.1897 -1.1940
 8301TIP3   OH246393   3.928   6.574  16.634  0.3003 -0.1006  0.2007
 8301TIP3    H146394   3.985   6.510  16.592  0.4516  0.0831  0.1276
 8301TIP3    H246395   3.977   6.656  16.631  0.0420  0.0529  0.1569
 8302TIP3   OH246396   2.878   6.172   0.067 -0.2092 -0.4382  0.2527
 8302TIP3    H146397   2.875   6.266   0.088  0.9789 -0.6297  1.4029
 8302TIP3    H246398   2.830   6.129   0.138  0.7041 -0.8166  0.6537
 8303TIP3   OH246399   1.622   5.109   2.688 -0.4684  0.0271  0.1370
 8303TIP3    H146400   1.605   5.043   2.754  0.8168 -0.5716 -0.1141
 8303TIP3    H246401   1.536   5.125   2.648 -0.6192 -2.4034 -0.6406
 8304TIP3   OH246402   3.430   0.327   0.489 -0.5172 -0.7995 -0.0718
 8304TIP3    H146403   3.496   0.302   0.424  0.0397 -1.4045  0.7126
 8304TIP3    H246404   3.442   0.421   0.501 -1.6042 -0.3637 -1.9065
 8305TIP3   OH246405   2.912   6.747   5.007 -0.2347 -0.3258  0.4908
 8305TIP3    H146406   2.885   6.768   4.918 -0.8100 -1.2280  0.4373
 8305TIP3    H246407   2.944   6.830   5.043  2.3213 -0.4048 -1.3234
 8306TIP3   OH246408   6.788   1.947  13.487 -0.1709 -0.9630  0.2773
 8306TIP3    H146409   6.868   1.897  13.466 -0.3538 -0.7079 -1.1016
 8306TIP3    H246410   6.816   2.009  13.554  0.8263 -0.8364 -0.2320
 8307TIP3   OH246411   5.554   0.455   1.442  0.4190  0.0293 -0.3421
 8307TIP3    H146412   5.632   0.510   1.435  0.6489 -0.1267  0.8379
 8307TIP3    H246413   5.490   0.510   1.488  0.4608 -0.4886  0.3450
 8308TIP3   OH246414   5.302   4.648  15.601  0.2350  0.4074  0.4847
 8308TIP3    H146415   5.245   4.581  15.639  2.5925 -1.0418  1.6902
 8308TIP3    H246416   5.281   4.728  15.648 -0.7896 -0.1009  0.9138
 8309TIP3   OH246417   2.796   6.755  16.185 -0.1257 -0.5598 -0.9907
 8309TIP3    H146418   2.814   6.841  16.223 -2.0839 -1.6744  3.0453
 8309TIP3    H246419   2.873   6.702  16.206 -0.2249 -0.5832 -0.6899
 8310TIP3   OH246420   2.003   2.928  15.214 -0.0752 -0.2606  0.5416
 8310TIP3    H146421   1.954   2.880  15.147  1.1379  0.0556 -0.5913
 8310TIP3    H246422   2.090   2.888  15.214  0.2994  0.5284  1.0936
 8311TIP3   OH246423   6.732   2.439  13.075 -0.5190  0.0781 -0.3007
 8311TIP3    H146424   6.694   2.354  13.100  3.5039 -1.1650  2.5229
 8311TIP3    H246425   6.810   2.416  13.024 -0.4577  2.2257 -1.2706
 8312TIP3   OH246426   5.544   4.027   2.691 -0.3916 -0.4087 -0.5479
 8312TIP3    H146427   5.557   4.052   2.599  0.8225 -2.0572 -0.8751
 8312TIP3    H246428   5.631   4.030   2.729 -0.1933 -3.4300 -0.5059
 8313TIP3   OH246429   6.128   2.401   2.975 -0.2262 -0.1449  0.4323
 8313TIP3    H146430   6.041   2.392   2.937 -0.2528 -0.6817  0.6159
 8313TIP3    H246431   6.162   2.312   2.979  0.0101 -0.0273  1.1129
 8314TIP3   OH246432   6.287   5.101   5.182 -0.5651 -0.5157 -0.0182
 8314TIP3    H146433   6.347   5.141   5.119  0.0474 -1.2385  0.0924
 8314TIP3    H246434   6.325   5.015   5.199 -0.6740 -0.2937  1.4115
 8315TIP3   OH246435   2.966   6.378   2.558 -0.3088  0.0925 -0.0700
 8315TIP3    H146436   3.009   6.317   2.497 -0.1828 -0.9980  1.0552
 8315TIP3    H246437   2.882   6.398   2.517 -0.6301 -1.3669 -0.1892
 8316TIP3   OH246438   2.284   4.008  15.744  0.9302  0.3768 -0.3079
 8316TIP3    H146439   2.321   4.062  15.813 -0.9992  0.7998  0.4791
 8316TIP3    H246440   2.335   3.927  15.747  1.1697  0.5536  1.3331
 8317TIP3   OH246441   6.453   0.381   4.558 -0.5771 -0.7555 -0.3944
 8317TIP3    H146442   6.385   0.361   4.622  0.3732 -1.6689  0.3693
 8317TIP3    H246443   6.513   0.307   4.564  1.1820  0.6401 -0.1007
 8318TIP3   OH246444   6.628   1.494  15.108 -0.2310  0.3649 -0.7543
 8318TIP3    H146445   6.645   1.404  15.135 -0.0976 -0.4733 -3.3919
 8318TIP3    H246446   6.715   1.535  15.102 -0.3493  1.1430  1.6627
 8319TIP3   OH246447   4.959   2.895   0.064  0.1456  0.2130 -0.0705
 8319TIP3    H146448   5.017   2.940   0.126  1.0673  0.0633 -0.8024
 8319TIP3    H246449   4.971   2.943  -0.018  0.8046 -1.0833 -0.7568
 8320TIP3   OH246450   6.441   0.149  15.455  0.6504 -0.3041  0.6435
 8320TIP3    H146451   6.429   0.149  15.360 -0.7406  1.2441  0.7814
 8320TIP3    H246452   6.464   0.240  15.475  1.3286 -0.7098  1.7595
 8321TIP3   OH246453   0.227   4.710   6.324 -0.4129  0.3737 -0.3611
 8321TIP3    H146454   0.291   4.774   6.293  0.5588  0.6403  1.9485
 8321TIP3    H246455   0.149   4.762   6.343  0.2290  0.8741  1.0893
 8322TIP3   OH246456   1.046   5.313  13.377 -0.0483 -0.0158  0.2226
 8322TIP3    H146457   1.004   5.252  13.438  0.5563  0.6004  1.2879
 8322TIP3    H246458   1.125   5.341  13.423  0.4986  0.3588 -0.9206
 8323TIP3   OH246459   5.557   2.459  17.183 -0.3642 -0.5190  0.2075
 8323TIP3    H146460   5.520   2.527  17.128  0.4257  0.7809  1.2149
 8323TIP3    H246461   5.649   2.455  17.157  0.7702  2.0904  3.1350
 8324TIP3   OH246462   1.917   1.922   1.968 -0.1847  0.5708  0.4811
 8324TIP3    H146463   1.950   1.962   1.887 -1.8193 -0.9127 -1.0004
 8324TIP3    H246464   1.996   1.890   2.012  0.6867  0.5998 -0.9819
 8325TIP3   OH246465   3.196   6.484   2.670  0.2202  0.5193  0.0791
 8325TIP3    H146466   3.217   6.473   2.762 -0.2909  0.8999  0.2468
 8325TIP3    H246467   3.110   6.444   2.659  1.1836 -1.4795 -0.7106
 8326TIP3   OH246468   3.887   0.031   5.008  0.3524 -0.3584 -0.1174
 8326TIP3    H146469   3.910  -0.043   4.952 -0.8227 -0.6401 -0.2642
 8326TIP3    H246470   3.816  -0.003   5.064  0.1211  0.5144  0.1354
 8327TIP3   OH246471   5.868   1.154   2.927 -0.2387  0.2750  0.2125
 8327TIP3    H146472   5.810   1.200   2.988 -0.5053  0.1088  0.0859
 8327TIP3    H246473   5.869   1.064   2.957 -0.5052  0.1563 -0.1261
 8328TIP3   OH246474   0.263   6.773   3.404 -0.4512  0.0828  0.3367
 8328TIP3    H146475   0.336   6.831   3.380  0.7006 -2.4885 -3.3166
 8328TIP3    H246476   0.185   6.822   3.379  0.2631  1.2016  0.1850
 8329TIP3   OH246477   5.167   1.871   0.524 -0.2795 -0.2184 -0.4892
 8329TIP3    H146478   5.206   1.785   0.538  1.5684  0.6263 -0.1583
 8329TIP3    H246479   5.213   1.907   0.449 -1.2585  0.3755 -0.8284
 8330TIP3   OH246480   5.037   0.411   0.072  0.0290  0.1990  0.5704
 8330TIP3    H146481   5.087   0.466   0.012 -0.4487  1.0822  0.9660
 8330TIP3    H246482   5.084   0.327   0.072 -0.2411 -0.0060 -1.4135
 8331TIP3   OH246483   5.444   4.433   2.985  0.6424 -0.5192  0.7149
 8331TIP3    H146484   5.353   4.409   3.003  0.3925 -1.1247 -1.1425
 8331TIP3    H246485   5.492   4.350   2.990  1.1009 -0.2049  1.6762
 8332TIP3   OH246486   0.980   1.856   1.313  0.2490  0.2914  0.4116
 8332TIP3    H146487   0.952   1.815   1.395 -0.8543 -0.1185 -0.1527
 8332TIP3    H246488   0.900   1.893   1.276  0.9427  1.5123  0.0851
 8333TIP3   OH246489   4.756   4.311  10.849 -0.0830 -0.8841  0.9728
 8333TIP3    H146490   4.809   4.243  10.806  0.0167 -0.7596  0.8967
 8333TIP3    H246491   4.814   4.348  10.915  0.5738  0.5138 -0.3439
 8334TIP3   OH246492   1.011   3.349  14.121  0.2371 -0.4712  0.4875
 8334TIP3    H146493   0.938   3.293  14.150 -0.0273 -0.2365  0.2865
 8334TIP3    H246494   0.970   3.434  14.106  0.2136 -0.7660 -1.3113
 8335TIP3   OH246495   5.782   5.752   0.178 -0.1700 -0.0985  0.6481
 8335TIP3    H146496   5.695   5.715   0.165 -0.3510  0.0571  1.3772
 8335TIP3    H246497   5.838   5.702   0.120 -0.5674 -0.8910  0.9383
 8336TIP3   OH246498   5.756   5.634   2.011  0.3623 -0.0000 -0.0989
 8336TIP3    H146499   5.839   5.600   2.044 -0.3466  1.0405  3.1796
 8336TIP3    H246500   5.704   5.555   1.993  1.7293 -0.6435 -1.4920
 8337TIP3   OH246501   6.604   5.876   1.637  0.3828 -0.0189  0.2419
 8337TIP3    H146502   6.670   5.831   1.691  0.4946  0.1268  0.2251
 8337TIP3    H246503   6.642   5.961   1.617 -0.5286  0.7836  1.7029
 8338TIP3   OH246504   4.036   4.734   2.879  0.6202 -0.6924 -0.4119
 8338TIP3    H146505   4.100   4.708   2.812  0.4234  1.0672 -1.3461
 8338TIP3    H246506   4.076   4.705   2.962  1.8906 -1.0099 -1.0992
 8339TIP3   OH246507   5.814   3.571   3.474 -0.5276 -0.5757 -0.3335
 8339TIP3    H146508   5.820   3.629   3.550 -1.6054  0.2154 -0.8198
 8339TIP3    H246509   5.837   3.627   3.400 -1.0591 -0.9074 -0.7543
 8340TIP3   OH246510   5.739   3.717   4.911 -0.5158 -0.7453  0.1801
 8340TIP3    H146511   5.700   3.801   4.885  1.2111 -0.4747 -1.7926
 8340TIP3    H246512   5.800   3.740   4.981  1.0928 -0.0245 -1.3766
 8341TIP3   OH246513   2.957   1.739  11.560  0.0936  0.0318  0.3766
 8341TIP3    H146514   2.964   1.810  11.496  0.5891  0.0539  0.4531
 8341TIP3    H246515   2.924   1.782  11.639 -1.2511 -0.1258 -0.0707
 8342TIP3   OH246516   0.586   1.012  16.422 -0.1203 -0.3450  0.2294
 8342TIP3    H146517   0.641   1.056  16.357  0.4957  1.0926  1.6696
 8342TIP3    H246518   0.516   0.973  16.370  1.0218 -0.3111 -1.4213
 8343TIP3   OH246519   2.611   6.537   1.789  0.3211 -0.4399 -0.0608
 8343TIP3    H146520   2.584   6.530   1.881 -1.2686 -0.1062 -0.4684
 8343TIP3    H246521   2.681   6.473   1.780  0.9980  0.0109  1.5516
 8344TIP3   OH246522   0.261   4.074  11.550  0.0756  0.1779  0.0297
 8344TIP3    H146523   0.250   4.156  11.502  1.1049 -0.6991 -1.7939
 8344TIP3    H246524   0.250   4.005  11.484  1.1309 -1.1081  1.1204
 8345TIP3   OH246525   2.385   2.758  13.579  0.2067  0.2081 -0.2457
 8345TIP3    H146526   2.439   2.837  13.573  0.7581 -0.2254 -1.2745
 8345TIP3    H246527   2.338   2.767  13.662  1.1419  1.0580  0.2159
 8346TIP3   OH246528   1.986   4.281  10.883  0.1558  0.2743 -0.4891
 8346TIP3    H146529   1.985   4.188  10.904  0.7302  0.5340  0.8002
 8346TIP3    H246530   1.900   4.313  10.910  0.2280  0.2471 -0.2181
 8347TIP3   OH246531   3.725   0.424   0.399 -0.1877  0.2779  0.0968
 8347TIP3    H146532   3.680   0.369   0.335  1.0069 -0.6239 -0.0111
 8347TIP3    H246533   3.818   0.413   0.378  0.1581  0.9414  1.2118
 8348TIP3   OH246534   3.487   5.586   5.958  0.5531  0.3386  0.1041
 8348TIP3    H146535   3.546   5.524   5.915  1.2964  0.5641  0.7894
 8348TIP3    H246536   3.539   5.626   6.027 -0.1168  1.2451  0.1111
 8349TIP3   OH246537   3.565   2.318  16.704 -0.6201 -0.0619 -0.3074
 8349TIP3    H146538   3.636   2.259  16.682  0.3434  0.3811  1.4399
 8349TIP3    H246539   3.584   2.347  16.793 -0.9003  3.0480 -1.1140
 8350TIP3   OH246540   6.307   2.741   3.710  0.2504 -0.3623  0.8380
 8350TIP3    H146541   6.376   2.680   3.685  0.0942 -0.1142 -0.2778
 8350TIP3    H246542   6.322   2.759   3.803  2.1028  0.1887  0.4714
 8351TIP3   OH246543   2.481   0.470  14.890 -0.3090  0.0345  0.6272
 8351TIP3    H146544   2.493   0.559  14.856  1.5275 -0.7664 -0.9732
 8351TIP3    H246545   2.529   0.469  14.973  0.5933  0.2379  0.1148
 8352TIP3   OH246546   3.900   6.802   5.636 -0.3182 -0.5382 -0.1058
 8352TIP3    H146547   3.817   6.768   5.604  0.2886 -0.1030 -2.2586
 8352TIP3    H246548   3.915   6.883   5.586  2.0228 -1.3082 -0.7961
 8353TIP3   OH246549   2.038   6.043  11.967  0.0692 -0.3807  1.0250
 8353TIP3    H146550   2.121   6.043  12.016  1.3258 -0.1383 -0.9876
 8353TIP3    H246551   2.002   6.131  11.982 -0.9872 -1.1467  3.6221
 8354TIP3   OH246552   6.011   2.001  16.589 -0.5197  0.9379 -0.2822
 8354TIP3    H146553   6.037   2.093  16.584  0.1184  0.9223  1.9131
 8354TIP3    H246554   5.917   2.002  16.569 -0.4370  2.0013 -0.6841
 8355TIP3   OH246555   1.747   5.034   5.455  0.4340 -0.0807 -0.1904
 8355TIP3    H146556   1.811   4.972   5.487  0.7241 -0.8697 -2.1665
 8355TIP3    H246557   1.798   5.100   5.408 -0.0769  0.1289 -0.4630
 8356TIP3   OH246558   6.561   4.266  10.844  0.1682  0.4492  0.4560
 8356TIP3    H146559   6.554   4.245  10.751 -0.6616  0.8898  0.4135
 8356TIP3    H246560   6.473   4.291  10.871  0.3254  0.0174  1.4427
 8357TIP3   OH246561   3.678   1.837  14.747 -0.1606 -0.0365 -0.2609
 8357TIP3    H146562   3.752   1.853  14.805  0.5626 -1.4409 -0.7305
 8357TIP3    H246563   3.636   1.759  14.782 -0.5552 -0.0834 -0.8159
 8358TIP3   OH246564   6.742   5.702  14.604 -0.2514  1.0363 -0.0647
 8358TIP3    H146565   6.806   5.757  14.559 -0.2878  1.6898  0.6607
 8358TIP3    H246566   6.795   5.634  14.646 -0.0627  1.3363  0.1918
 8359TIP3   OH246567   0.021   2.432  16.074  0.5799  0.6409 -0.2228
 8359TIP3    H146568   0.063   2.488  16.009  2.1399 -0.7814 -0.5001
 8359TIP3    H246569   0.035   2.343  16.042  0.2738 -0.0376  1.4253
 8360TIP3   OH246570   1.320   0.717   2.999 -0.1442  0.1867  0.0286
 8360TIP3    H146571   1.312   0.681   3.087  0.6779  0.0252  0.0426
 8360TIP3    H246572   1.413   0.735   2.988 -0.4227  1.4994 -0.3076
 8361TIP3   OH246573   5.885   1.561   2.286  0.0528 -0.7424  0.1421
 8361TIP3    H146574   5.897   1.561   2.191  0.0934  0.6018  0.1318
 8361TIP3    H246575   5.865   1.470   2.308 -0.2269 -1.0155 -1.1888
 8362TIP3   OH246576   5.787   3.854  15.122  0.0079  0.7834 -0.0807
 8362TIP3    H146577   5.711   3.796  15.123 -2.2225  3.4696  0.6522
 8362TIP3    H246578   5.787   3.892  15.034 -1.3698  2.8708  0.7219
 8363TIP3   OH246579   1.045   0.816   4.699  0.2493  0.4883  0.0079
 8363TIP3    H146580   1.078   0.760   4.629 -0.4530 -1.4534  1.1510
 8363TIP3    H246581   1.032   0.757   4.773 -0.5541  2.1803  1.2887
 8364TIP3   OH246582   4.055   5.042   1.764  0.1244  0.6098 -0.0790
 8364TIP3    H146583   4.012   5.037   1.850  1.0614  0.7141  0.4075
 8364TIP3    H246584   4.057   5.136   1.745  1.2717  0.7219  0.5040
 8365TIP3   OH246585   0.947   0.735  11.397  0.2508  0.4285 -0.3795
 8365TIP3    H146586   0.936   0.697  11.484 -2.4841 -0.1600 -0.8721
 8365TIP3    H246587   1.003   0.674  11.351  1.6058  0.6656  0.8797
 8366TIP3   OH246588   4.635   4.398  15.328  0.6126  0.3718  0.3003
 8366TIP3    H146589   4.660   4.362  15.243 -1.6085 -0.3634 -0.1255
 8366TIP3    H246590   4.540   4.385  15.332  0.3357  2.4070  1.9606
 8367TIP3   OH246591   2.840   3.375  11.139  0.2711 -0.7434  0.2243
 8367TIP3    H146592   2.859   3.369  11.233 -0.5562  1.1167  0.5451
 8367TIP3    H246593   2.779   3.447  11.132 -0.1145 -1.2210 -1.7157
 8368TIP3   OH246594   2.889   6.441   5.994  0.2294  0.8354 -0.1744
 8368TIP3    H146595   2.916   6.352   5.973  1.1521  0.9576  0.4510
 8368TIP3    H246596   2.808   6.430   6.045  0.8222  0.2982  0.6814
 8369TIP3   OH246597   5.052   1.440   5.388 -0.3657 -0.0709  0.2286
 8369TIP3    H146598   5.008   1.364   5.426  0.7504 -1.5162 -1.1965
 8369TIP3    H246599   4.989   1.474   5.324 -0.4811 -0.4400  0.1407
 8370TIP3   OH246600   0.757   5.561  13.281 -0.2097  0.1385  0.5031
 8370TIP3    H146601   0.809   5.543  13.359 -0.1713 -2.0598  0.0401
 8370TIP3    H246602   0.666   5.552  13.309 -0.3757  2.8652  1.0517
 8371TIP3   OH246603   2.600   5.059  16.115  0.4320  0.7747  0.4150
 8371TIP3    H146604   2.574   4.967  16.117 -0.0215  0.7866 -1.9080
 8371TIP3    H246605   2.696   5.057  16.121  0.4022  0.1875  0.7803
 8372TIP3   OH246606   2.738   2.565   2.791  0.3959  0.1085  0.5305
 8372TIP3    H146607   2.655   2.533   2.825  0.0619  3.3258  3.1833
 8372TIP3    H246608   2.804   2.513   2.837  0.1121 -3.0076 -2.1473
 8373TIP3   OH246609   3.384   1.199  12.710  0.2018  0.1157  0.3430
 8373TIP3    H146610   3.302   1.188  12.760 -0.4592  1.2233 -0.4760
 8373TIP3    H246611   3.433   1.265  12.759  0.0185  0.4343  0.0933
 8374TIP3   OH246612   5.846   6.361   1.895  0.3478  0.5806  0.5821
 8374TIP3    H146613   5.779   6.332   1.833  0.2640  1.7429  0.1088
 8374TIP3    H246614   5.929   6.335   1.855  0.2310 -0.0115  0.7130
 8375TIP3   OH246615   3.436   2.994  12.622 -0.1226  0.4638  0.0070
 8375TIP3    H146616   3.482   3.019  12.702  0.1818  2.8927 -0.8476
 8375TIP3    H246617   3.349   2.965  12.652  0.3972  0.1611  1.2787
 8376TIP3   OH246618   4.287   6.812   3.744 -0.1052  0.6624 -0.2302
 8376TIP3    H146619   4.223   6.836   3.811  0.6420 -1.4452  1.3363
 8376TIP3    H246620   4.276   6.878   3.676 -1.8634  2.0912  1.3301
 8377TIP3   OH246621   4.977   4.968   2.561 -0.3357  0.7507  0.2202
 8377TIP3    H146622   4.926   4.942   2.484  0.2828 -0.0544  0.0703
 8377TIP3    H246623   4.914   5.015   2.616 -1.4167 -0.7331  0.3174
 8378TIP3   OH246624   0.163   6.274   4.023 -0.0175 -0.1632 -0.0132
 8378TIP3    H146625   0.190   6.347   3.966 -1.3579  0.3071 -0.0656
 8378TIP3    H246626   0.208   6.198   3.986  1.9208  0.7039  0.4100
 8379TIP3   OH246627   6.066   2.746  12.600 -0.2693 -0.2089 -0.3371
 8379TIP3    H146628   6.157   2.776  12.607  0.0800 -1.2551 -0.1819
 8379TIP3    H246629   6.057   2.682  12.670 -0.2352 -2.2306 -2.0638
 8380TIP3   OH246630   2.889   1.985  11.443  0.1057 -0.1082 -0.1064
 8380TIP3    H146631   2.871   2.075  11.469  0.2699 -0.4413  1.2023
 8380TIP3    H246632   2.803   1.948  11.425  0.1257  1.4214 -4.8338
 8381TIP3   OH246633   2.878   1.148  13.197 -0.2888  0.1887  0.5986
 8381TIP3    H146634   2.850   1.067  13.239 -0.2926  0.2144  0.6450
 8381TIP3    H246635   2.895   1.123  13.106  0.0420  0.0625  0.6912
 8382TIP3   OH246636   0.996   2.760   4.527  0.2615  0.0501  0.2995
 8382TIP3    H146637   1.044   2.843   4.529  0.6081 -0.1054 -0.9165
 8382TIP3    H246638   0.997   2.731   4.618 -1.5907  2.3346  1.1610
 8383TIP3   OH246639   2.844   5.082  12.165  0.4918 -0.2034  0.0509
 8383TIP3    H146640   2.925   5.038  12.191  0.7546 -0.5042 -1.2125
 8383TIP3    H246641   2.874   5.158  12.115 -0.0041 -0.0502 -0.0103
 8384TIP3   OH246642   4.296   0.765  16.868 -0.0632  1.0876  0.3177
 8384TIP3    H146643   4.259   0.730  16.949 -0.4769  0.7460 -0.0181
 8384TIP3    H246644   4.223   0.769  16.807  0.4036  0.5654 -0.3018
 8385TIP3   OH246645   1.794   0.989   4.397  0.1361 -0.2913 -0.1255
 8385TIP3    H146646   1.829   0.905   4.367  0.2117 -0.1408 -0.4727
 8385TIP3    H246647   1.862   1.024   4.455  0.2592 -0.3163 -0.2516
 8386TIP3   OH246648   0.960   2.032  11.477  0.3106 -0.4936 -0.5326
 8386TIP3    H146649   0.958   2.101  11.410 -0.9570 -0.8109 -0.8432
 8386TIP3    H246650   1.050   2.000  11.475  0.2493 -0.6627 -2.2560
 8387TIP3   OH246651   1.212   6.394  10.456 -0.2656 -0.0932 -0.5468
 8387TIP3    H146652   1.266   6.340  10.514 -1.3274  1.4125  2.0274
 8387TIP3    H246653   1.274   6.452  10.412  0.3821  1.1579  1.8631
 8388TIP3   OH246654   6.145   0.914  14.837  0.0901  0.0137  0.2997
 8388TIP3    H146655   6.068   0.949  14.882 -0.1464 -0.9333  0.6525
 8388TIP3    H246656   6.219   0.956  14.881 -0.2324  1.5936 -0.6158
 8389TIP3   OH246657   2.819   6.432  16.615  0.1133  0.3344 -0.1900
 8389TIP3    H146658   2.799   6.400  16.703 -0.5970 -1.3045 -0.9004
 8389TIP3    H246659   2.737   6.423  16.567  0.5433  0.9960 -1.0848
 8390TIP3   OH246660   2.794   3.564   0.911 -0.1573 -0.0276  0.0385
 8390TIP3    H146661   2.717   3.518   0.946  0.1322  0.6447  1.6322
 8390TIP3    H246662   2.767   3.593   0.824 -0.8348 -1.9560 -0.4462
 8391TIP3   OH246663   3.198   0.102  11.701  0.7808  0.0495 -0.3767
 8391TIP3    H146664   3.217   0.165  11.770  0.0560  1.8381 -1.7345
 8391TIP3    H246665   3.112   0.129  11.667 -0.0429 -2.3011 -0.3701
 8392TIP3   OH246666   2.356   2.630   4.012  0.7230  1.1233 -0.0453
 8392TIP3    H146667   2.360   2.549   3.961  1.2665 -0.0961  1.8361
 8392TIP3    H246668   2.385   2.698   3.951  1.8177 -0.3409 -1.2311
 8393TIP3   OH246669   1.727   0.363   1.150 -0.2170  0.4224  0.1181
 8393TIP3    H146670   1.779   0.283   1.147 -1.1777 -0.1986 -0.0633
 8393TIP3    H246671   1.762   0.411   1.226 -0.0312 -0.4322  0.5838
 8394TIP3   OH246672   2.038   4.570  14.849  0.1366 -0.5561  0.2813
 8394TIP3    H146673   2.116   4.549  14.798 -0.8514 -0.2029 -1.4842
 8394TIP3    H246674   2.021   4.492  14.901  0.2579 -1.6181 -1.2176
 8395TIP3   OH246675   4.368   0.423  12.498  0.2019  0.2734 -0.1520
 8395TIP3    H146676   4.388   0.336  12.463  0.7183 -0.4195  1.7499
 8395TIP3    H246677   4.298   0.408  12.561 -0.6916  1.4765 -0.8256
 8396TIP3   OH246678   1.188   6.506   1.256  0.7342 -0.3226 -0.5396
 8396TIP3    H146679   1.124   6.486   1.188  0.6395  0.0439 -0.5594
 8396TIP3    H246680   1.140   6.491   1.338  0.3401  0.8130 -0.5497
 8397TIP3   OH246681   0.948   2.082  16.932  0.0188  0.0197  0.2972
 8397TIP3    H146682   0.910   2.144  16.869 -1.8605  0.6475  1.9509
 8397TIP3    H246683   0.876   2.023  16.954  1.5331 -2.2355 -0.5296
 8398TIP3   OH246684   2.356   4.120  16.001  0.4444  0.2358  0.2527
 8398TIP3    H146685   2.395   4.204  15.974 -0.2378  0.1464 -1.1341
 8398TIP3    H246686   2.274   4.145  16.043 -0.2922  0.2723 -1.1213
 8399TIP3   OH246687   1.046   4.034   4.570  0.3575  0.0512  0.7751
 8399TIP3    H146688   0.985   3.962   4.554 -0.0332  0.4961  0.1958
 8399TIP3    H246689   1.099   4.039   4.490 -1.3300  2.0275 -0.3361
 8400TIP3   OH246690   0.242   6.005  16.321  0.5050 -0.1798 -0.1316
 8400TIP3    H146691   0.197   5.921  16.324  1.2164 -0.5413  0.6377
 8400TIP3    H246692   0.334   5.983  16.309  0.9693  0.3813  1.9541
 8401TIP3   OH246693   2.841   2.583   5.305  0.6446  0.4372  0.3081
 8401TIP3    H146694   2.892   2.661   5.327  1.1559 -0.0338  0.8340
 8401TIP3    H246695   2.906   2.513   5.301  0.3221  0.1856 -1.0304
 8402TIP3   OH246696   0.946   5.048   2.001  0.2187  0.1795  0.0162
 8402TIP3    H146697   0.878   5.038   1.934  1.3596 -0.5938 -1.0937
 8402TIP3    H246698   0.912   5.003   2.078 -0.9760  0.7730 -0.1472
 8403TIP3   OH246699   1.064   2.851   4.083 -0.2644 -0.2696 -0.0070
 8403TIP3    H146700   1.082   2.785   4.016 -1.2896 -1.0614  0.4679
 8403TIP3    H246701   1.027   2.801   4.156 -2.0320  0.9420 -0.0296
 8404TIP3   OH246702   5.296   0.716  16.894 -0.4936  0.2548  0.2219
 8404TIP3    H146703   5.286   0.788  16.831 -1.3595 -0.1865 -0.1747
 8404TIP3    H246704   5.303   0.759  16.979  1.6808  0.9059 -0.2356
 8405TIP3   OH246705   4.548   0.908   1.694 -0.1338  0.0751  0.4856
 8405TIP3    H146706   4.474   0.848   1.689 -0.5935  0.4833  1.7968
 8405TIP3    H246707   4.581   0.914   1.605 -0.0018 -2.1982  0.3313
 8406TIP3   OH246708   2.113   4.595  14.335  0.4538 -0.1379 -0.2134
 8406TIP3    H146709   2.105   4.668  14.397  1.4492 -1.3039  1.3748
 8406TIP3    H246710   2.173   4.628  14.268  1.5881  0.2568  0.9439
 8407TIP3   OH246711   3.021   1.085  12.159  0.0919  0.0974  0.2573
 8407TIP3    H146712   2.934   1.045  12.153 -0.2353  0.7620  0.5294
 8407TIP3    H246713   3.011   1.156  12.223  0.8469  0.1439  0.3297
 8408TIP3   OH246714   4.062   6.657  14.581 -0.5089 -0.4704  0.4886
 8408TIP3    H146715   4.141   6.705  14.605 -0.0569 -1.1970  0.4557
 8408TIP3    H246716   4.009   6.721  14.534 -1.2212  0.8870  2.9761
 8409TIP3   OH246717   5.624   4.967   6.843  0.7919  0.1663  0.2534
 8409TIP3    H146718   5.533   4.991   6.821  1.3526  1.1382 -1.1944
 8409TIP3    H246719   5.646   4.899   6.779  1.2105  0.2092  0.3544
 8410TIP3   OH246720   5.053   3.311  15.974  0.3403  0.1243  0.1265
 8410TIP3    H146721   5.129   3.276  16.020  1.8473  0.1729 -2.1670
 8410TIP3    H246722   5.078   3.402  15.953 -0.5912  0.3263 -0.1421
 8411TIP3   OH246723   4.141   2.927  13.617 -0.5689 -0.4746  0.1641
 8411TIP3    H146724   4.140   2.988  13.690  1.8441  0.5180 -0.5269
 8411TIP3    H246725   4.207   2.862  13.641  0.2395 -0.1445 -1.0633
 8412TIP3   OH246726   1.176   5.746  16.503 -0.1868  0.2657  0.1008
 8412TIP3    H146727   1.199   5.736  16.411  0.2339  0.7603  0.1476
 8412TIP3    H246728   1.126   5.667  16.524 -0.1377  0.0665 -0.5004
 8413TIP3   OH246729   1.991   1.185   5.915 -0.0214 -0.2918  0.1043
 8413TIP3    H146730   2.027   1.260   5.867  1.6737  0.2628  2.0791
 8413TIP3    H246731   2.055   1.115   5.903 -0.8378 -0.9420 -0.4892
 8414TIP3   OH246732   3.615   2.486   2.791 -0.4858  0.8628 -0.1239
 8414TIP3    H146733   3.704   2.494   2.756  0.2862  0.8499  1.7564
 8414TIP3    H246734   3.601   2.391   2.797 -0.3584  0.8656  0.2258
 8415TIP3   OH246735   0.432   2.782   5.915 -0.3639 -0.2571  0.3023
 8415TIP3    H146736   0.370   2.773   5.842 -0.3198 -0.5529  0.2968
 8415TIP3    H246737   0.516   2.797   5.872 -0.0762 -1.8955  0.2203
 8416TIP3   OH246738   1.738   3.793   1.352 -0.5606 -0.1918  0.0380
 8416TIP3    H146739   1.701   3.847   1.422 -1.5986  1.2624 -1.5555
 8416TIP3    H246740   1.681   3.716   1.348  0.5645 -1.1903  1.9146
 8417TIP3   OH246741   5.746   4.424  11.752  0.7107 -0.0719  0.4131
 8417TIP3    H146742   5.731   4.342  11.704 -0.2431  0.6586 -0.6136
 8417TIP3    H246743   5.800   4.476  11.692 -0.7630  0.9764 -0.0553
 8418TIP3   OH246744   0.346   3.612   2.118  0.0075  0.1361 -0.0746
 8418TIP3    H146745   0.251   3.613   2.132 -0.2255  0.2830 -1.5068
 8418TIP3    H246746   0.380   3.554   2.187 -0.8009  2.1453  2.1351
 8419TIP3   OH246747   1.379   6.205   2.729  0.0847  0.2584  0.0110
 8419TIP3    H146748   1.333   6.130   2.692 -0.3420  1.1168 -1.2591
 8419TIP3    H246749   1.311   6.272   2.739  0.8136  1.1580 -0.8157
 8420TIP3   OH246750   1.897   4.001  11.949  0.2859  0.3786  0.0968
 8420TIP3    H146751   1.821   3.999  12.006  0.7763 -1.1950  0.7408
 8420TIP3    H246752   1.864   3.971  11.864  0.0863  0.2456  0.2220
 8421TIP3   OH246753   1.732   6.555   2.064  0.0339 -0.1052  0.3636
 8421TIP3    H146754   1.718   6.619   1.995  1.4151  0.3184  0.4493
 8421TIP3    H246755   1.753   6.608   2.142 -0.0465 -0.6221  0.7408
 8422TIP3   OH246756   3.532   5.608  11.226  0.1635  0.1129 -0.1739
 8422TIP3    H146757   3.593   5.662  11.176 -1.5583  1.7472 -0.6416
 8422TIP3    H246758   3.537   5.642  11.315  0.0192  0.1780 -0.1901
 8423TIP3   OH246759   4.351   6.611  12.357 -0.1721 -0.1190 -0.0634
 8423TIP3    H146760   4.404   6.536  12.383  0.5657 -0.4278 -2.1978
 8423TIP3    H246761   4.402   6.652  12.286 -1.2870  1.4888  0.0081
 8424TIP3   OH246762   4.607   4.746  14.345 -0.4144 -0.1075 -0.0603
 8424TIP3    H146763   4.650   4.660  14.347 -0.7008 -0.2451  1.5378
 8424TIP3    H246764   4.539   4.741  14.412 -1.7394  0.7363 -1.2691
 8425TIP3   OH246765   1.444   0.610  15.774  0.1547  0.1547 -0.3382
 8425TIP3    H146766   1.446   0.606  15.678 -1.4917 -2.4039 -0.3619
 8425TIP3    H246767   1.400   0.693  15.793 -1.0459 -0.0699 -1.8828
 8426TIP3   OH246768   5.128   2.297   3.492  0.2226 -0.3926  0.0517
 8426TIP3    H146769   5.047   2.292   3.543  0.6370 -0.4307  0.7093
 8426TIP3    H246770   5.177   2.219   3.518  1.2790  0.5888  1.0419
 8427TIP3   OH246771   5.977   0.385  16.485 -0.1708 -0.2522  0.5050
 8427TIP3    H146772   5.901   0.410  16.433 -0.6301 -1.8968  0.3259
 8427TIP3    H246773   6.011   0.468  16.519 -0.8791  0.6892 -0.9893
 8428TIP3   OH246774   0.830   4.320   6.253 -0.0073 -0.0223 -0.2794
 8428TIP3    H146775   0.879   4.356   6.328 -1.0800 -1.0319  0.9493
 8428TIP3    H246776   0.761   4.384   6.236  0.2047  0.1820 -0.3805
 8429TIP3   OH246777   3.344   3.750   5.183 -0.3679  0.0110 -0.1121
 8429TIP3    H146778   3.285   3.727   5.111 -0.8388  0.6172  0.0669
 8429TIP3    H246779   3.386   3.832   5.154 -0.0154 -0.1326 -0.0080
 8430TIP3   OH246780   3.400   4.893  13.825  0.6807 -0.0069 -0.5452
 8430TIP3    H146781   3.324   4.849  13.787  0.0358  2.3176 -2.1684
 8430TIP3    H246782   3.362   4.963  13.879  1.6609 -0.1420  0.3343
 8431TIP3   OH246783   4.948   1.191  16.542  0.2580 -0.1553 -0.1434
 8431TIP3    H146784   5.017   1.147  16.592  2.1469  1.0243 -1.5725
 8431TIP3    H246785   4.992   1.225  16.465 -1.8296  1.2128 -0.8261
 8432TIP3   OH246786   4.956   2.580  11.385 -0.8461  0.5639  0.0540
 8432TIP3    H146787   5.002   2.657  11.351 -0.0093 -0.3458 -0.9272
 8432TIP3    H246788   5.023   2.513  11.393 -1.3925  0.1613  1.7667
 8433TIP3   OH246789   1.951   1.000  16.335  0.1617  0.6198  0.1779
 8433TIP3    H146790   1.988   0.955  16.260  1.0265  1.1740  0.2637
 8433TIP3    H246791   1.945   1.092  16.308 -0.4606  0.6636  0.4338
 8434TIP3   OH246792   2.530   0.883  15.924 -0.0584  0.2258 -0.0569
 8434TIP3    H146793   2.464   0.816  15.905 -1.0667  1.2198 -0.1071
 8434TIP3    H246794   2.553   0.919  15.838  0.8452 -0.3557 -0.0818
 8435TIP3   OH246795   5.373   3.849   4.873 -0.0293  0.0721 -0.6244
 8435TIP3    H146796   5.433   3.866   4.946  1.0987 -0.2446 -1.4505
 8435TIP3    H246797   5.315   3.780   4.905 -0.5766  1.0228  0.5166
 8436TIP3   OH246798   5.314   3.740  14.782 -0.6986  0.6709 -0.0844
 8436TIP3    H146799   5.275   3.658  14.753  0.9504 -0.4863  0.8295
 8436TIP3    H246800   5.241   3.788  14.821 -1.4894 -0.8137  0.3509
 8437TIP3   OH246801   5.388   1.299  14.581  0.2740 -0.3544  0.1550
 8437TIP3    H146802   5.329   1.374  14.573 -0.2399 -0.4468  2.3825
 8437TIP3    H246803   5.463   1.332  14.631  0.5629 -1.0555  0.1997
 8438TIP3   OH246804   0.529   0.625   1.183 -0.1022  0.0902  0.2059
 8438TIP3    H146805   0.511   0.649   1.274 -0.1015  0.7610  0.0352
 8438TIP3    H246806   0.608   0.572   1.187  1.1645  1.8971  0.4032
 8439TIP3   OH246807   0.812   2.861   5.470 -0.9912 -0.9389 -0.3948
 8439TIP3    H146808   0.762   2.844   5.550 -1.3083 -0.9387 -0.5913
 8439TIP3    H246809   0.892   2.811   5.481 -0.2947  0.3402  0.6466
 8440TIP3   OH246810   5.149   1.459   4.111  0.0864  0.5575  0.4109
 8440TIP3    H146811   5.128   1.524   4.178  0.8249  0.4178  0.7812
 8440TIP3    H246812   5.227   1.415   4.144 -0.8189 -1.0187  0.5097
 8441TIP3   OH246813   4.755   6.799   6.198 -0.1805  0.1041  0.1585
 8441TIP3    H146814   4.795   6.774   6.281  0.0290 -0.8103 -0.2012
 8441TIP3    H246815   4.661   6.805   6.217 -0.1110  0.0846  0.4999
 8442TIP3   OH246816   0.697   0.986  10.888 -0.4658 -0.2352  0.1838
 8442TIP3    H146817   0.613   1.003  10.843 -0.5784 -0.7089  0.2064
 8442TIP3    H246818   0.682   1.013  10.978 -0.7738 -0.8120  0.3138
 8443TIP3   OH246819   1.390   4.615  15.784 -0.0165  0.5353  0.1333
 8443TIP3    H146820   1.408   4.540  15.727 -1.9163 -0.9423  1.3269
 8443TIP3    H246821   1.311   4.655  15.746  1.0231  2.0306 -0.5344
 8444TIP3   OH246822   0.339   5.067  11.109  0.0737 -0.5540  0.5010
 8444TIP3    H146823   0.415   5.122  11.125  0.8902 -1.4861 -0.0833
 8444TIP3    H246824   0.349   5.035  11.020 -1.8190  0.5374 -0.1700
 8445TIP3   OH246825   0.718   2.438  16.646 -0.0935  0.3774  0.2344
 8445TIP3    H146826   0.649   2.452  16.581  0.8931  0.2477 -0.8791
 8445TIP3    H246827   0.776   2.513  16.635 -0.1029  0.5406  1.2390
 8446TIP3   OH246828   4.606   4.417  13.828  0.9770 -0.0141  0.2120
 8446TIP3    H146829   4.565   4.330  13.827  0.1834  0.3329 -1.4383
 8446TIP3    H246830   4.562   4.464  13.899  0.1729 -0.4122 -0.0077
 8447TIP3   OH246831   1.499   4.160   6.351  0.2537  0.4277 -0.5358
 8447TIP3    H146832   1.587   4.194   6.363 -0.2855  1.2490  1.6600
 8447TIP3    H246833   1.512   4.070   6.321  1.9358 -0.1234  1.5943
 8448TIP3   OH246834   0.601   0.528  17.162 -0.5675 -0.2191 -0.6342
 8448TIP3    H146835   0.654   0.547  17.240  0.4135 -0.1539 -1.3052
 8448TIP3    H246836   0.657   0.550  17.088 -1.0511 -1.4005 -1.3869
 8449TIP3   OH246837   1.369   2.845   6.015  0.6013 -0.6409  0.1826
 8449TIP3    H146838   1.446   2.892   6.048  0.2756 -1.0335  1.5489
 8449TIP3    H246839   1.328   2.809   6.093 -1.1019 -0.2569 -0.4978
 8450TIP3   OH246840   4.428   0.058   4.030 -0.3200  0.1927  0.0161
 8450TIP3    H146841   4.432   0.058   4.125  0.5908 -0.0745 -0.0053
 8450TIP3    H246842   4.335   0.060   4.009 -0.5894 -1.3396  0.9295
 8451TIP3   OH246843   3.877   0.028  12.803 -0.3625 -0.6758  0.2795
 8451TIP3    H146844   3.947   0.066  12.855  0.8512 -0.8857 -1.1264
 8451TIP3    H246845   3.871  -0.062  12.832 -0.1073 -0.6271  0.4819
 8452TIP3   OH246846   6.814   2.288  14.901  0.3898 -0.0021  0.2354
 8452TIP3    H146847   6.747   2.354  14.920 -2.2508 -2.5627  0.6020
 8452TIP3    H246848   6.821   2.288  14.805  1.1855  1.4365  0.2663
 8453TIP3   OH246849   6.150   0.375  16.259  0.1331 -0.0119  0.4688
 8453TIP3    H146850   6.151   0.315  16.334 -0.2636  1.7674  1.9787
 8453TIP3    H246851   6.059   0.373  16.228  0.3971 -1.0784 -0.2595
 8454TIP3   OH246852   5.980   1.682  15.091  0.0236 -0.0338 -0.3282
 8454TIP3    H146853   5.971   1.591  15.119 -0.0299 -0.0780 -0.4890
 8454TIP3    H246854   6.018   1.727  15.167 -1.0013  0.0418  0.1504
 8455TIP3   OH246855   0.575   5.249  11.150 -0.1155 -0.3922  0.3359
 8455TIP3    H146856   0.621   5.332  11.134  2.9740 -2.0206  0.1072
 8455TIP3    H246857   0.556   5.251  11.244  0.3241  0.3896  0.4212
 8456TIP3   OH246858   6.043   3.165   2.932 -0.7472 -0.0578 -0.5529
 8456TIP3    H146859   6.103   3.116   2.988 -1.0337  0.5545  0.2998
 8456TIP3    H246860   5.982   3.099   2.898 -0.6843 -0.4038  0.0060
 8457TIP3   OH246861   4.141   1.408   0.069 -0.6033 -0.3474  0.0822
 8457TIP3    H146862   4.200   1.455   0.011 -0.4367 -1.0754 -0.3547
 8457TIP3    H246863   4.187   1.407   0.153 -0.4048 -0.1311 -0.0216
 8458TIP3   OH246864   2.908   6.582   1.689 -0.2996  0.1286 -0.2007
 8458TIP3    H146865   2.886   6.493   1.717  1.2023 -0.2828 -0.2745
 8458TIP3    H246866   2.893   6.635   1.767  0.6821 -0.5098  0.4562
 8459TIP3   OH246867   0.331   5.363   6.998 -0.6377 -0.5383 -0.2025
 8459TIP3    H146868   0.240   5.367   6.968 -0.2741  0.2655 -1.3122
 8459TIP3    H246869   0.380   5.404   6.926  0.3431  1.1958  1.3861
 8460TIP3   OH246870   3.648   1.435  10.769  0.0474  0.1633 -0.2658
 8460TIP3    H146871   3.608   1.458  10.853 -1.2402 -1.5708 -0.3367
 8460TIP3    H246872   3.605   1.491  10.705  0.0634  0.5471  0.0559
 8461TIP3   OH246873   2.839   2.519  16.426 -0.1456  0.2129  0.2799
 8461TIP3    H146874   2.906   2.486  16.366  1.0602  0.9174  1.1941
 8461TIP3    H246875   2.884   2.585  16.478 -1.7481  1.1959  0.4746
 8462TIP3   OH246876   3.837   0.910  14.533  0.0722 -0.0544  0.3677
 8462TIP3    H146877   3.916   0.909  14.587  0.6903 -2.8624 -0.3957
 8462TIP3    H246878   3.770   0.869  14.589  0.3509 -1.6753 -0.4190
 8463TIP3   OH246879   3.193   4.667   1.723  0.6348  0.0591 -0.2909
 8463TIP3    H146880   3.185   4.574   1.699  1.3372  0.5031 -2.4670
 8463TIP3    H246881   3.102   4.698   1.726  0.4608 -0.1916 -1.9258
 8464TIP3   OH246882   1.015   2.959   1.361  0.2079  0.0123 -0.3070
 8464TIP3    H146883   1.081   3.025   1.383  0.5163 -0.3387 -0.1799
 8464TIP3    H246884   0.987   2.982   1.272  0.2454  0.3707 -0.2282
 8465TIP3   OH246885   4.154   0.088   5.323 -0.5708 -0.2469 -0.3186
 8465TIP3    H146886   4.072   0.119   5.361  0.1086  2.1453 -0.6120
 8465TIP3    H246887   4.223   0.127   5.377  0.3903 -1.3086 -0.7260
 8466TIP3   OH246888   3.634   5.180  14.032  0.0000  0.2306 -0.1080
 8466TIP3    H146889   3.550   5.139  14.052 -0.0971 -2.0038 -4.0451
 8466TIP3    H246890   3.610   5.261  13.985  0.0609  0.2292 -0.1416
 8467TIP3   OH246891   3.620   2.369  16.383  0.2182  0.0549 -0.5895
 8467TIP3    H146892   3.678   2.434  16.343  1.1659 -1.3911 -1.6329
 8467TIP3    H246893   3.637   2.376  16.477  2.2553 -0.4825 -0.8929
 8468TIP3   OH246894   2.679   3.741   5.531  0.0617 -0.0956  0.7999
 8468TIP3    H146895   2.624   3.777   5.463  0.2431 -0.1281  0.6348
 8468TIP3    H246896   2.702   3.653   5.500  0.3765 -0.0056  0.7653
 8469TIP3   OH246897   6.524   6.297   4.656 -0.0910  0.0084  0.2013
 8469TIP3    H146898   6.460   6.366   4.639  0.7459  0.9224  0.6490
 8469TIP3    H246899   6.586   6.337   4.717  2.3780  0.0454 -2.1709
 8470TIP3   OH246900   0.563   1.944   0.956  0.3411  0.2723  0.2580
 8470TIP3    H146901   0.610   2.027   0.954  0.4641  0.2191  0.8366
 8470TIP3    H246902   0.517   1.940   0.872 -0.2997  1.2801  0.5496
 8471TIP3   OH246903   6.133   1.969   5.649  0.0270 -0.0941  0.0837
 8471TIP3    H146904   6.085   2.038   5.695  1.2571  0.8094  0.0453
 8471TIP3    H246905   6.093   1.966   5.562 -2.6766 -2.1786  1.2316
 8472TIP3   OH246906   3.561   6.780  11.901 -0.3036  0.4784  0.4934
 8472TIP3    H146907   3.472   6.761  11.872 -0.1234  1.0577 -0.4890
 8472TIP3    H246908   3.569   6.735  11.985 -1.6167  0.6455  0.7321
 8473TIP3   OH246909   4.055   1.861   2.000 -0.1461  0.6794  0.0867
 8473TIP3    H146910   4.039   1.821   1.914 -0.3620  0.4894  0.2133
 8473TIP3    H246911   4.014   1.801   2.062  1.6968 -0.2069  0.5013
 8474TIP3   OH246912   5.861   3.827  13.160  0.4020 -0.3266 -0.4152
 8474TIP3    H146913   5.925   3.842  13.229  1.6341 -0.2443 -1.5393
 8474TIP3    H246914   5.856   3.732  13.152 -0.1101 -0.3462  0.1137
 8475TIP3   OH246915   5.584   2.789   2.667  0.1454 -0.1487  0.3051
 8475TIP3    H146916   5.533   2.831   2.736 -0.4566 -1.3814  0.6352
 8475TIP3    H246917   5.661   2.753   2.711  0.3271  0.0297  0.1383
 8476TIP3   OH246918   5.401   1.957  14.282  0.0585 -0.5255  0.4265
 8476TIP3    H146919   5.349   1.901  14.340 -0.3918 -0.9654 -0.3873
 8476TIP3    H246920   5.345   2.033  14.266  0.9816  0.6053  2.1816
 8477TIP3   OH246921   2.364   2.804  11.348 -0.4934 -0.3709 -0.4751
 8477TIP3    H146922   2.285   2.765  11.311 -0.1286  0.5505 -2.3429
 8477TIP3    H246923   2.361   2.781  11.441 -1.2330 -3.2085 -1.1032
 8478TIP3   OH246924   0.699   4.629   3.500  0.0596 -0.2146 -0.3288
 8478TIP3    H146925   0.753   4.552   3.513  1.4791  0.6353 -0.9284
 8478TIP3    H246926   0.654   4.613   3.417 -2.0470 -1.6942  1.0211
 8479TIP3   OH246927   5.071   1.451  15.582 -0.1704  0.1563  0.0561
 8479TIP3    H146928   5.019   1.426  15.506 -0.0476 -1.4489  0.4679
 8479TIP3    H246929   5.161   1.424  15.560 -0.0007  0.3699  0.4675
 8480TIP3   OH246930   4.635   3.310   0.569 -0.5558 -0.2690  0.1235
 8480TIP3    H146931   4.548   3.344   0.546  0.0763 -0.3583 -2.7402
 8480TIP3    H246932   4.646   3.233   0.513  0.9637 -0.8974  1.2222
 8481TIP3   OH246933   0.706   6.006  16.791  0.2181  0.4453 -0.3329
 8481TIP3    H146934   0.734   5.927  16.837 -0.8574  1.0118  1.3828
 8481TIP3    H246935   0.769   6.073  16.818 -1.4863  1.2509  1.9970
 8482TIP3   OH246936   3.578   0.006  13.863 -0.2924  0.5356 -0.1131
 8482TIP3    H146937   3.622   0.010  13.778 -1.2942  0.6431 -0.6408
 8482TIP3    H246938   3.640   0.047  13.924  0.0401  1.3509 -0.9648
 8483TIP3   OH246939   0.576   0.422  16.663  0.4919 -0.0824  0.3316
 8483TIP3    H146940   0.502   0.431  16.602  2.2382  2.5674 -1.5740
 8483TIP3    H246941   0.650   0.398  16.608  1.5901 -0.3072  1.8377
 8484TIP3   OH246942   2.949   1.531   0.212 -0.4730  0.0969  0.2231
 8484TIP3    H146943   2.860   1.509   0.240  0.4606 -0.2837  3.2107
 8484TIP3    H246944   3.006   1.479   0.269  1.6827  1.2498 -0.7679
 8485TIP3   OH246945   1.406   4.036   1.557  0.3637 -0.0799  0.1484
 8485TIP3    H146946   1.370   4.113   1.602 -1.1734 -0.1666 -0.8800
 8485TIP3    H246947   1.425   4.068   1.468  1.2212 -0.4955  0.1739
 8486TIP3   OH246948   1.839   2.948  14.657 -0.0719 -0.2331  0.4099
 8486TIP3    H146949   1.771   2.914  14.714  1.4288 -4.2448  0.1248
 8486TIP3    H246950   1.912   2.969  14.715  0.2653 -1.0856  0.3151
 8487TIP3   OH246951   4.090   6.661   5.357  0.1935 -0.4123  0.1406
 8487TIP3    H146952   4.124   6.750   5.367 -2.4788  0.6095  1.1378
 8487TIP3    H246953   4.117   6.616   5.437  1.9225 -0.7013 -0.5577
 8488TIP3   OH246954   4.149   4.045  12.367 -0.3626 -0.0893 -0.3501
 8488TIP3    H146955   4.141   4.128  12.321 -0.9243  1.2730  2.0656
 8488TIP3    H246956   4.242   4.023  12.361  0.2217  1.8739  0.7979
 8489TIP3   OH246957   1.480   4.140   4.462  0.5081 -0.6352 -1.1215
 8489TIP3    H146958   1.398   4.111   4.423 -0.4493 -0.3037  0.5480
 8489TIP3    H246959   1.509   4.212   4.406 -0.6612 -0.3755 -1.4174
 8490TIP3   OH246960   6.379   5.452  12.637 -0.4442  0.3980 -0.1647
 8490TIP3    H146961   6.357   5.500  12.557 -1.1901 -0.8654 -0.7583
 8490TIP3    H246962   6.420   5.371  12.605  1.2895  0.8562  0.8178
 8491TIP3   OH246963   3.260   2.460   3.354 -0.3961  0.1785 -0.6682
 8491TIP3    H146964   3.165   2.470   3.354 -0.2540  1.8435 -0.8664
 8491TIP3    H246965   3.278   2.403   3.279 -1.2214  0.1042 -0.8165
 8492TIP3   OH246966   6.828   2.469   1.062 -0.1307 -0.2530  0.5638
 8492TIP3    H146967   6.873   2.477   1.147  0.2855  0.7472  0.2649
 8492TIP3    H246968   6.836   2.376   1.040  1.1605 -0.2391  0.8699
 8493TIP3   OH246969   3.884   5.985   2.637  0.0910  0.2676 -0.5890
 8493TIP3    H146970   3.804   6.007   2.589 -0.5641  1.0228  0.7777
 8493TIP3    H246971   3.893   6.055   2.702  0.0977 -1.4160  1.3431
 8494TIP3   OH246972   1.718   5.812  10.799 -0.0127 -0.3545  0.2366
 8494TIP3    H146973   1.690   5.740  10.742  0.2869  0.4747 -0.9834
 8494TIP3    H246974   1.647   5.820  10.863  0.8440 -3.0267  1.6793
 8495TIP3   OH246975   0.640   0.160   3.927  0.0623 -0.0511  0.1531
 8495TIP3    H146976   0.565   0.211   3.898 -0.4145 -0.0621  1.3106
 8495TIP3    H246977   0.715   0.200   3.881 -0.7934 -1.1024 -2.3093
 8496TIP3   OH246978   1.957   5.376   2.757 -0.1547  0.2943  0.4597
 8496TIP3    H146979   2.031   5.424   2.722  0.0074 -0.2118  0.0949
 8496TIP3    H246980   1.904   5.354   2.680  0.0351 -0.5407  0.5593
 8497TIP3   OH246981   6.352   5.913  15.903  0.1467  0.9216  0.1183
 8497TIP3    H146982   6.392   5.866  15.977  0.8753 -0.7097 -1.2389
 8497TIP3    H246983   6.427   5.941  15.850 -0.4013 -0.2904 -1.3610
 8498TIP3   OH246984   5.716   4.000   4.846  0.3236  0.4889  0.2029
 8498TIP3    H146985   5.723   3.973   4.755 -0.7035 -2.0095  0.7829
 8498TIP3    H246986   5.709   4.095   4.843 -1.5456  0.3542 -2.4572
 8499TIP3   OH246987   3.008   1.078   1.569  0.3760 -0.2550  0.4430
 8499TIP3    H146988   2.994   1.111   1.658 -0.8230 -1.7857  0.8522
 8499TIP3    H246989   2.924   1.038   1.545  0.5909  0.3632 -1.4962
 8500TIP3   OH246990   0.603   2.150  11.503 -0.1129 -0.7046  0.4960
 8500TIP3    H146991   0.600   2.245  11.488  0.2383 -0.8399 -0.5438
 8500TIP3    H246992   0.646   2.140  11.588  1.4620  0.0321 -0.1673
 8501TIP3   OH246993   0.904   1.908   4.770 -0.0876 -0.3268 -0.1720
 8501TIP3    H146994   0.860   1.840   4.822 -1.2104  0.9693  0.6517
 8501TIP3    H246995   0.991   1.914   4.808 -0.6272  0.0288  1.0711
 8502TIP3   OH246996   6.574   4.570  15.289 -0.6649  0.1548 -0.2022
 8502TIP3    H146997   6.590   4.649  15.341 -0.6778 -0.1400  0.2596
 8502TIP3    H246998   6.500   4.527  15.333 -0.2335 -0.4488 -0.0495
 8503TIP3   OH246999   1.561   4.555   2.194 -0.3375 -0.1514 -0.1405
 8503TIP3    H147000   1.477   4.519   2.223 -0.3667 -0.8072 -0.9984
 8503TIP3    H247001   1.578   4.512   2.111 -1.3551  3.2054 -2.3082
 8504TIP3   OH247002   4.740   5.384   3.265 -0.6190  0.0355  0.3290
 8504TIP3    H147003   4.740   5.463   3.320 -0.4229  1.1426 -1.1918
 8504TIP3    H247004   4.820   5.338   3.288 -0.8267  0.1756  1.3689
 8505TIP3   OH247005   4.473   4.340   5.505  0.4238  0.2231 -0.0015
 8505TIP3    H147006   4.469   4.432   5.478  1.1720  0.2764  0.0438
 8505TIP3    H247007   4.448   4.341   5.598 -0.8491  0.2104 -0.3389
 8506TIP3   OH247008   4.225   3.883   1.879  0.2204  0.1349  0.4287
 8506TIP3    H147009   4.189   3.972   1.876 -0.4128 -0.1193 -2.6423
 8506TIP3    H247010   4.159   3.832   1.926  0.5061  1.1823  2.0739
 8507TIP3   OH247011   2.731   2.233   4.349  0.2065  0.1675 -0.1781
 8507TIP3    H147012   2.760   2.292   4.279 -0.4886  0.9839  0.2196
 8507TIP3    H247013   2.786   2.255   4.424  0.3424 -0.1005 -0.1961
 8508TIP3   OH247014   3.953   5.140   2.025  0.0673 -0.0315  0.0359
 8508TIP3    H147015   4.033   5.123   2.075  1.6469 -0.7533 -2.5025
 8508TIP3    H247016   3.885   5.090   2.069  0.8620  0.9148  2.5243
 8509TIP3   OH247017   2.023   0.662  12.818  0.1118 -0.3701 -0.0214
 8509TIP3    H147018   1.928   0.661  12.806  0.2300 -0.1849 -1.0276
 8509TIP3    H247019   2.038   0.738  12.875 -0.2581  0.1930 -0.6626
 8510TIP3   OH247020   2.833   6.414  16.277 -0.0446 -0.4534 -0.1455
 8510TIP3    H147021   2.816   6.319  16.281 -0.4186 -0.4028 -0.4377
 8510TIP3    H247022   2.746   6.453  16.270  0.0603 -0.0409  0.7456
 8511TIP3   OH247023   3.311   3.426  14.967 -0.2540  0.0921  0.1821
 8511TIP3    H147024   3.324   3.514  14.933 -0.9567 -0.7641 -2.5512
 8511TIP3    H247025   3.397   3.400  15.002  0.3771  1.2538 -0.4681
 8512TIP3   OH247026   6.263   0.786  12.059  0.0159 -0.1572  0.1390
 8512TIP3    H147027   6.224   0.720  12.002  0.4903 -0.0017 -0.3745
 8512TIP3    H247028   6.236   0.870  12.022 -1.5759 -0.0277  1.4764
 8513TIP3   OH247029   6.705   4.865  17.086  0.0808  0.3766  0.2019
 8513TIP3    H147030   6.662   4.804  17.147 -1.7342  0.4395 -0.9501
 8513TIP3    H247031   6.645   4.871  17.012  0.3514  3.3422  0.1228
 8514TIP3   OH247032   1.379   2.480  13.788  0.4983 -0.1146  0.3054
 8514TIP3    H147033   1.296   2.519  13.760 -0.5462 -2.8698 -0.7882
 8514TIP3    H247034   1.385   2.500  13.881 -1.9168 -0.5814  0.6233
 8515TIP3   OH247035   2.762   5.460   4.425 -0.3006  0.4434  0.1510
 8515TIP3    H147036   2.804   5.409   4.355  1.1163  0.4241  0.9816
 8515TIP3    H247037   2.714   5.395   4.476  0.4508  0.1103  0.4514
 8516TIP3   OH247038   5.173   0.894  15.316  0.2616 -0.6178 -0.0161
 8516TIP3    H147039   5.081   0.886  15.289  0.6987 -0.8705 -1.4692
 8516TIP3    H247040   5.179   0.840  15.395 -0.8779 -0.4368  0.2111
 8517TIP3   OH247041   1.790   0.220   2.714 -0.1749  0.0880 -0.2270
 8517TIP3    H147042   1.853   0.230   2.786 -0.9270  0.0535  0.4507
 8517TIP3    H247043   1.844   0.201   2.637  0.5645 -1.8664  0.6928
 8518TIP3   OH247044   0.406   3.169   4.633 -0.2807 -0.1972  0.4168
 8518TIP3    H147045   0.456   3.087   4.629  0.4741  0.2687 -0.1260
 8518TIP3    H247046   0.401   3.189   4.727 -0.3626 -0.7969  0.5459
 8519TIP3   OH247047   3.383   3.478  13.006  0.7088 -0.3181  0.2058
 8519TIP3    H147048   3.305   3.463  12.952  0.6864  0.3200  0.0484
 8519TIP3    H247049   3.398   3.395  13.051 -0.3784 -0.2823  0.6516
 8520TIP3   OH247050   4.930   6.061   3.463 -0.7564  0.2721  0.0969
 8520TIP3    H147051   5.006   6.105   3.426  0.2095 -0.9568  0.5547
 8520TIP3    H247052   4.966   6.001   3.529 -1.9658 -1.3726 -0.6487
 8521TIP3   OH247053   2.942   4.656   4.653  0.0512  0.1250 -0.1583
 8521TIP3    H147054   2.993   4.725   4.696 -0.5658  0.0354  0.7495
 8521TIP3    H247055   2.870   4.638   4.714 -2.0947  1.4629 -2.1582
 8522TIP3   OH247056   0.401   6.483  14.538 -0.5113  0.2820 -0.6540
 8522TIP3    H147057   0.494   6.462  14.526 -0.9407 -1.7289 -0.8769
 8522TIP3    H247058   0.400   6.557  14.599  1.2001 -1.8945  2.2965
 8523TIP3   OH247059   2.124   2.432  15.949 -0.8037  0.0920 -0.5424
 8523TIP3    H147060   2.215   2.442  15.921 -1.0691  1.1260 -1.0548
 8523TIP3    H247061   2.084   2.517  15.934 -1.9182 -0.4060 -0.5085
 8524TIP3   OH247062   6.146   5.432   5.259  0.0457  0.8020 -0.0436
 8524TIP3    H147063   6.095   5.420   5.339 -0.5187 -1.5990 -0.6830
 8524TIP3    H247064   6.142   5.347   5.215  2.7110  1.1966 -1.2456
 8525TIP3   OH247065   1.877   6.576   5.776 -0.6092 -0.0279  0.1292
 8525TIP3    H147066   1.806   6.579   5.712 -0.3019 -0.2714 -0.2200
 8525TIP3    H247067   1.903   6.668   5.788 -0.7872  0.0337  0.0437
 8526TIP3   OH247068   2.101   4.572   4.063 -0.0065 -0.3088  0.1721
 8526TIP3    H147069   2.039   4.579   3.990  1.0146  3.0219 -0.5743
 8526TIP3    H247070   2.158   4.499   4.040 -1.7585 -1.4888 -0.6341
 8527TIP3   OH247071   5.302   4.897  12.285 -0.1541  0.1469  0.0991
 8527TIP3    H147072   5.379   4.954  12.292 -1.8245  2.3125  3.3944
 8527TIP3    H247073   5.279   4.898  12.192  3.3634 -0.1582 -0.9211
 8528TIP3   OH247074   5.802   0.654  13.582 -1.0974  0.1303  0.0014
 8528TIP3    H147075   5.846   0.645  13.667  0.8875  0.2990 -0.9495
 8528TIP3    H247076   5.828   0.576  13.534 -1.5257  0.4406 -0.7497
 8529TIP3   OH247077   0.936   3.386  16.922 -0.0118  0.3062  0.3166
 8529TIP3    H147078   0.871   3.334  16.970 -0.5726  0.7909  0.0932
 8529TIP3    H247079   1.017   3.374  16.972  0.4447 -2.5918 -0.9405
 8530TIP3   OH247080   1.939   5.326   5.014 -0.2045 -0.7806  0.1497
 8530TIP3    H147081   1.900   5.266   4.951 -0.6150 -1.6505  1.2037
 8530TIP3    H247082   2.007   5.371   4.965 -0.0966 -1.8869 -0.7579
 8531TIP3   OH247083   6.136   6.012   2.948 -0.0247 -0.3430 -0.0387
 8531TIP3    H147084   6.170   5.956   2.878 -0.6254  0.5661 -1.1040
 8531TIP3    H247085   6.092   6.083   2.901  2.7951  2.4280  1.1409
 8532TIP3   OH247086   5.235   5.237  16.497 -0.6312 -0.0962  0.3781
 8532TIP3    H147087   5.192   5.156  16.523 -0.9592 -0.2255 -0.5275
 8532TIP3    H247088   5.171   5.281  16.440 -0.6093  0.9759  1.1374
 8533TIP3   OH247089   0.300   0.028   6.032  0.2441 -0.5460 -0.3843
 8533TIP3    H147090   0.347   0.015   6.114  0.1922  1.1937 -0.0385
 8533TIP3    H247091   0.345   0.102   5.991 -1.2248  0.1651 -0.7640
 8534TIP3   OH247092   5.713   1.031  15.571  0.0223 -0.1062 -0.0869
 8534TIP3    H147093   5.728   0.951  15.621  0.7885 -0.2959 -0.6005
 8534TIP3    H247094   5.626   1.021  15.533 -1.1113  0.5669  2.1572
 8535TIP3   OH247095   4.539   2.342  10.674 -0.5378  0.4551 -0.4750
 8535TIP3    H147096   4.593   2.269  10.642 -0.4177 -0.7207  2.1518
 8535TIP3    H247097   4.601   2.403  10.713 -0.9137 -0.8366  2.4314
 8536TIP3   OH247098   0.112   4.131  16.646 -0.0688  0.0593 -0.0457
 8536TIP3    H147099   0.158   4.049  16.629 -0.4132 -0.1857  0.1836
 8536TIP3    H247100   0.025   4.118  16.608  0.3923  0.9438 -1.5118
 8537TIP3   OH247101   0.833   2.057   2.223  0.0881 -0.8764  0.8130
 8537TIP3    H147102   0.742   2.032   2.209  0.5105 -2.4536  0.6978
 8537TIP3    H247103   0.881   2.018   2.150  0.6945  1.2092  0.0077
 8538TIP3   OH247104   4.276   1.442   0.335 -0.2079 -0.1854 -0.0947
 8538TIP3    H147105   4.328   1.505   0.285 -2.1458 -0.3832 -2.5082
 8538TIP3    H247106   4.230   1.496   0.400 -1.9044  1.0095 -2.1780
 8539TIP3   OH247107   6.527   4.768  11.246  0.1186  0.2462  0.0800
 8539TIP3    H147108   6.532   4.814  11.330  1.4613  0.4020 -0.0592
 8539TIP3    H247109   6.470   4.823  11.192 -0.6371  0.2189  0.8196
 8540TIP3   OH247110   2.198   5.178   5.318 -0.1426 -0.2471  0.6158
 8540TIP3    H147111   2.245   5.137   5.390  0.4073  0.9199  0.9472
 8540TIP3    H247112   2.225   5.270   5.320 -2.6208  0.5491  0.9928
 8541TIP3   OH247113   3.532   1.063  13.916  0.6140  0.1989 -0.0938
 8541TIP3    H147114   3.486   0.985  13.945  0.1552  1.1011  1.7294
 8541TIP3    H247115   3.463   1.127  13.900  1.0051  0.3512 -1.2401
 8542TIP3   OH247116   5.973   0.996  17.162  0.3450 -0.3033  0.0946
 8542TIP3    H147117   6.059   1.029  17.189  0.8281 -1.5314  0.0869
 8542TIP3    H247118   5.992   0.928  17.098 -0.4952 -2.3891  1.9418
 8543TIP3   OH247119   2.084   1.018  13.339  0.3019  0.2656  0.3458
 8543TIP3    H147120   2.075   0.923  13.344  2.0715  0.0088 -0.5368
 8543TIP3    H247121   2.076   1.048  13.430 -0.7622 -0.6534  0.5801
 8544TIP3   OH247122   1.471   3.250  11.696 -0.2065 -0.0182  0.1882
 8544TIP3    H147123   1.426   3.167  11.712 -1.2173  0.4181 -0.3428
 8544TIP3    H247124   1.543   3.250  11.759 -0.4336 -1.1184  0.4663
 8545TIP3   OH247125   4.368   5.959   2.827  0.4586 -0.2276  0.2082
 8545TIP3    H147126   4.441   5.941   2.886  0.3863 -0.7451  0.1433
 8545TIP3    H247127   4.308   6.014   2.879  0.7221 -0.1045  0.3826
 8546TIP3   OH247128   1.491   1.806  14.231 -0.0230 -0.3216 -0.0723
 8546TIP3    H147129   1.542   1.888  14.230 -0.3388 -0.1270 -0.8155
 8546TIP3    H247130   1.400   1.835  14.233 -0.2364 -0.5742 -2.5764
 8547TIP3   OH247131   3.462   3.339  11.451 -0.3603 -0.2008 -0.3622
 8547TIP3    H147132   3.368   3.350  11.438  0.0151  0.1220 -3.4760
 8547TIP3    H247133   3.474   3.244  11.455 -0.6424 -0.3468 -2.1587
 8548TIP3   OH247134   2.849   0.193   4.027 -0.6226  0.1523  0.3284
 8548TIP3    H147135   2.837   0.175   4.120 -1.0349 -1.2973  0.0236
 8548TIP3    H247136   2.931   0.242   4.023 -0.5739  0.2022  1.4473
 8549TIP3   OH247137   3.189   5.960   4.696 -0.0682 -0.3881 -0.1236
 8549TIP3    H147138   3.228   6.040   4.732 -0.0805  0.5984 -2.1769
 8549TIP3    H247139   3.264   5.908   4.665 -0.1536 -0.5124 -0.1247
 8550TIP3   OH247140   5.992   5.505   2.891 -0.2971  0.1426 -0.3595
 8550TIP3    H147141   6.024   5.498   2.801 -1.2057  0.1274 -0.6962
 8550TIP3    H247142   5.921   5.569   2.886 -0.2727  0.2383  0.3766
 8551TIP3   OH247143   2.051   3.159   5.612  0.1267  0.2133  0.5464
 8551TIP3    H147144   2.030   3.251   5.594 -0.8904 -0.2692 -0.9262
 8551TIP3    H247145   2.129   3.141   5.561 -0.4328 -0.0776 -0.2218
 8552TIP3   OH247146   1.571   5.562  12.908 -0.4450  0.5097 -0.0260
 8552TIP3    H147147   1.488   5.557  12.860  0.2442 -0.3353 -1.1750
 8552TIP3    H247148   1.568   5.487  12.967 -0.5062  0.4752 -0.0712
 8553TIP3   OH247149   5.902   5.696  14.519 -0.0550  0.1644  0.6092
 8553TIP3    H147150   5.880   5.642  14.595 -1.6071  0.2576  0.2556
 8553TIP3    H247151   5.933   5.634  14.453  0.0437 -0.0558  0.8587
 8554TIP3   OH247152   5.426   1.228  16.189  0.4771  0.2904  1.1977
 8554TIP3    H147153   5.384   1.302  16.145  0.2585  0.3891  1.5656
 8554TIP3    H247154   5.519   1.250  16.191  0.8965 -0.8838 -1.5182
 8555TIP3   OH247155   5.167   5.229   1.119 -0.3674 -0.4561  0.2967
 8555TIP3    H147156   5.140   5.305   1.068  1.3623  1.0779  1.4959
 8555TIP3    H247157   5.179   5.160   1.055  1.0662  1.2016 -1.3523
 8556TIP3   OH247158   4.057   1.937   1.175  0.4488 -0.4028 -0.1422
 8556TIP3    H147159   4.009   1.995   1.234  1.2890 -1.2247  1.4199
 8556TIP3    H247160   4.123   1.896   1.231  1.6518 -0.8176 -1.7831
 8557TIP3   OH247161   6.235   2.084   1.716 -0.3520 -0.3835  0.4663
 8557TIP3    H147162   6.221   2.129   1.632 -0.5515  0.0033  0.7017
 8557TIP3    H247163   6.165   2.117   1.773 -0.1352 -0.5374  0.8284
 8558TIP3   OH247164   5.730   0.537   1.926 -0.1039  0.3807  0.5407
 8558TIP3    H147165   5.712   0.626   1.956  0.0779  0.0888  1.5475
 8558TIP3    H247166   5.685   0.481   1.989 -0.2646 -0.2482 -0.1184
 8559TIP3   OH247167   3.180   3.995  11.356 -0.2096  0.0900  0.0106
 8559TIP3    H147168   3.105   4.047  11.386  0.3934  1.1442 -0.2580
 8559TIP3    H247169   3.182   3.920  11.415 -1.2787  0.2054  0.2284
 8560TIP3   OH247170   1.139   4.803   5.222 -0.0112  0.5265 -0.2865
 8560TIP3    H147171   1.075   4.874   5.228 -2.6688 -1.6391 -0.5245
 8560TIP3    H247172   1.115   4.756   5.142  2.5304  0.1133 -0.8868
 8561TIP3   OH247173   4.270   5.630   3.983 -0.0642  0.1136  0.0238
 8561TIP3    H147174   4.233   5.653   3.898 -0.8450  0.1111  0.3545
 8561TIP3    H247175   4.211   5.562   4.017 -0.2779  0.7365  0.9458
 8562TIP3   OH247176   3.312   6.580  16.264 -0.0885 -0.7465  0.1072
 8562TIP3    H147177   3.249   6.521  16.306 -1.2228  0.7457  0.5976
 8562TIP3    H247178   3.259   6.655  16.236  0.8853 -0.9955 -2.6902
 8563TIP3   OH247179   2.591   1.951   0.010  0.0610  0.0519 -0.1912
 8563TIP3    H147180   2.682   1.979  -0.006  0.1868 -0.5794 -0.6266
 8563TIP3    H247181   2.599   1.862   0.043 -0.1486  1.3724  4.0070
 8564TIP3   OH247182   2.372   6.113  15.990  0.4294 -0.2328 -0.5451
 8564TIP3    H147183   2.454   6.074  15.959  0.7609 -1.2259  1.3903
 8564TIP3    H247184   2.320   6.038  16.018 -0.1091  0.5222  0.5599
 8565TIP3   OH247185   2.439   6.224  12.824 -0.8999  0.0702 -0.0285
 8565TIP3    H147186   2.354   6.202  12.862 -1.3708 -1.0004 -1.5887
 8565TIP3    H247187   2.502   6.209  12.895 -1.8078 -1.2622  0.5278
 8566TIP3   OH247188   0.141   4.794  16.286  0.1518 -0.6047 -1.0640
 8566TIP3    H147189   0.185   4.874  16.313 -0.7785 -0.8321  1.3661
 8566TIP3    H247190   0.200   4.723  16.313 -0.0738 -0.7938 -1.0605
 8567TIP3   OH247191   4.515   0.198   1.615  0.0996 -0.2904 -0.7309
 8567TIP3    H147192   4.566   0.278   1.618  0.8697 -0.7125 -1.9448
 8567TIP3    H247193   4.463   0.199   1.696  2.6107 -0.2413  0.9997
 8568TIP3   OH247194   0.527   5.763   5.661  0.0161  0.0118 -0.2104
 8568TIP3    H147195   0.493   5.831   5.720  1.2243  0.0762  0.4385
 8568TIP3    H247196   0.618   5.789   5.645  0.4104 -1.2932 -0.1844
 8569TIP3   OH247197   1.485   4.305  12.231 -0.3622 -0.2635  0.3502
 8569TIP3    H147198   1.576   4.294  12.203 -0.5336  2.3078 -1.6714
 8569TIP3    H247199   1.484   4.274  12.322  2.0589 -2.0733 -0.1311
 8570TIP3   OH247200   5.230   1.306   1.510  0.1114  0.4524  0.4424
 8570TIP3    H147201   5.193   1.368   1.572 -0.1537 -1.5003  2.3404
 8570TIP3    H247202   5.204   1.340   1.424 -2.1789  1.6052  1.4987
 8571TIP3   OH247203   2.938   3.261   5.891  0.5599  1.0056  0.1848
 8571TIP3    H147204   2.846   3.242   5.909  0.8006 -0.2759  0.1585
 8571TIP3    H247205   2.967   3.314   5.965 -0.6403  2.9956 -0.6718
 8572TIP3   OH247206   5.889   6.038  14.503  0.1591  0.1626  0.0575
 8572TIP3    H147207   5.941   5.963  14.530  0.1072 -0.1713 -0.7411
 8572TIP3    H247208   5.832   6.005  14.434 -1.0963  0.5310  0.8732
 8573TIP3   OH247209   4.258   2.982  14.233 -0.4648  0.1939 -0.5788
 8573TIP3    H147210   4.195   2.923  14.274  0.0683 -0.1220 -0.2033
 8573TIP3    H247211   4.205   3.051  14.194 -1.0748 -0.3689 -0.7505
 8574TIP3   OH247212   1.055   1.122  13.800 -0.1164  0.2861 -0.6882
 8574TIP3    H147213   1.002   1.051  13.835  2.0693 -0.4180  1.4683
 8574TIP3    H247214   1.135   1.120  13.852  1.6795  1.8539 -3.1580
 8575TIP3   OH247215   4.986   5.557  15.148  0.2201 -0.2497  0.4855
 8575TIP3    H147216   5.001   5.623  15.216 -0.9942 -1.0258  1.5438
 8575TIP3    H247217   4.969   5.476  15.195 -0.4560 -0.8619 -0.7464
 8576TIP3   OH247218   0.722   3.481   2.714 -0.2838  0.2811 -0.2059
 8576TIP3    H147219   0.753   3.538   2.644 -1.3134  0.3831 -0.6009
 8576TIP3    H247220   0.708   3.540   2.788 -0.4721  0.3929 -0.3297
 8577TIP3   OH247221   1.814   5.191   2.924 -0.6350  0.3173  0.1211
 8577TIP3    H147222   1.830   5.097   2.910  0.8865  0.3103  1.6065
 8577TIP3    H247223   1.849   5.233   2.845  0.9326 -0.2266  0.4837
 8578TIP3   OH247224   3.863   1.716  12.084  0.2549  0.3427 -0.2467
 8578TIP3    H147225   3.866   1.775  12.160 -0.8598  0.5186 -0.3233
 8578TIP3    H247226   3.769   1.704  12.067  0.4867 -0.6455 -0.8666
 8579TIP3   OH247227   2.669   1.371  10.211 -0.4150 -0.5031 -0.0606
 8579TIP3    H147228   2.639   1.340  10.126  1.4311  0.8596 -1.2948
 8579TIP3    H247229   2.738   1.435  10.191  0.8719 -0.9338  2.4710
 8580TIP3   OH247230   1.220   6.224   0.067 -0.0141 -0.4573  0.3662
 8580TIP3    H147231   1.252   6.276   0.141  0.0931  0.2436 -0.1575
 8580TIP3    H247232   1.213   6.135   0.101 -0.9621  0.0296  1.5114
 8581TIP3   OH247233   1.558   4.547  10.476  0.1518  0.0451 -0.6628
 8581TIP3    H147234   1.555   4.623  10.418  0.6573  0.5802 -0.0063
 8581TIP3    H247235   1.471   4.508  10.469 -0.3908  1.1690 -0.3887
 8582TIP3   OH247236   1.796   4.510   3.391  0.4914 -0.5190 -0.7864
 8582TIP3    H147237   1.807   4.597   3.431 -0.0062 -1.1219  0.7396
 8582TIP3    H247238   1.769   4.529   3.301  0.4353  0.9069 -0.5046
 8583TIP3   OH247239   2.456   1.830  15.863 -0.1640 -0.0414 -0.3253
 8583TIP3    H147240   2.515   1.866  15.797 -0.9854 -0.7416 -1.4888
 8583TIP3    H247241   2.379   1.801  15.813 -2.0451  1.9116  1.2688
 8584TIP3   OH247242   4.100   2.153  13.406 -0.0835 -0.1232  0.0128
 8584TIP3    H147243   4.152   2.201  13.470  0.7240  1.0150 -1.4377
 8584TIP3    H247244   4.127   2.062  13.416 -1.1680 -0.2730  2.3677
 8585TIP3   OH247245   3.496   0.730   0.880  0.0445  0.3886 -0.1687
 8585TIP3    H147246   3.466   0.679   0.955 -1.6197 -2.5494 -2.6176
 8585TIP3    H247247   3.420   0.736   0.822  1.3311  2.2771 -1.8240
 8586TIP3   OH247248   2.186   4.633   5.627  0.0906 -0.1363 -0.5985
 8586TIP3    H147249   2.250   4.595   5.687 -1.1718 -2.2849 -0.5130
 8586TIP3    H247250   2.236   4.698   5.577  1.5836  0.4952  1.5350
 8587TIP3   OH247251   4.362   0.656   5.994  0.3713 -0.7596  0.0609
 8587TIP3    H147252   4.281   0.662   5.943 -0.4251  3.0091  1.4586
 8587TIP3    H247253   4.337   0.607   6.072  0.3024 -2.2349 -0.8500
 8588TIP3   OH247254   1.366   1.289   4.058 -0.2655 -0.0589 -0.0765
 8588TIP3    H147255   1.336   1.275   3.968  0.5403 -1.6062 -0.1277
 8588TIP3    H247256   1.445   1.342   4.048 -0.1495 -0.2667 -0.2851
 8589TIP3   OH247257   0.181   4.545  16.586 -0.2955  0.0721  0.3845
 8589TIP3    H147258   0.222   4.523  16.503  0.1947 -0.7731  0.8329
 8589TIP3    H247259   0.242   4.606  16.628 -0.6165  0.6219  0.0768
 8590TIP3   OH247260   2.285   3.025  17.061 -0.0161  0.2084  0.2426
 8590TIP3    H147261   2.279   2.974  16.980  2.1469 -0.7646  0.6209
 8590TIP3    H247262   2.220   2.985  17.119  1.3859 -2.0468  0.4238
 8591TIP3   OH247263   6.143   2.706  16.267  0.0879  0.3320  0.0459
 8591TIP3    H147264   6.184   2.754  16.339 -1.6038  1.7795  0.1249
 8591TIP3    H247265   6.165   2.615  16.283  1.5628  0.8339  1.1613
 8592TIP3   OH247266   1.986   0.962  13.809  0.2466 -0.0558  0.1868
 8592TIP3    H147267   1.999   0.883  13.757 -1.4832 -0.3309  0.1160
 8592TIP3    H247268   1.898   0.953  13.845 -0.6865  2.5632 -1.1278
 8593TIP3   OH247269   0.990   3.043   2.003  0.3093 -0.2159  0.3383
 8593TIP3    H147270   0.950   3.013   2.084 -0.4369  0.7928  0.3573
 8593TIP3    H247271   1.036   3.123   2.027 -0.7321  0.6317 -0.4120
 8594TIP3   OH247272   4.745   0.529  16.680 -0.0938 -0.3015 -0.0043
 8594TIP3    H147273   4.716   0.539  16.771 -0.1376 -2.6115  0.3056
 8594TIP3    H247274   4.834   0.564  16.679  0.1913 -0.9218  1.1482
 8595TIP3   OH247275   5.960   5.239  14.015  0.4343  0.7202  0.5491
 8595TIP3    H147276   5.891   5.216  13.953  1.1234  1.8539 -0.6710
 8595TIP3    H247277   5.930   5.321  14.054  1.8699  2.1878 -1.2951
 8596TIP3   OH247278   3.399   6.620  16.733  0.4965  0.4433 -0.5232
 8596TIP3    H147279   3.380   6.531  16.703 -0.3653  0.0691  0.9991
 8596TIP3    H247280   3.363   6.623  16.822  2.2710  1.6870  0.2025
 8597TIP3   OH247281   6.627   1.016  12.809 -0.1830 -0.4186  0.2854
 8597TIP3    H147282   6.625   0.948  12.742  1.6143  0.3511 -0.6045
 8597TIP3    H247283   6.546   1.065  12.795 -1.2128 -1.9737  0.5548
 8598TIP3   OH247284   3.194   1.202  15.703  0.2006 -0.2378 -0.3190
 8598TIP3    H147285   3.282   1.225  15.733  0.5486 -0.9885 -0.7645
 8598TIP3    H247286   3.157   1.151  15.776  0.4321 -0.6147 -0.4624
 8599TIP3   OH247287   4.790   4.680   5.910  0.0275  0.6468  0.1790
 8599TIP3    H147288   4.731   4.752   5.889  0.1320  1.0637  1.2532
 8599TIP3    H247289   4.783   4.670   6.005 -0.2741 -1.0205  0.0047
 8600TIP3   OH247290   6.074   6.476   2.213  0.0835  0.0955  0.0917
 8600TIP3    H147291   6.142   6.541   2.192  0.6350 -1.2479 -2.6566
 8600TIP3    H247292   6.011   6.483   2.141 -1.5464 -0.2407  1.4381
 8601TIP3   OH247293   6.725   1.593   2.158  0.4154  0.1676 -0.1668
 8601TIP3    H147294   6.779   1.514   2.160 -0.6875 -0.6316 -0.7001
 8601TIP3    H247295   6.781   1.662   2.194  0.7542 -1.2536  2.2000
 8602TIP3   OH247296   5.604   4.881   5.329  0.1946  0.2369  0.3065
 8602TIP3    H147297   5.697   4.862   5.320 -0.1728 -0.7954 -2.1479
 8602TIP3    H247298   5.582   4.936   5.253 -1.5322 -1.2164 -0.3448
 8603TIP3   OH247299   3.597   2.037   4.612  0.0216 -0.3243  0.3318
 8603TIP3    H147300   3.624   1.951   4.580 -0.7517  0.0032 -1.3643
 8603TIP3    H247301   3.651   2.099   4.562  0.0539  0.1867  0.9941
 8604TIP3   OH247302   3.274   4.747  13.505 -0.3313 -0.0771 -0.4203
 8604TIP3    H147303   3.299   4.669  13.456 -0.3415 -1.6809  1.9203
 8604TIP3    H247304   3.266   4.716  13.596 -3.1852  1.9925  0.1941
 8605TIP3   OH247305   3.050   1.749  13.697 -0.0398  0.4108 -0.1108
 8605TIP3    H147306   3.107   1.675  13.677 -2.6787 -1.8911  0.2225
 8605TIP3    H247307   3.056   1.759  13.792  0.3800  0.6893 -0.1654
 8606TIP3   OH247308   2.202   0.364  14.897 -0.0686 -0.3084  0.1076
 8606TIP3    H147309   2.199   0.270  14.882  0.8679 -0.2820 -0.3057
 8606TIP3    H247310   2.295   0.386  14.895 -0.1680  0.4023  1.6364
 8607TIP3   OH247311   4.744   1.292  11.940 -0.2946  0.1556  0.3522
 8607TIP3    H147312   4.698   1.235  11.878  1.5453 -1.4858  0.3803
 8607TIP3    H247313   4.707   1.268  12.026 -0.0926 -0.4661  0.2767
 8608TIP3   OH247314   6.660   4.483   6.438 -0.2641 -0.4829  0.0554
 8608TIP3    H147315   6.570   4.488   6.408 -1.1617 -1.5555  2.3048
 8608TIP3    H247316   6.666   4.550   6.507  1.5034  1.4471 -1.8313
 8609TIP3   OH247317   1.929   2.878  11.640 -0.5922  0.0601  0.0439
 8609TIP3    H147318   1.929   2.803  11.582 -2.7833  0.8355 -1.0843
 8609TIP3    H247319   1.840   2.913  11.634 -0.1516  1.7070  1.8933
 8610TIP3   OH247320   6.737   5.734   0.622 -0.0193  0.1144 -0.8420
 8610TIP3    H147321   6.753   5.777   0.538  0.6280 -0.9298 -1.2726
 8610TIP3    H247322   6.687   5.656   0.600 -1.6780  0.8734 -0.0075
 8611TIP3   OH247323   0.798   1.709  13.030  0.3305 -0.1515 -0.3343
 8611TIP3    H147324   0.882   1.715  13.073  0.6413  1.5747 -1.0647
 8611TIP3    H247325   0.744   1.655  13.088  1.8112 -0.9855  0.3112
 8612TIP3   OH247326   5.899   3.552  11.864  0.3979  0.3177 -0.1995
 8612TIP3    H147327   5.946   3.628  11.897  2.0954 -0.6417 -0.2888
 8612TIP3    H247328   5.934   3.539  11.776  0.9837 -1.2180  0.2266
 8613TIP3   OH247329   3.339   2.222   5.190 -0.4232  0.3986  0.3318
 8613TIP3    H147330   3.392   2.301   5.183 -0.8194  0.5785 -0.8483
 8613TIP3    H247331   3.362   2.185   5.275  2.0885  0.1166 -0.3770
 8614TIP3   OH247332   5.426   4.434  12.766 -0.9734 -0.2344 -0.3443
 8614TIP3    H147333   5.355   4.393  12.815 -0.2563 -1.4798 -0.2875
 8614TIP3    H247334   5.383   4.485  12.698 -1.9243 -1.3416 -0.6055
 8615TIP3   OH247335   2.385   0.244   1.869 -0.4855 -0.4010 -0.2052
 8615TIP3    H147336   2.373   0.339   1.874  1.4679 -0.0988 -0.4650
 8615TIP3    H247337   2.399   0.227   1.776  0.7849 -0.6927  0.0227
 8616TIP3   OH247338   6.734   1.425  14.366  0.7475  0.4667 -0.5762
 8616TIP3    H147339   6.743   1.361  14.436  0.2654 -0.4198 -1.3097
 8616TIP3    H247340   6.740   1.374  14.285  0.8050  1.4062 -1.1829
 8617TIP3   OH247341   1.871   1.781  12.441  0.5102 -0.4427  0.0120
 8617TIP3    H147342   1.832   1.696  12.424  1.4666 -1.2457  1.5668
 8617TIP3    H247343   1.822   1.816  12.516 -0.8218  1.0757 -1.4749
 8618TIP3   OH247344   5.328   4.335  16.971  0.2968 -0.3352 -0.3406
 8618TIP3    H147345   5.362   4.330  17.061  0.4972 -0.0664 -0.4005
 8618TIP3    H247346   5.252   4.276  16.971 -0.4690  0.6241  0.3438
 8619TIP3   OH247347   3.336   5.765   3.796  0.3332 -0.0166 -0.4600
 8619TIP3    H147348   3.328   5.699   3.865  0.8365  0.2745 -0.1122
 8619TIP3    H247349   3.282   5.733   3.725 -0.6726 -0.0483  0.2920
 8620TIP3   OH247350   4.063   2.627   0.835 -0.2730 -0.5382 -0.3283
 8620TIP3    H147351   3.999   2.595   0.772 -0.5230 -0.0741 -0.3206
 8620TIP3    H247352   4.021   2.705   0.873  0.3565 -0.1512 -0.4273
 8621TIP3   OH247353   0.950   3.309  16.657  0.0047 -0.6959  0.2617
 8621TIP3    H147354   1.044   3.310  16.641 -0.0305  2.8114 -0.4846
 8621TIP3    H247355   0.939   3.361  16.736 -1.3137 -1.0766  0.3490
 8622TIP3   OH247356   4.261   2.777   3.252 -0.8371 -0.3075 -0.9388
 8622TIP3    H147357   4.247   2.684   3.266  0.1699 -0.2858  0.4122
 8622TIP3    H247358   4.331   2.781   3.186 -0.7156 -0.5155 -0.8245
 8623TIP3   OH247359   4.333   3.085   3.758 -0.2320  0.3936 -0.1448
 8623TIP3    H147360   4.323   3.006   3.706 -2.5075  0.7150 -0.3034
 8623TIP3    H247361   4.363   3.054   3.844 -0.2285 -0.5421 -0.4785
 8624TIP3   OH247362   1.206   1.945  14.290  0.4050  0.3231 -0.7425
 8624TIP3    H147363   1.187   1.853  14.308  0.5723  0.0854 -1.7175
 8624TIP3    H247364   1.183   1.956  14.198 -0.1683  1.4106 -0.4819
 8625TIP3   OH247365   2.602   6.243   0.944 -0.4834  0.1465  0.4395
 8625TIP3    H147366   2.568   6.287   1.022  1.6946  1.6230  0.6350
 8625TIP3    H247367   2.610   6.313   0.879 -0.9177 -0.8046 -0.6826
 8626TIP3   OH247368   5.342   2.287  16.993 -0.3824  0.1052  0.1467
 8626TIP3    H147369   5.424   2.244  16.968 -0.6631  0.8007 -2.1841
 8626TIP3    H247370   5.275   2.244  16.939 -1.4215  0.2538  1.2654
 8627TIP3   OH247371   6.749   3.477   5.160 -0.1965 -0.8761 -0.1690
 8627TIP3    H147372   6.787   3.456   5.075 -1.1319 -0.4501 -0.7029
 8627TIP3    H247373   6.825   3.489   5.218  0.4498 -0.9749 -0.9836
 8628TIP3   OH247374   6.242   6.446  16.911 -0.2383  0.2419 -0.1063
 8628TIP3    H147375   6.295   6.506  16.859  0.4345  0.3817  0.7147
 8628TIP3    H247376   6.151   6.469  16.891 -0.0927  3.2692  2.0608
 8629TIP3   OH247377   2.844   3.516   0.479  0.7569  0.0585  0.5138
 8629TIP3    H147378   2.855   3.447   0.545  3.3871 -0.9745 -0.8763
 8629TIP3    H247379   2.907   3.494   0.411  0.5755  3.0213 -0.7271
 8630TIP3   OH247380   4.253   5.154   2.524 -0.3862  0.0606 -0.1828
 8630TIP3    H147381   4.287   5.196   2.446 -3.0553  3.5170  0.3025
 8630TIP3    H247382   4.190   5.090   2.492  1.9941 -2.1361 -0.8431
 8631TIP3   OH247383   1.119   2.775  13.206  0.1861  0.2899  0.1216
 8631TIP3    H147384   1.045   2.836  13.197 -0.2869 -0.4265 -1.0046
 8631TIP3    H247385   1.079   2.689  13.210  0.8947 -0.0114  1.0180
 8632TIP3   OH247386   6.655   0.051   3.271 -0.3278 -0.0570 -0.4903
 8632TIP3    H147387   6.561   0.051   3.289 -0.2748  2.8713  0.3984
 8632TIP3    H247388   6.670   0.133   3.222  1.6811 -0.7675 -1.1651
 8633TIP3   OH247389   1.884   4.051  16.332  0.5425  0.2026 -0.1164
 8633TIP3    H147390   1.958   4.068  16.274  0.8084  1.6332  0.5933
 8633TIP3    H247391   1.898   3.962  16.363  1.9636  0.4240 -0.0431
 8634TIP3   OH247392   6.667   2.203   6.247 -0.2580 -0.1851 -0.5930
 8634TIP3    H147393   6.740   2.243   6.296 -0.3715 -1.2885  0.5458
 8634TIP3    H247394   6.632   2.137   6.307  0.2303 -2.3361 -2.5294
 8635TIP3   OH247395   3.235   4.637  15.308 -0.3889 -0.0343  0.0106
 8635TIP3    H147396   3.319   4.652  15.265 -0.2072  0.9272  0.6527
 8635TIP3    H247397   3.256   4.639  15.402 -1.1122  0.0789  0.1756
 8636TIP3   OH247398   6.246   4.954  11.838  0.3672  0.2406  0.0224
 8636TIP3    H147399   6.327   4.977  11.793 -0.0562  0.0987 -0.8359
 8636TIP3    H247400   6.178   4.959  11.770 -0.0265 -1.7009  0.2170
 8637TIP3   OH247401   5.626   6.264  12.106  0.4341  0.1221 -0.2292
 8637TIP3    H147402   5.719   6.284  12.100  0.5486  0.5241  2.2055
 8637TIP3    H247403   5.603   6.278  12.198 -2.1365  0.4783 -0.8274
 8638TIP3   OH247404   0.180   0.245   4.674 -0.2295  0.1120  0.1225
 8638TIP3    H147405   0.156   0.162   4.633  2.1548  0.3916 -2.0858
 8638TIP3    H247406   0.217   0.220   4.759 -0.4233 -0.9925 -0.1025
 8639TIP3   OH247407   0.224   4.910   4.303  0.1828 -0.0043  0.2269
 8639TIP3    H147408   0.158   4.963   4.259  0.6626  0.4332  0.0273
 8639TIP3    H247409   0.175   4.862   4.370 -0.5593 -0.6889 -0.7735
 8640TIP3   OH247410   6.315   5.777   3.483  0.1802  0.4066  0.1389
 8640TIP3    H147411   6.358   5.804   3.401 -1.1661  1.7179 -0.1705
 8640TIP3    H247412   6.309   5.857   3.534 -0.3266 -0.1195  0.9255
 8641TIP3   OH247413   5.520   6.279   1.434 -0.1203 -0.0620  0.0827
 8641TIP3    H147414   5.588   6.341   1.408 -0.3284  1.9420  3.7212
 8641TIP3    H247415   5.552   6.195   1.402  2.9492  1.1038 -0.3382
 8642TIP3   OH247416   2.270   5.248  13.507 -0.5572  0.4170 -1.0418
 8642TIP3    H147417   2.206   5.181  13.532  0.8123 -0.8931 -0.9195
 8642TIP3    H247418   2.343   5.234  13.567 -0.0095  1.6548 -1.4068
 8643TIP3   OH247419   3.839   3.715   2.947  0.4088 -0.0150 -0.3264
 8643TIP3    H147420   3.786   3.644   2.910  1.2427 -0.7471 -0.1539
 8643TIP3    H247421   3.929   3.692   2.925  0.7309  0.7777  0.1099
 8644TIP3   OH247422   6.285   0.795  15.162  0.2539 -0.0100  0.0389
 8644TIP3    H147423   6.283   0.863  15.094 -0.7292  0.1539  0.2101
 8644TIP3    H247424   6.245   0.719  15.120  0.1813 -0.0876  0.2485
 8645TIP3   OH247425   0.257   2.383  11.739 -0.3866  0.3076  0.1146
 8645TIP3    H147426   0.271   2.470  11.776  2.3389  0.7223 -1.6462
 8645TIP3    H247427   0.162   2.372  11.741 -0.7187  2.6884  1.7230
 8646TIP3   OH247428   6.754   3.801  12.703  0.0339  0.6805  0.0301
 8646TIP3    H147429   6.677   3.856  12.692  0.3474  1.1727  0.2523
 8646TIP3    H247430   6.741   3.757  12.787  0.3387  1.3370  0.4302
 8647TIP3   OH247431   4.689   5.442   4.792 -0.4246  0.1583  0.2204
 8647TIP3    H147432   4.713   5.412   4.704 -0.8001 -0.2989  0.2697
 8647TIP3    H247433   4.773   5.455   4.836 -0.2342  0.2954 -0.1732
 8648TIP3   OH247434   4.285   4.376   1.532  0.2044 -0.3814  0.1735
 8648TIP3    H147435   4.228   4.452   1.523 -0.6674 -1.2569 -2.7299
 8648TIP3    H247436   4.280   4.354   1.625 -1.9892  1.2324  0.5288
 8649TIP3   OH247437   4.326   2.819   2.494  0.0422  0.1509 -0.0304
 8649TIP3    H147438   4.354   2.807   2.403  3.1413 -1.6611  1.0081
 8649TIP3    H247439   4.347   2.909   2.515  0.5942  0.1867 -0.7257
 8650TIP3   OH247440   2.945   0.071  16.967 -0.0300 -0.8267  0.6180
 8650TIP3    H147441   2.899   0.032  17.041  0.6483 -1.1950  0.8517
 8650TIP3    H247442   2.876   0.086  16.902 -0.1356 -4.4277 -0.3655
 8651TIP3   OH247443   4.132   5.533  16.845  0.4636  0.0936  0.1642
 8651TIP3    H147444   4.188   5.461  16.873 -0.0777 -0.5077 -0.2720
 8651TIP3    H247445   4.050   5.520  16.893  1.3331  2.1491  2.4308
 8652TIP3   OH247446   4.253   2.983   5.164  0.3734  0.7008  0.0409
 8652TIP3    H147447   4.301   2.909   5.203 -0.3879  0.3557  0.3344
 8652TIP3    H247448   4.206   2.945   5.091  0.2103  0.9553  0.0128
 8653TIP3   OH247449   5.645   4.136   5.652 -0.0747 -0.5126  0.7541
 8653TIP3    H147450   5.663   4.065   5.590 -1.1079  0.5660 -0.8683
 8653TIP3    H247451   5.555   4.119   5.682  0.2298 -0.7300  1.5695
 8654TIP3   OH247452   5.468   2.952  15.314  0.4678  0.6872 -0.4688
 8654TIP3    H147453   5.473   3.032  15.365  2.7635  0.6963 -0.5820
 8654TIP3    H247454   5.536   2.895  15.352 -3.5583 -2.9163  2.2824
 8655TIP3   OH247455   4.374   0.145  12.502 -0.0285  0.0109  0.4489
 8655TIP3    H147456   4.301   0.084  12.490  0.3895 -0.3201 -0.4878
 8655TIP3    H247457   4.438   0.096  12.554 -1.2677  0.9830  3.0915
 8656TIP3   OH247458   5.923   2.959  11.361  0.6908 -0.2859 -0.3535
 8656TIP3    H147459   5.950   2.869  11.380  0.5252 -0.0579  1.0608
 8656TIP3    H247460   6.001   3.012  11.379 -0.0760  0.1723  1.9568
 8657TIP3   OH247461   3.637   3.245  11.143 -0.2050 -0.2729 -0.1942
 8657TIP3    H147462   3.673   3.312  11.084 -1.1558  0.5113  0.0964
 8657TIP3    H247463   3.685   3.258  11.225  0.8383 -1.1073 -0.6419
 8658TIP3   OH247464   1.846   5.789   3.632  0.5987  0.2757 -0.4061
 8658TIP3    H147465   1.809   5.733   3.700  2.0190  0.3129  0.4278
 8658TIP3    H247466   1.905   5.731   3.583 -0.8809  0.0861 -2.0320
 8659TIP3   OH247467   5.934   5.503  14.123 -0.4386  0.4979  0.0397
 8659TIP3    H147468   5.982   5.583  14.144 -0.8491  0.6148  0.5357
 8659TIP3    H247469   5.885   5.482  14.202  1.0275 -1.2422  0.5559
 8660TIP3   OH247470   2.708   5.835   1.997  0.4920  0.3789 -0.7012
 8660TIP3    H147471   2.691   5.741   2.006 -1.8329  0.7573 -0.3976
 8660TIP3    H247472   2.793   5.848   2.039 -1.2227 -0.9426  3.8091
 8661TIP3   OH247473   3.378   1.872  16.899 -0.0187  0.2205  0.2119
 8661TIP3    H147474   3.404   1.956  16.936  3.4181 -1.1716  1.3433
 8661TIP3    H247475   3.311   1.839  16.960  0.2210  1.1422  1.0086
 8662TIP3   OH247476   1.870   0.100  15.934 -0.5487  0.0486 -0.1816
 8662TIP3    H147477   1.847   0.191  15.915 -1.4033 -0.0455  0.3278
 8662TIP3    H247478   1.948   0.106  15.988 -1.4556  0.5690  1.1347
 8663TIP3   OH247479   4.873   3.548   0.835  0.1690 -0.0970  0.3856
 8663TIP3    H147480   4.870   3.595   0.751  0.1690  1.2315  1.1026
 8663TIP3    H247481   4.939   3.480   0.821 -0.6007 -0.6038 -1.0299
 8664TIP3   OH247482   3.639   1.072   3.926  0.6151 -0.2405  0.0137
 8664TIP3    H147483   3.674   1.137   3.864 -0.6279 -1.5112 -2.1685
 8664TIP3    H247484   3.697   0.996   3.916 -0.5503 -1.0508 -0.9064
 8665TIP3   OH247485   3.650   5.819  13.657  0.2621 -0.1673 -0.1841
 8665TIP3    H147486   3.717   5.754  13.679  0.0748  0.2037  1.6984
 8665TIP3    H247487   3.661   5.888  13.723 -1.9121 -0.0791  0.1654
 8666TIP3   OH247488   4.046   1.722  14.372  0.1388  0.2789  0.2601
 8666TIP3    H147489   4.031   1.627  14.378  0.2650  0.3408  2.4292
 8666TIP3    H247490   3.981   1.760  14.431 -1.0560  1.7327 -1.8431
 8667TIP3   OH247491   5.835   5.058  12.424 -0.7246  0.3234 -0.1997
 8667TIP3    H147492   5.760   5.013  12.384 -1.6516  0.7518  0.9798
 8667TIP3    H247493   5.908   4.998  12.412 -1.4758 -0.5599 -0.5051
 8668TIP3   OH247494   1.438   1.414  16.549  0.1100 -0.2898  0.0864
 8668TIP3    H147495   1.463   1.342  16.607  0.3784 -0.3447 -0.0972
 8668TIP3    H247496   1.355   1.446  16.585 -0.6464 -1.4752 -0.5469
 8669TIP3   OH247497   2.187   5.785   0.401  0.1330 -0.3035 -0.4125
 8669TIP3    H147498   2.180   5.718   0.333 -0.5418 -0.6969  0.0370
 8669TIP3    H247499   2.266   5.762   0.450 -1.6221 -2.5348  1.5757
 8670TIP3   OH247500   6.557   3.518  16.536  0.4978 -0.0454 -0.4151
 8670TIP3    H147501   6.562   3.569  16.617 -0.2945 -0.3313 -0.1793
 8670TIP3    H247502   6.568   3.427  16.564 -0.5523 -0.2148 -0.5274
 8671TIP3   OH247503   4.224   2.049  16.239  0.2299  0.2863 -0.1818
 8671TIP3    H147504   4.223   2.008  16.153  1.5090 -3.5709  1.4035
 8671TIP3    H247505   4.157   2.001  16.289 -0.4917  2.4239  1.0316
 8672TIP3   OH247506   6.805   5.055   3.488  0.6558  0.0855  0.0272
 8672TIP3    H147507   6.880   5.012   3.447 -1.8049 -1.4507 -3.3470
 8672TIP3    H247508   6.803   5.142   3.450  1.0050  0.3380  0.5690
 8673TIP3   OH247509   0.743   2.933  15.324 -0.2505  0.4501 -0.0987
 8673TIP3    H147510   0.742   2.843  15.291 -0.9618  0.4581 -0.1164
 8673TIP3    H247511   0.735   2.923  15.419 -1.0961  0.5081 -0.1545
 8674TIP3   OH247512   2.951   6.157   3.022 -0.4043  0.2156  0.5010
 8674TIP3    H147513   2.919   6.087   3.079 -2.1754  0.6096  0.0523
 8674TIP3    H247514   2.898   6.233   3.044  0.8028  1.1661  0.2707
 8675TIP3   OH247515   0.811   1.039   6.342  0.3391 -0.1424  0.0125
 8675TIP3    H147516   0.759   0.967   6.378 -0.4367  0.2604 -0.2901
 8675TIP3    H247517   0.849   1.081   6.419 -0.7806  0.3130  0.3412
 8676TIP3   OH247518   4.576   5.567   5.146  0.0777  0.1718  0.2130
 8676TIP3    H147519   4.493   5.521   5.157 -0.6657  1.6738  1.1243
 8676TIP3    H247520   4.642   5.498   5.150 -0.9421 -0.7658  2.3456
 8677TIP3   OH247521   1.397   3.822   0.580  0.1136 -0.4484  0.3331
 8677TIP3    H147522   1.350   3.750   0.621 -1.6232 -1.3501 -2.9394
 8677TIP3    H247523   1.337   3.897   0.584  0.2223 -0.3441  0.0888
 8678TIP3   OH247524   5.291   1.416   6.358 -0.3021  0.3280  0.1198
 8678TIP3    H147525   5.315   1.507   6.375 -0.6773  0.2585  1.0732
 8678TIP3    H247526   5.196   1.415   6.366 -0.3226 -0.1012 -0.1654
 8679TIP3   OH247527   4.433   0.178  15.807 -0.5353  0.0393 -0.7249
 8679TIP3    H147528   4.466   0.163  15.896 -0.8000 -1.4204 -0.8552
 8679TIP3    H247529   4.352   0.127  15.802  0.6975 -1.8960 -2.5398
 8680TIP3   OH247530   6.734   4.195   5.545 -0.6191  0.3136  0.0912
 8680TIP3    H147531   6.706   4.225   5.632 -0.4469 -0.5678  0.4594
 8680TIP3    H247532   6.673   4.126   5.522  0.5209 -0.8333  0.3969
 8681TIP3   OH247533   3.881   1.223  11.238  0.3430  0.1571  0.1241
 8681TIP3    H147534   3.786   1.216  11.241  0.3910 -0.2800  0.8282
 8681TIP3    H247535   3.898   1.302  11.187 -0.4123  0.7259  0.7415
 8682TIP3   OH247536   4.673   4.003   4.662  0.0223  0.4315  0.4782
 8682TIP3    H147537   4.686   4.021   4.755  3.7721 -1.7304  0.5752
 8682TIP3    H247538   4.757   4.024   4.622 -1.3674  0.9121 -2.4057
 8683TIP3   OH247539   0.049   2.692   0.910  0.1627  0.0234 -0.6773
 8683TIP3    H147540   0.121   2.715   0.969  0.5997  0.4755 -1.3807
 8683TIP3    H247541   0.012   2.612   0.948  1.1913 -0.3512 -0.4414
 8684TIP3   OH247542   4.571   2.768  14.042  0.0154  0.5383  0.0335
 8684TIP3    H147543   4.633   2.748  13.971  0.9586 -1.2704  1.2628
 8684TIP3    H247544   4.486   2.745  14.006  0.5384 -0.9088 -0.3972
 8685TIP3   OH247545   3.198   6.039  11.595 -0.0581 -0.1769  0.1664
 8685TIP3    H147546   3.106   6.063  11.599  0.4624  2.5922 -1.9538
 8685TIP3    H247547   3.209   5.995  11.511  0.6926  0.2145  0.0487
 8686TIP3   OH247548   2.171   2.477  15.275 -0.1462 -0.0026 -0.1395
 8686TIP3    H147549   2.175   2.393  15.320 -0.5735  0.3554  0.5834
 8686TIP3    H247550   2.110   2.529  15.326 -0.3283  0.5594 -0.9065
 8687TIP3   OH247551   1.343   4.806  12.401 -0.0574  0.0075  0.5683
 8687TIP3    H147552   1.263   4.791  12.451 -1.6883 -1.7135 -2.2224
 8687TIP3    H247553   1.365   4.719  12.365  2.5482  0.6232  0.4406
 8688TIP3   OH247554   5.373   3.992  11.800  0.2066 -0.0350  0.0723
 8688TIP3    H147555   5.422   4.051  11.857  0.7539 -1.9048  1.6338
 8688TIP3    H247556   5.332   3.929  11.859  0.3898 -1.7662 -1.5417
 8689TIP3   OH247557   3.183   2.948   1.097 -0.1695 -0.5269  0.4379
 8689TIP3    H147558   3.188   2.990   1.011 -0.7128 -0.6176  0.3617
 8689TIP3    H247559   3.148   2.861   1.080 -0.7639 -0.3660  0.8127
 8690TIP3   OH247560   5.092   3.805   5.360 -0.0924  0.0650  0.1279
 8690TIP3    H147561   5.102   3.722   5.406 -0.1216 -0.1293 -0.2081
 8690TIP3    H247562   5.004   3.801   5.322  0.0127  0.1226 -0.1283
 8691TIP3   OH247563   2.206   1.208   1.086 -0.3039  0.6358  0.0925
 8691TIP3    H147564   2.273   1.276   1.084  0.6068  0.0244  3.3704
 8691TIP3    H247565   2.249   1.134   1.130 -1.2661 -2.1589 -3.1699
 8692TIP3   OH247566   1.892   0.291  17.028 -0.1596  0.3681  0.6604
 8692TIP3    H147567   1.913   0.242  17.107 -0.6173  0.6306  0.9496
 8692TIP3    H247568   1.810   0.336  17.049 -3.0554 -3.2867 -1.5604
 8693TIP3   OH247569   4.113   6.184  15.307  0.2581  0.3350 -0.1720
 8693TIP3    H147570   4.064   6.103  15.317  1.0042 -0.3255 -1.5639
 8693TIP3    H247571   4.048   6.249  15.282  0.1630 -0.8461 -3.4949
 8694TIP3   OH247572   0.587   0.017  13.426 -0.3226 -0.6165 -0.6374
 8694TIP3    H147573   0.668   0.066  13.414 -0.9117  0.5066 -0.2151
 8694TIP3    H247574   0.579   0.006  13.521 -1.1352  0.1500 -0.5986
 8695TIP3   OH247575   5.091   1.643   4.290 -0.2547 -0.3836  0.0983
 8695TIP3    H147576   5.009   1.678   4.326 -0.5797  1.3306 -2.1045
 8695TIP3    H247577   5.145   1.721   4.274  0.8020 -1.2695 -0.8330
 8696TIP3   OH247578   5.879   1.257  14.792 -0.3203  0.2131 -0.3755
 8696TIP3    H147579   5.861   1.228  14.882  0.6299 -0.1380 -0.2811
 8696TIP3    H247580   5.974   1.259  14.787 -0.3732  0.9010 -1.1752
 8697TIP3   OH247581   3.258   6.710   3.136 -0.1906  0.2058  0.2954
 8697TIP3    H147582   3.331   6.652   3.159  0.2344 -0.5510 -2.6409
 8697TIP3    H247583   3.288   6.757   3.059 -1.6796  2.2195  0.8620
 8698TIP3   OH247584   3.389   0.960   3.103 -0.5452 -0.5146 -0.4258
 8698TIP3    H147585   3.323   1.022   3.071 -0.3196 -0.2502 -0.3767
 8698TIP3    H247586   3.338   0.886   3.136 -0.8563  0.0373  0.3620
 8699TIP3   OH247587   4.701   4.592  11.883 -0.0904  0.7029 -0.5436
 8699TIP3    H147588   4.788   4.556  11.864 -0.0154  0.9671 -0.6948
 8699TIP3    H247589   4.695   4.590  11.979 -0.1241  0.1982 -0.5515
 8700TIP3   OH247590   0.458   6.358   0.910  0.2436  0.1815 -0.4898
 8700TIP3    H147591   0.370   6.387   0.887 -0.1287 -0.0125  0.6267
 8700TIP3    H247592   0.449   6.320   0.997  1.2073 -0.9316 -0.8473
 8701TIP3   OH247593   2.660   4.027   3.752 -0.0930 -0.0624 -0.2299
 8701TIP3    H147594   2.711   4.060   3.826  2.1876  1.7276 -2.4118
 8701TIP3    H247595   2.577   4.073   3.758 -0.7440 -1.3588  2.1679
 8702TIP3   OH247596   6.341   0.970  12.541  0.2778 -0.0357  0.1922
 8702TIP3    H147597   6.307   0.886  12.571  2.1013 -0.6683  0.6355
 8702TIP3    H247598   6.431   0.952  12.515  0.2331  1.4867 -1.1983
 8703TIP3   OH247599   3.765   4.578   0.782  0.8205  0.4026 -0.3059
 8703TIP3    H147600   3.688   4.614   0.740 -0.2001 -1.3547 -0.0274
 8703TIP3    H247601   3.779   4.634   0.859 -0.1090  0.7939 -0.4095
 8704TIP3   OH247602   5.679   2.476  10.706 -0.6034  0.5374  0.3368
 8704TIP3    H147603   5.674   2.475  10.801  3.3504 -1.2286  0.7165
 8704TIP3    H247604   5.734   2.551  10.685 -0.8099  0.4726 -0.4948
 8705TIP3   OH247605   5.375   5.142   0.326 -0.0764  0.2260  0.3522
 8705TIP3    H147606   5.359   5.152   0.420  1.4148 -0.4516  0.7051
 8705TIP3    H247607   5.444   5.206   0.307  1.4287 -1.3521  0.2748
 8706TIP3   OH247608   4.716   1.867  14.464  0.5538  0.6169 -0.4275
 8706TIP3    H147609   4.624   1.842  14.452  0.6699  0.7015 -1.6159
 8706TIP3    H247610   4.713   1.962  14.476  0.3583  0.4223  1.1695
 8707TIP3   OH247611   1.065   0.051  12.066 -0.6908 -0.5074 -0.4000
 8707TIP3    H147612   1.053   0.146  12.059  1.5442 -0.2278 -1.2890
 8707TIP3    H247613   1.032   0.029  12.153 -2.1517  0.8998 -0.5504
 8708TIP3   OH247614   4.156   6.429   3.172  0.1194 -0.5324 -0.3115
 8708TIP3    H147615   4.174   6.508   3.122 -0.8025  0.2708  0.5747
 8708TIP3    H247616   4.216   6.434   3.247 -0.8901  0.0733  0.4884
 8709TIP3   OH247617   1.175   4.026   0.526  0.3065  0.1127 -1.1022
 8709TIP3    H147618   1.180   4.122   0.533  2.7989  0.0266 -0.7929
 8709TIP3    H247619   1.083   4.008   0.509 -0.4435  2.4842  0.0457
 8710TIP3   OH247620   6.037   4.799   6.076 -0.4773 -0.1154 -0.9288
 8710TIP3    H147621   6.030   4.893   6.057  0.3641  0.4325  1.2109
 8710TIP3    H247622   5.986   4.787   6.155 -1.5456 -1.7371 -1.8185
 8711TIP3   OH247623   3.696   6.135   5.379  0.3437  0.5755 -0.6154
 8711TIP3    H147624   3.669   6.159   5.291 -3.3556  3.0774  0.9547
 8711TIP3    H247625   3.697   6.217   5.428 -0.8153 -1.0115  2.3424
 8712TIP3   OH247626   5.992   5.511   2.122  0.2028 -0.1462 -0.3874
 8712TIP3    H147627   5.941   5.475   2.193  0.1670 -0.8982 -0.7890
 8712TIP3    H247628   6.082   5.511   2.154  0.1144  0.0520 -0.1360
 8713TIP3   OH247629   2.545   4.646  15.459  0.0778  0.1973  0.0675
 8713TIP3    H147630   2.544   4.738  15.487  0.1242  0.9492 -2.2271
 8713TIP3    H247631   2.454   4.626  15.441  0.2138  0.2480 -0.7267
 8714TIP3   OH247632   2.605   0.561   6.409 -0.4516 -0.1400 -0.2664
 8714TIP3    H147633   2.561   0.571   6.325 -1.8782  1.2050  0.5887
 8714TIP3    H247634   2.654   0.642   6.421  1.9559 -1.4081 -0.9673
 8715TIP3   OH247635   1.691   4.659   4.073 -0.5786 -0.2419  0.0384
 8715TIP3    H147636   1.717   4.630   4.161  1.9531 -0.1713 -0.5898
 8715TIP3    H247637   1.690   4.754   4.079  2.2759 -0.0872 -0.5664
 8716TIP3   OH247638   3.622   4.395  13.878  0.1658  0.3811  0.1264
 8716TIP3    H147639   3.535   4.415  13.843 -0.1026  0.5524  0.8806
 8716TIP3    H247640   3.616   4.304  13.905  0.2936  0.3253 -0.0319
 8717TIP3   OH247641   1.734   4.767  10.865  0.9901 -0.3886 -0.1805
 8717TIP3    H147642   1.656   4.765  10.921  0.8538  0.2373 -0.3418
 8717TIP3    H247643   1.711   4.826  10.794  1.6508 -0.1092 -0.1694
 8718TIP3   OH247644   2.530   1.875   2.131  0.4324 -0.4161 -0.4261
 8718TIP3    H147645   2.472   1.824   2.187  1.1924 -0.0302  0.7366
 8718TIP3    H247646   2.607   1.892   2.185  0.4790  1.3993 -0.9973
 8719TIP3   OH247647   1.570   4.968  12.482 -0.0186 -0.2735  0.3929
 8719TIP3    H147648   1.500   4.909  12.452  1.2645 -1.6093 -0.0707
 8719TIP3    H247649   1.603   5.009  12.402  2.5770 -2.9129 -0.0489
 8720TIP3   OH247650   2.721   1.074  13.597  0.1086 -0.3294 -0.4018
 8720TIP3    H147651   2.694   0.988  13.631  1.4365 -1.0038 -0.9927
 8720TIP3    H247652   2.758   1.055  13.511  1.3393  0.7020 -0.1270
 8721TIP3   OH247653   5.101   3.248   6.618 -0.1619  0.4970  0.1900
 8721TIP3    H147654   5.186   3.254   6.573 -0.0782 -1.6558 -0.0477
 8721TIP3    H247655   5.054   3.327   6.592  1.1357  0.9030 -1.0385
 8722TIP3   OH247656   4.272   1.117   1.728  0.2122  0.3643  0.0472
 8722TIP3    H147657   4.274   1.022   1.736  1.8018  0.0802 -2.4123
 8722TIP3    H247658   4.260   1.149   1.818  0.7627 -2.1293  1.0916
 8723TIP3   OH247659   6.505   6.801  13.180 -0.0909 -0.3073 -0.3048
 8723TIP3    H147660   6.560   6.879  13.187  0.2208 -0.5472 -0.0744
 8723TIP3    H247661   6.469   6.788  13.267 -1.8852  0.8320 -0.8196
 8724TIP3   OH247662   2.862   2.866  16.733 -0.4580  0.3692 -0.0143
 8724TIP3    H147663   2.875   2.831  16.645 -2.0961  1.4822 -0.7621
 8724TIP3    H247664   2.826   2.793  16.783  1.0813 -0.4579 -0.0442
 8725TIP3   OH247665   1.911   0.424   6.422  0.1280  0.1105 -0.8072
 8725TIP3    H147666   2.004   0.427   6.444 -0.4209  1.4061  1.6489
 8725TIP3    H247667   1.867   0.398   6.503 -1.7757  1.1354 -1.4437
 8726TIP3   OH247668   3.078   3.007  15.059 -0.0330 -0.0670  0.5805
 8726TIP3    H147669   3.096   3.091  15.017  0.1130 -0.7729 -0.8112
 8726TIP3    H247670   3.078   3.027  15.153  2.1933  1.0813  0.3951
 8727TIP3   OH247671   0.338   5.231   4.368 -0.0206  0.4904 -0.4908
 8727TIP3    H147672   0.312   5.181   4.445 -0.4634  1.2790 -0.1129
 8727TIP3    H247673   0.273   5.209   4.302  0.4601 -0.3202 -0.6991
 8728TIP3   OH247674   4.538   6.808  14.519 -1.0007 -0.4391 -0.2493
 8728TIP3    H147675   4.563   6.734  14.464 -0.0546  0.6503 -1.3720
 8728TIP3    H247676   4.493   6.868  14.459  1.6215  1.5932 -0.4073
 8729TIP3   OH247677   1.781   4.731  13.701 -0.1349  0.4867  0.0904
 8729TIP3    H147678   1.754   4.823  13.696  0.7360  0.6888 -1.2965
 8729TIP3    H247679   1.850   4.731  13.768 -2.1287  0.2722  2.3030
 8730TIP3   OH247680   2.783   3.478  14.370  0.2452  0.2776 -0.7542
 8730TIP3    H147681   2.737   3.401  14.403  0.6024  0.0177 -0.8551
 8730TIP3    H247682   2.716   3.530  14.327  0.2332 -0.6125 -1.8414
 8731TIP3   OH247683   2.138   1.854   2.440  0.3900 -0.4186  0.4398
 8731TIP3    H147684   2.165   1.900   2.520 -0.6273  1.2472 -0.1187
 8731TIP3    H247685   2.048   1.883   2.425  0.4603 -0.9218 -1.1732
 8732TIP3   OH247686   4.565   0.644   1.384  0.2732 -0.2806  0.0622
 8732TIP3    H147687   4.557   0.625   1.290  0.8553 -1.5926  0.2585
 8732TIP3    H247688   4.483   0.614   1.421  0.8024 -1.5611  0.2312
 8733TIP3   OH247689   2.540   6.637  14.814 -0.2728  0.3723 -0.1348
 8733TIP3    H147690   2.588   6.632  14.732  0.7229 -1.6674  0.4852
 8733TIP3    H247691   2.608   6.651  14.881 -0.8576  0.3199  0.4813
 8734TIP3   OH247692   5.836   1.960  15.418 -0.5868  0.4257 -0.2952
 8734TIP3    H147693   5.791   2.017  15.357 -0.1250  1.1910  0.0583
 8734TIP3    H247694   5.782   1.961  15.497 -0.5861  0.3663 -0.2938
 8735TIP3   OH247695   6.392   3.325   3.190 -0.9193 -0.5190 -0.0086
 8735TIP3    H147696   6.421   3.259   3.253  1.4100  0.8839  0.5199
 8735TIP3    H247697   6.363   3.399   3.244  0.5109  0.4579 -0.4972
 8736TIP3   OH247698   0.586   6.797   1.473 -0.8184  0.3797  0.4895
 8736TIP3    H147699   0.608   6.725   1.533  1.0966  2.1104  2.0282
 8736TIP3    H247700   0.661   6.856   1.478 -1.3158  1.4031 -2.4689
 8737TIP3   OH247701   4.410   2.229   5.688  0.0966 -0.6080  0.3773
 8737TIP3    H147702   4.323   2.239   5.649  0.5820 -2.3084 -1.2800
 8737TIP3    H247703   4.393   2.189   5.774 -0.7474 -4.5258 -1.3621
 8738TIP3   OH247704   6.622   0.322   3.544 -0.1096  1.3123  0.6350
 8738TIP3    H147705   6.670   0.293   3.622 -0.9561 -0.9156  0.4086
 8738TIP3    H247706   6.674   0.290   3.471 -0.7679  0.8665  0.3535
 8739TIP3   OH247707   3.487   0.744  14.997 -0.3964 -0.7593  0.0641
 8739TIP3    H147708   3.460   0.824  14.953 -0.2591 -0.4647  0.5130
 8739TIP3    H247709   3.406   0.712  15.038 -0.2267 -0.2394  0.8349
 8740TIP3   OH247710   5.476   0.731  15.780  0.1215 -0.2422 -0.3743
 8740TIP3    H147711   5.558   0.681  15.780 -1.1621 -2.4807  0.6193
 8740TIP3    H247712   5.451   0.736  15.872 -0.5191  1.0649 -0.5993
 8741TIP3   OH247713   2.335   4.909   4.383 -0.1707 -0.3058 -0.2556
 8741TIP3    H147714   2.367   4.996   4.363 -0.6900 -0.2659 -0.9645
 8741TIP3    H247715   2.314   4.871   4.298  0.1487 -1.1631  0.0356
 8742TIP3   OH247716   1.770   1.655  11.120 -0.0366 -0.5126  0.0742
 8742TIP3    H147717   1.761   1.620  11.031 -1.9784  1.9593 -0.8238
 8742TIP3    H247718   1.822   1.589  11.166  1.6459 -1.5935 -3.0348
 8743TIP3   OH247719   5.775   4.314  16.894 -0.1960  0.1903  0.1888
 8743TIP3    H147720   5.837   4.291  16.964  0.9329 -0.5170 -0.9991
 8743TIP3    H247721   5.779   4.410  16.889  2.2780  0.1100 -1.0754
 8744TIP3   OH247722   1.937   5.141   5.272  0.1819 -0.7282  0.4509
 8744TIP3    H147723   1.934   5.206   5.201 -2.8320  1.7973  2.6225
 8744TIP3    H247724   2.028   5.141   5.301  0.6924  0.9323 -0.9992
 8745TIP3   OH247725   6.111   6.349   1.857 -0.3753 -0.2135  0.2975
 8745TIP3    H147726   6.143   6.293   1.786 -1.2020 -1.6172  0.9988
 8745TIP3    H247727   6.191   6.389   1.893  0.1607 -0.3799 -0.6705
 8746TIP3   OH247728   3.841   1.439   2.157  0.9290 -0.2450  0.0528
 8746TIP3    H147729   3.776   1.406   2.095  1.3316 -0.5664 -0.2093
 8746TIP3    H247730   3.802   1.425   2.243 -0.4590  1.9260 -0.1443
 8747TIP3   OH247731   1.209   5.272  16.895  0.1022 -0.1313 -0.6368
 8747TIP3    H147732   1.154   5.240  16.967  0.2016 -1.0127 -0.9440
 8747TIP3    H247733   1.242   5.356  16.926  2.5209 -1.7713  1.6267
 8748TIP3   OH247734   2.551   1.430  11.235  0.6154  0.0296  0.9086
 8748TIP3    H147735   2.542   1.454  11.327 -0.1800  0.9000  0.6282
 8748TIP3    H247736   2.521   1.339  11.231 -0.5746  0.3783  1.3271
 8749TIP3   OH247737   1.226   0.192   3.767 -0.0980 -0.0037  0.4556
 8749TIP3    H147738   1.173   0.233   3.698  3.2318  3.0220 -0.6249
 8749TIP3    H247739   1.215   0.250   3.843 -0.7422 -1.1574  1.2729
 8750TIP3   OH247740   5.410   3.785   2.582 -0.0919 -0.5725 -0.5061
 8750TIP3    H147741   5.420   3.867   2.631 -1.4632 -1.3738  1.2258
 8750TIP3    H247742   5.438   3.717   2.643 -2.0616 -1.6207 -0.6962
 8751TIP3   OH247743   6.667   4.529  13.826 -0.5770  0.5265  0.6458
 8751TIP3    H147744   6.668   4.620  13.795  1.4896  0.7643  1.3182
 8751TIP3    H247745   6.580   4.497  13.800  0.0285  1.4361 -3.2603
 8752TIP3   OH247746   0.817   6.360   1.922  0.1381  0.4905  0.5168
 8752TIP3    H147747   0.892   6.357   1.862  0.9616  2.1761  1.3704
 8752TIP3    H247748   0.773   6.276   1.910  0.7015  0.4654 -1.8495
 8753TIP3   OH247749   2.505   1.322  14.222  0.4824  0.1380 -0.2515
 8753TIP3    H147750   2.600   1.322  14.209  0.5465  2.5899 -0.2401
 8753TIP3    H247751   2.471   1.381  14.155 -0.8060  0.9350  1.0327
 8754TIP3   OH247752   3.155   2.737  16.243  0.0661  0.1350 -0.4447
 8754TIP3    H147753   3.245   2.752  16.213 -0.0113  0.2985 -0.5970
 8754TIP3    H247754   3.156   2.767  16.334  0.2657 -0.2329 -0.3261
 8755TIP3   OH247755   4.846   0.071   5.277  0.4998 -0.4699  0.4059
 8755TIP3    H147756   4.919   0.110   5.228 -0.7029 -0.3926 -1.4568
 8755TIP3    H247757   4.877  -0.016   5.301  1.7656  0.1323  1.0646
 8756TIP3   OH247758   1.492   4.468   2.623 -0.5181  0.4302 -0.2526
 8756TIP3    H147759   1.573   4.449   2.576 -0.9749  0.9974 -1.2980
 8756TIP3    H247760   1.424   4.422   2.573 -0.7284 -0.9320  1.2130
 8757TIP3   OH247761   6.244   0.538   1.807  0.1079  0.2028  0.7780
 8757TIP3    H147762   6.310   0.562   1.742 -2.6443  1.5749 -1.7516
 8757TIP3    H247763   6.257   0.444   1.821  2.2071  0.3262 -0.0233
 8758TIP3   OH247764   6.314   3.532  11.526 -0.3565 -0.4787  0.2745
 8758TIP3    H147765   6.255   3.551  11.453 -0.0824 -1.7499 -0.2872
 8758TIP3    H247766   6.382   3.476  11.489  0.2246 -0.4968  1.3282
 8759TIP3   OH247767   5.647   1.047   2.646  0.4426  0.0082  0.0560
 8759TIP3    H147768   5.667   1.029   2.554 -3.7217 -1.2318 -0.8491
 8759TIP3    H247769   5.658   0.962   2.690 -1.5363 -0.4723 -0.2801
 8760TIP3   OH247770   0.208   5.258  10.812  0.3228  0.2012  0.4219
 8760TIP3    H147771   0.236   5.173  10.846 -0.9730  0.4071  2.1164
 8760TIP3    H247772   0.191   5.241  10.719  1.0934 -1.1223  0.4884
 8761TIP3   OH247773   0.801   1.891   3.339  0.4734 -0.1217  0.1622
 8761TIP3    H147774   0.745   1.890   3.417  1.5102  0.2214  0.9353
 8761TIP3    H247775   0.752   1.842   3.274 -0.7566  0.2289  0.7906
 8762TIP3   OH247776   1.071   0.254   3.519 -0.0272  0.2516 -0.5059
 8762TIP3    H147777   1.092   0.192   3.449  5.5179  0.8247  0.2384
 8762TIP3    H247778   1.057   0.337   3.474  0.2868  0.0053 -1.0695
 8763TIP3   OH247779   2.935   1.284   2.534 -0.0697  0.2877 -0.4038
 8763TIP3    H147780   2.844   1.267   2.559  0.5300 -1.1140  1.0387
 8763TIP3    H247781   2.936   1.273   2.439 -0.8948 -2.5170 -0.1817
 8764TIP3   OH247782   6.526   6.216   5.501 -0.8623  0.3609  0.4936
 8764TIP3    H147783   6.589   6.267   5.451  0.8959  0.2682  2.4807
 8764TIP3    H247784   6.451   6.275   5.513 -0.7162  0.8796 -0.9310
 8765TIP3   OH247785   6.775   2.156  12.844 -0.0361  1.0106  0.2179
 8765TIP3    H147786   6.756   2.147  12.751 -0.8783  0.7811  0.4089
 8765TIP3    H247787   6.817   2.073  12.868 -0.4206  0.8048  0.1856
 8766TIP3   OH247788   5.624   3.786   2.332 -0.3386  0.4740  0.2531
 8766TIP3    H147789   5.622   3.762   2.424 -1.1875 -0.2463  0.0655
 8766TIP3    H247790   5.535   3.813   2.312 -1.4196 -3.4382 -1.3193
 8767TIP3   OH247791   2.059   4.157   1.400 -0.2618  0.0837  0.0489
 8767TIP3    H147792   2.059   4.251   1.387 -2.3774  0.0645 -0.4948
 8767TIP3    H247793   2.138   4.126   1.356 -0.9869  1.3378 -2.3111
 8768TIP3   OH247794   6.171   0.917   0.754  0.2076 -0.1489 -0.2670
 8768TIP3    H147795   6.166   0.971   0.833  0.4394 -0.0736 -0.3057
 8768TIP3    H247796   6.263   0.892   0.746  0.1657 -0.2517 -0.4493
 8769TIP3   OH247797   5.450   6.253  11.581  0.8135  0.3093  0.0270
 8769TIP3    H147798   5.493   6.211  11.656 -0.5047 -0.2565  0.4898
 8769TIP3    H247799   5.359   6.224  11.586  0.8074 -0.2446 -2.1575
 8770TIP3   OH247800   1.797   0.146   2.404  0.0191  0.3227 -0.3316
 8770TIP3    H147801   1.864   0.173   2.342 -1.2016 -1.2406 -2.4876
 8770TIP3    H247802   1.728   0.212   2.396  0.2544  0.6145  0.0493
 8771TIP3   OH247803   2.371   2.413   3.853  0.2264  0.1047 -0.5903
 8771TIP3    H147804   2.356   2.334   3.800 -0.5686 -0.2452  0.1408
 8771TIP3    H247805   2.450   2.392   3.903 -0.1389 -0.3439 -0.1940
 8772TIP3   OH247806   6.344   0.950   0.040 -0.7019  0.0786  0.2189
 8772TIP3    H147807   6.406   0.999   0.094 -0.0490 -0.1410 -0.3185
 8772TIP3    H247808   6.282   1.016   0.008 -0.6705  0.3182  0.6495
 8773TIP3   OH247809   1.877   5.585   2.417  0.2115 -0.0713  0.1657
 8773TIP3    H147810   1.859   5.491   2.408  0.4676  0.0279 -1.7653
 8773TIP3    H247811   1.816   5.626   2.356 -0.0099  1.0637  1.1125
 8774TIP3   OH247812   3.968   0.792   3.283  0.0951 -0.7751  0.6219
 8774TIP3    H147813   3.993   0.835   3.365 -0.4916  2.2030 -0.6395
 8774TIP3    H247814   3.873   0.789   3.285  0.0102  0.4548 -0.4316
 8775TIP3   OH247815   3.101   2.999  10.777  0.4735  0.3219 -0.1809
 8775TIP3    H147816   3.192   2.970  10.766  0.4415 -0.0777  0.5313
 8775TIP3    H247817   3.106   3.094  10.772  1.2551  0.4396  1.8607
 8776TIP3   OH247818   4.942   2.091   0.343 -0.6448  0.0449  0.1393
 8776TIP3    H147819   4.957   2.095   0.437 -0.8307  1.4291  0.1262
 8776TIP3    H247820   5.027   2.064   0.307 -0.3672  0.2230  0.6493
 8777TIP3   OH247821   3.818   5.102   4.677 -0.4248 -0.3713  0.3795
 8777TIP3    H147822   3.727   5.074   4.689 -0.6083 -0.0071 -0.1421
 8777TIP3    H247823   3.854   5.043   4.611  0.3508 -1.8523  2.0292
 8778TIP3   OH247824   1.513   1.525  12.195 -0.2598  0.1130 -0.8927
 8778TIP3    H147825   1.552   1.440  12.171 -0.1557 -0.3927  0.8638
 8778TIP3    H247826   1.555   1.547  12.278  0.4912  2.4384 -1.8047
 8779TIP3   OH247827   2.295   2.230  12.050 -0.4607 -0.4225 -0.2574
 8779TIP3    H147828   2.342   2.158  12.093  2.7427  0.9108 -1.2865
 8779TIP3    H247829   2.202   2.211  12.068  0.3986 -2.9023  2.4200
 8780TIP3   OH247830   4.716   4.256  15.103  0.4125  0.1399  0.3850
 8780TIP3    H147831   4.656   4.193  15.062  0.2224  0.4621  0.1540
 8780TIP3    H247832   4.799   4.210  15.109 -0.1981 -0.7955  1.9839
 8781TIP3   OH247833   3.099   2.599   2.046  0.0625  0.0639  0.1091
 8781TIP3    H147834   3.024   2.593   1.987 -0.0784  1.3183  0.1200
 8781TIP3    H247835   3.077   2.673   2.103  0.0583 -1.2670  1.9271
 8782TIP3   OH247836   1.538   1.830  15.410 -0.0201  0.0196 -0.1850
 8782TIP3    H147837   1.565   1.843  15.320  0.6187 -1.7640 -0.2826
 8782TIP3    H247838   1.552   1.737  15.427 -2.2034 -0.1519  1.0702
 8783TIP3   OH247839   0.677   1.260  13.526 -0.0776 -0.0623  0.1200
 8783TIP3    H147840   0.608   1.299  13.472 -0.9170 -0.6696  0.7295
 8783TIP3    H247841   0.735   1.217  13.463  0.8906  2.1101 -0.5854
 8784TIP3   OH247842   5.088   2.021  14.310 -0.0567  0.3095 -0.0326
 8784TIP3    H147843   5.124   2.030  14.398  1.9645  0.5108 -0.8335
 8784TIP3    H247844   5.018   2.086  14.306 -0.4851 -0.0189  1.5511
 8785TIP3   OH247845   3.388   6.230  14.424 -0.4023  0.2077 -0.4172
 8785TIP3    H147846   3.426   6.157  14.376  0.5868 -0.3667  1.1756
 8785TIP3    H247847   3.357   6.290  14.356  0.8916 -0.5905 -1.7564
 8786TIP3   OH247848   3.382   6.141  10.598 -0.0971 -0.2131 -0.5461
 8786TIP3    H147849   3.295   6.102  10.589  0.5271 -1.6061 -0.7279
 8786TIP3    H247850   3.374   6.227  10.556 -0.8238 -1.2025 -2.5789
 8787TIP3   OH247851   0.175   3.846   4.397 -0.0105  0.1620 -0.2531
 8787TIP3    H147852   0.199   3.754   4.398  1.6961  0.5642 -0.5112
 8787TIP3    H247853   0.112   3.854   4.325 -1.2147 -0.9943  0.6196
 8788TIP3   OH247854   5.458   2.618   4.126  0.0748  0.4964  0.7203
 8788TIP3    H147855   5.445   2.687   4.061  1.4465  0.8143  0.7541
 8788TIP3    H247856   5.552   2.620   4.144  0.0319 -0.9807  1.1761
 8789TIP3   OH247857   3.672   1.020  15.209 -0.3995 -0.1831 -0.2182
 8789TIP3    H147858   3.763   1.027  15.238 -0.4472 -0.9036  0.1396
 8789TIP3    H247859   3.651   1.106  15.172  0.3196  0.0897 -0.0014
 8790TIP3   OH247860   6.482   1.116  16.996 -0.3966 -0.0972  0.5317
 8790TIP3    H147861   6.502   1.064  17.074 -0.2928  0.4625  0.8870
 8790TIP3    H247862   6.387   1.126  16.998 -0.3357  0.4123  0.9102
 8791TIP3   OH247863   2.955   2.573  10.959  0.5063 -0.1609  0.2566
 8791TIP3    H147864   2.943   2.644  11.021  0.6280 -0.5206  0.6939
 8791TIP3    H247865   3.046   2.582  10.930  0.2127  0.5006 -0.4933
 8792TIP3   OH247866   5.898   5.285  11.956 -0.2873 -0.2021 -0.5982
 8792TIP3    H147867   5.917   5.369  11.997  2.5708 -1.2524  0.5253
 8792TIP3    H247868   5.979   5.262  11.910 -1.4380 -1.7727 -1.9555
 8793TIP3   OH247869   3.504   5.352   6.132  0.1732 -0.6544  0.2398
 8793TIP3    H147870   3.439   5.368   6.064  1.5411  1.1681 -0.7149
 8793TIP3    H247871   3.453   5.322   6.207 -1.7086  0.2691 -0.6176
 8794TIP3   OH247872   0.396   1.611  13.255 -0.6679 -0.1019  0.2209
 8794TIP3    H147873   0.389   1.707  13.251  1.1128  0.0204 -1.8926
 8794TIP3    H247874   0.438   1.587  13.173 -0.7492 -2.6952  0.8665
 8795TIP3   OH247875   5.975   0.556  16.841  1.0986 -0.0379  0.2083
 8795TIP3    H147876   6.025   0.563  16.760  0.9688 -0.2903  0.1068
 8795TIP3    H247877   5.885   0.541  16.812  0.3817  3.2553  0.2598
 8796TIP3   OH247878   6.492   0.046   5.486  0.2456  0.0338 -0.6598
 8796TIP3    H147879   6.482  -0.023   5.422 -2.3782  1.4360 -1.9229
 8796TIP3    H247880   6.405   0.084   5.494  1.0260  1.5405  1.9073
 8797TIP3   OH247881   6.325   2.492  13.099 -0.1605  0.3343 -0.5390
 8797TIP3    H147882   6.251   2.445  13.137 -1.0763  0.7816 -1.7083
 8797TIP3    H247883   6.401   2.463  13.150 -0.8485 -1.5869 -0.5299
 8798TIP3   OH247884   2.491   5.320  13.340  0.3737  0.6395 -0.1488
 8798TIP3    H147885   2.432   5.281  13.404 -2.1802  3.0836 -0.8377
 8798TIP3    H247886   2.455   5.295  13.255  0.4020  2.0142 -0.5902
 8799TIP3   OH247887   2.600   4.374   5.378  0.0565  0.1778 -0.6233
 8799TIP3    H147888   2.620   4.301   5.320 -1.4652 -1.4477  0.7833
 8799TIP3    H247889   2.677   4.380   5.435  0.3970 -0.0026 -1.0543
 8800TIP3   OH247890   5.595   3.578  15.347 -0.4710  0.0433  0.1466
 8800TIP3    H147891   5.591   3.514  15.276 -1.1446  0.0331  0.1929
 8800TIP3    H247892   5.549   3.655  15.314 -0.3562  0.2169  0.3859
 8801TIP3   OH247893   2.764   6.654  15.346  0.2287 -0.4279  0.2076
 8801TIP3    H147894   2.852   6.685  15.325 -0.6636  1.2467 -1.3265
 8801TIP3    H247895   2.732   6.716  15.411  0.1206 -0.9504  0.6566
 8802TIP3   OH247896   6.672   0.065   0.314 -0.0594  0.1054  0.1384
 8802TIP3    H147897   6.594   0.010   0.315 -0.3629  0.5247  0.8360
 8802TIP3    H247898   6.639   0.154   0.300  0.1318  0.4786  1.8049
 8803TIP3   OH247899   3.469   4.447  12.667 -0.1335 -0.0093  0.3147
 8803TIP3    H147900   3.388   4.398  12.656  0.9657 -1.7698 -0.4386
 8803TIP3    H247901   3.445   4.538  12.650 -2.1550 -0.3058  1.2621
 8804TIP3   OH247902   5.781   3.389   5.058  0.3996 -0.3234  0.2917
 8804TIP3    H147903   5.798   3.427   4.972 -0.3233 -0.9984 -0.1598
 8804TIP3    H247904   5.690   3.411   5.077  0.7582  0.4203  1.2030
 8805TIP3   OH247905   0.161   5.867  13.467 -0.1578  0.5170  0.2254
 8805TIP3    H147906   0.103   5.930  13.425  0.4597  0.2843 -1.0348
 8805TIP3    H247907   0.245   5.912  13.472  0.0872  0.0903  0.0418
 8806TIP3   OH247908   5.574   1.658   2.025  0.4089  0.5293  0.1063
 8806TIP3    H147909   5.555   1.576   2.070  2.4002  0.8083  1.5633
 8806TIP3    H247910   5.491   1.706   2.027 -0.0602 -0.2877  1.7813
 8807TIP3   OH247911   6.572   6.553   3.502 -0.2259 -0.1275  0.7527
 8807TIP3    H147912   6.641   6.574   3.439 -0.5346 -1.9651 -0.2597
 8807TIP3    H247913   6.619   6.540   3.585  0.5408 -0.3512  0.2939
 8808TIP3   OH247914   1.448   2.014   4.002 -0.4069 -0.1999  0.2395
 8808TIP3    H147915   1.384   2.007   3.931  0.9155 -1.8179 -0.8337
 8808TIP3    H247916   1.408   2.077   4.063 -2.2586  0.0825 -1.1753
 8809TIP3   OH247917   2.713   1.485   0.346  0.2497  0.4938  0.1009
 8809TIP3    H147918   2.753   1.554   0.399  0.9128  0.2652 -0.0879
 8809TIP3    H247919   2.671   1.427   0.409 -1.4756  1.7683  0.1865
 8810TIP3   OH247920   3.985   4.178  14.283 -0.2494 -0.6021 -0.1328
 8810TIP3    H147921   3.922   4.203  14.216 -1.0618 -0.2207  0.7592
 8810TIP3    H247922   4.070   4.199  14.244 -0.7560  0.6664 -0.6199
 8811TIP3   OH247923   0.197   3.497   0.766 -0.1504 -0.3835  0.0097
 8811TIP3    H147924   0.154   3.579   0.743 -1.3399 -0.3077  2.2277
 8811TIP3    H247925   0.128   3.432   0.766  0.5577 -1.1551 -0.5683
 8812TIP3   OH247926   5.514   2.010  12.238 -0.1856 -0.1463  0.4772
 8812TIP3    H147927   5.600   1.986  12.274 -0.1036 -0.8050 -0.1341
 8812TIP3    H247928   5.453   1.948  12.279 -0.2628 -0.1515  0.3534
 8813TIP3   OH247929   2.203   4.864  14.902  0.4414 -0.1041 -0.1794
 8813TIP3    H147930   2.264   4.861  14.829  0.9071  1.0000  0.1449
 8813TIP3    H247931   2.247   4.815  14.972  0.1939 -0.7678 -0.4747
 8814TIP3   OH247932   3.035   3.213   1.071  0.6017  0.1210  0.3827
 8814TIP3    H147933   2.967   3.149   1.049  1.3409 -0.1489 -1.3412
 8814TIP3    H247934   3.075   3.179   1.151  0.6281 -1.3292 -0.2059
 8815TIP3   OH247935   1.475   0.363   2.952  0.2940 -0.2157  0.0574
 8815TIP3    H147936   1.464   0.368   2.857  0.7636  0.6685  0.0417
 8815TIP3    H247937   1.498   0.452   2.978 -1.8516  0.0492  1.2651
 8816TIP3   OH247938   0.766   1.734   4.965  0.8085 -0.0822 -0.5949
 8816TIP3    H147939   0.781   1.679   5.042  1.0472 -1.3239 -1.4908
 8816TIP3    H247940   0.718   1.810   4.999 -0.8198 -1.4954  0.4923
 8817TIP3   OH247941   5.070   2.185   3.142  0.4372  0.0202 -0.3461
 8817TIP3    H147942   5.102   2.102   3.178 -0.6689  0.4756  1.8597
 8817TIP3    H247943   4.985   2.162   3.102  1.4109 -0.3786 -2.3113
 8818TIP3   OH247944   6.164   5.252  12.940 -0.2620 -0.2087  0.3693
 8818TIP3    H147945   6.256   5.249  12.912 -0.3525 -2.5254  0.0522
 8818TIP3    H247946   6.167   5.286  13.029  1.0067 -0.9075  0.6272
 8819TIP3   OH247947   3.061   1.108   3.257 -0.5961  0.3301 -0.4257
 8819TIP3    H147948   3.035   1.159   3.333  0.6161  1.4820 -0.7482
 8819TIP3    H247949   3.006   1.030   3.261  0.4610 -0.3852  2.4554
 8820TIP3   OH247950   3.594   1.968   3.063 -0.4088  0.1349 -0.2994
 8820TIP3    H147951   3.576   2.032   2.994  0.2464  1.2328  0.5179
 8820TIP3    H247952   3.648   2.015   3.126 -0.6187 -0.9782  0.7537
 8821TIP3   OH247953   5.845   3.394  12.587  0.0721 -0.5519  0.0955
 8821TIP3    H147954   5.750   3.406  12.579  0.0364  0.0793  1.2343
 8821TIP3    H247955   5.882   3.475  12.552  0.1709 -0.5712  0.1557
 8822TIP3   OH247956   1.594   4.587  13.880  0.0092  0.0194  0.1748
 8822TIP3    H147957   1.640   4.667  13.906  1.1388 -0.6040  0.1805
 8822TIP3    H247958   1.553   4.556  13.961  0.3258  0.1111  0.3737
 8823TIP3   OH247959   6.703   5.476  14.834  0.2476 -0.6191  0.4926
 8823TIP3    H147960   6.642   5.411  14.800 -1.3164  1.7161 -1.5580
 8823TIP3    H247961   6.646   5.545  14.869  1.8055  0.0904  1.7198
 8824TIP3   OH247962   6.575   4.894  16.278  0.4750 -0.2162 -0.0725
 8824TIP3    H147963   6.503   4.957  16.270 -0.6202 -1.3859  0.2499
 8824TIP3    H247964   6.609   4.907  16.366  0.6549  0.3228 -0.2165
 8825TIP3   OH247965   2.067   1.941   5.020  0.1491  0.5253  0.4551
 8825TIP3    H147966   2.037   2.015   4.967  2.5150  1.2973  0.0504
 8825TIP3    H247967   2.129   1.894   4.964  0.9787  0.0194  1.7249
 8826TIP3   OH247968   0.438   2.873  13.244 -0.2795  0.1806  0.1289
 8826TIP3    H147969   0.449   2.823  13.163  0.9983 -0.8201  0.8708
 8826TIP3    H247970   0.464   2.812  13.313 -1.0937  1.0955  1.2756
 8827TIP3   OH247971   2.656   2.636  15.610  0.0029 -0.1855 -0.1440
 8827TIP3    H147972   2.727   2.639  15.546 -0.8939  1.7945 -1.1594
 8827TIP3    H247973   2.598   2.708  15.584 -1.5536 -0.7359  1.5912
 8828TIP3   OH247974   1.581   0.205   5.004 -0.2847  0.1018 -0.2944
 8828TIP3    H147975   1.495   0.205   5.045 -0.3095 -0.8835 -0.3264
 8828TIP3    H247976   1.564   0.202   4.910 -0.2141 -0.0939 -0.3007
 8829TIP3   OH247977   2.684   6.212  15.108 -0.7377 -0.5142  0.5749
 8829TIP3    H147978   2.604   6.190  15.156 -2.4910  0.6923 -1.6032
 8829TIP3    H247979   2.653   6.257  15.029  2.1325  0.3609 -0.1690
 8830TIP3   OH247980   4.895   3.956   6.221  0.2463  0.4025  0.2802
 8830TIP3    H147981   4.874   3.931   6.311 -1.1356  1.0204  0.1442
 8830TIP3    H247982   4.910   3.872   6.177 -0.4913  0.0102  0.7477
 8831TIP3   OH247983   1.915   1.609  11.376 -0.2903 -0.2839 -0.2692
 8831TIP3    H147984   2.008   1.590  11.384 -0.2400  0.4613  1.5342
 8831TIP3    H247985   1.877   1.531  11.337  1.4179  0.4164 -3.6883
 8832TIP3   OH247986   4.231   3.683  15.981 -0.4417 -0.1696  0.5211
 8832TIP3    H147987   4.273   3.602  15.956 -3.5150 -2.5705  2.3283
 8832TIP3    H247988   4.272   3.707  16.064 -0.6494 -0.9002  0.8457
 8833TIP3   OH247989   6.769   1.228   1.998  1.0712  0.2964  0.1242
 8833TIP3    H147990   6.864   1.234   2.007  1.1997 -2.3457  1.2851
 8833TIP3    H247991   6.736   1.252   2.085  0.8007 -0.6419  0.2831
 8834TIP3   OH247992   5.745   0.083   0.121 -0.6866 -0.2505 -0.8344
 8834TIP3    H147993   5.824   0.030   0.134 -2.7603 -3.1222  1.0935
 8834TIP3    H247994   5.710   0.096   0.209 -2.1895  1.3384 -1.5962
 8835TIP3   OH247995   2.993   1.524   2.231  0.3052 -0.4995  0.8390
 8835TIP3    H147996   2.910   1.571   2.220  1.5469  1.6488  0.2167
 8835TIP3    H247997   2.968   1.431   2.226 -1.6713  0.0146 -2.9955
 8836TIP3   OH247998   5.461   1.507  14.788  0.1286 -0.1718 -0.7457
 8836TIP3    H147999   5.398   1.535  14.722  0.2636  0.4644 -0.6097
 8836TIP3    H248000   5.545   1.540  14.756  0.0143  1.3179  0.3887
 8837TIP3   OH248001   1.838   5.455  12.633  0.6245 -0.0520  0.2135
 8837TIP3    H148002   1.850   5.470  12.727 -2.6291  1.8059  0.4646
 8837TIP3    H248003   1.757   5.404  12.627 -0.6961  2.0981 -1.6103
 8838TIP3   OH248004   4.551   6.030   1.057  0.0054  0.2693 -0.1015
 8838TIP3    H148005   4.582   6.080   0.981  1.4655  0.8001  0.7866
 8838TIP3    H248006   4.603   6.064   1.130 -1.0146 -0.5673  1.0513
 8839TIP3   OH248007   5.388   4.033  11.314  0.0119 -0.4325 -0.5651
 8839TIP3    H148008   5.439   4.105  11.277 -2.4175  2.1353  0.7312
 8839TIP3    H248009   5.336   4.000  11.241 -0.6504  0.8056 -0.6682
 8840TIP3   OH248010   5.077   2.463  15.382  0.2064  0.4817 -0.0509
 8840TIP3    H148011   5.087   2.556  15.406  0.0642 -0.0961  2.4755
 8840TIP3    H248012   5.072   2.417  15.465  0.3755 -1.8494 -1.2528
 8841TIP3   OH248013   0.476   5.905   2.750 -0.0455  0.7416 -0.2171
 8841TIP3    H148014   0.464   5.824   2.800  1.0704 -0.4572 -1.7846
 8841TIP3    H248015   0.393   5.917   2.704 -0.4053  0.8197  0.4315
 8842TIP3   OH248016   3.382   2.328   5.867 -0.6294 -0.1947  0.1447
 8842TIP3    H148017   3.392   2.331   5.772 -1.2968  1.9759  0.0955
 8842TIP3    H248018   3.471   2.330   5.901 -0.3248 -2.0961 -0.3826
 8843TIP3   OH248019   6.088   4.844  14.537 -0.2930  1.0795  0.1385
 8843TIP3    H148020   6.090   4.857  14.632 -0.4164  0.6130  0.2097
 8843TIP3    H248021   5.999   4.816  14.518  0.2970 -1.0130  0.2091
 8844TIP3   OH248022   1.954   1.078  14.742 -0.3986  0.2636  0.0909
 8844TIP3    H148023   2.046   1.070  14.717 -0.0782  0.2723  1.1907
 8844TIP3    H248024   1.957   1.089  14.837 -1.5092  0.9066  0.0609
 8845TIP3   OH248025   1.435   6.728   5.970 -0.1316 -0.0530 -0.6658
 8845TIP3    H148026   1.454   6.782   6.046  0.2164 -0.1335 -0.6906
 8845TIP3    H248027   1.427   6.639   6.005 -0.1363 -0.0667 -0.7016
 8846TIP3   OH248028   2.216   1.042  14.673 -0.5278  0.4205 -0.4062
 8846TIP3    H148029   2.286   1.076  14.729 -1.3928  1.4274  0.0948
 8846TIP3    H248030   2.235   0.948  14.666 -0.1323  0.3492  1.2140
 8847TIP3   OH248031   0.071   6.087   5.686 -0.6229  0.2324  0.3585
 8847TIP3    H148032  -0.015   6.050   5.706 -0.8209  0.1428 -0.6525
 8847TIP3    H248033   0.108   6.029   5.620  0.8643 -0.5964  1.8365
 8848TIP3   OH248034   6.362   4.713  14.281 -0.0233 -0.0998  0.0893
 8848TIP3    H148035   6.373   4.702  14.187 -0.5312  1.7027 -0.2112
 8848TIP3    H248036   6.435   4.770  14.307 -0.4763  0.2591  0.5951
 8849TIP3   OH248037   4.248   4.417   1.904  0.1388  0.3797  0.4080
 8849TIP3    H148038   4.176   4.419   1.841  0.8545  1.6014 -0.4322
 8849TIP3    H248039   4.241   4.501   1.951  0.5493  0.1698  0.8490
 8850TIP3   OH248040   2.392   2.068  11.282  0.1098 -0.1649 -0.4711
 8850TIP3    H148041   2.385   2.046  11.188  2.4269 -1.7312 -0.3588
 8850TIP3    H248042   2.303   2.056  11.315 -0.4506 -1.1982 -2.1759
 8851TIP3   OH248043   1.860   4.134  14.628 -0.1159 -0.1751 -0.9526
 8851TIP3    H148044   1.941   4.082  14.636  1.0605  1.6004 -0.7537
 8851TIP3    H248045   1.809   4.110  14.706  1.1442  0.1476  0.0103
 8852TIP3   OH248046   2.074   3.411   4.041 -0.1128 -0.3572  0.2727
 8852TIP3    H148047   2.140   3.359   4.087 -0.0733  0.2095  0.8813
 8852TIP3    H248048   2.114   3.498   4.033  0.0723 -0.5649 -1.2800
 8853TIP3   OH248049   6.646   0.466   5.400 -0.0257 -0.0667  0.0204
 8853TIP3    H148050   6.564   0.421   5.423  0.7202 -2.1687 -1.1580
 8853TIP3    H248051   6.707   0.441   5.469 -0.4081  1.8079  1.1073
 8854TIP3   OH248052   4.820   5.894   3.272 -0.1047  0.0777 -0.5076
 8854TIP3    H148053   4.866   5.966   3.315 -0.4398  0.2136 -0.3710
 8854TIP3    H248054   4.728   5.921   3.272 -0.0716  0.2501 -1.6459
 8855TIP3   OH248055   5.662   0.735  12.375  0.1070  0.2954  0.1496
 8855TIP3    H148056   5.604   0.669  12.336  1.0463 -0.3041 -0.2700
 8855TIP3    H248057   5.703   0.777  12.300  0.6097  0.3477  0.4537
 8856TIP3   OH248058   1.524   5.345  14.554 -0.5360  0.1078  0.9157
 8856TIP3    H148059   1.587   5.311  14.491 -1.8532  0.7194 -0.8222
 8856TIP3    H248060   1.558   5.431  14.579  1.1271 -1.0031  2.8427
 8857TIP3   OH248061   5.079   1.016  16.323 -0.1276  0.1499  0.3313
 8857TIP3    H148062   5.155   0.973  16.283  0.2120  2.1957 -1.3886
 8857TIP3    H248063   5.109   1.106  16.339 -1.6630  0.5270  1.2111
 8858TIP3   OH248064   1.466   4.885   1.079 -1.0533 -0.4966  0.5266
 8858TIP3    H148065   1.526   4.953   1.108 -0.9615 -0.1354 -0.4847
 8858TIP3    H248066   1.520   4.826   1.026 -1.7941  0.4607 -1.3715
 8859TIP3   OH248067   6.258   4.027   4.287  0.4781 -0.2135 -0.3258
 8859TIP3    H148068   6.238   4.081   4.364  1.4400  1.8834 -1.4524
 8859TIP3    H248069   6.195   4.056   4.221  1.9257  0.6678 -1.3963
 8860TIP3   OH248070   4.134   1.873  13.645 -0.0017 -0.0626  0.3142
 8860TIP3    H148071   4.176   1.789  13.625 -0.3085  0.1742 -1.4634
 8860TIP3    H248072   4.163   1.893  13.735  0.3823 -1.8612  0.6336
 8861TIP3   OH248073   5.800   1.627  13.455  0.4881 -0.0453  0.5782
 8861TIP3    H148074   5.773   1.536  13.441  1.6744 -0.7855  2.6627
 8861TIP3    H248075   5.882   1.635  13.405  0.5025 -0.1939  0.5768
 8862TIP3   OH248076   3.972   1.022   5.157  0.0699 -0.1854 -0.1498
 8862TIP3    H148077   4.055   1.011   5.111  0.0858  0.3364 -0.2592
 8862TIP3    H248078   3.907   1.028   5.087 -0.4447 -3.1896 -0.0494
 8863TIP3   OH248079   5.631   2.875  11.471 -0.6092 -0.2247  0.6545
 8863TIP3    H148080   5.699   2.816  11.502 -2.2568 -1.5605  1.9848
 8863TIP3    H248081   5.625   2.942  11.538 -0.2831  0.1638  0.2970
 8864TIP3   OH248082   3.225   4.776  11.743  0.1134  0.1175  0.5758
 8864TIP3    H148083   3.298   4.791  11.804  0.8663  2.0739 -0.7176
 8864TIP3    H248084   3.222   4.681  11.733  1.2074 -0.1232  2.1762
 8865TIP3   OH248085   4.708   1.206  15.698  0.2599 -0.1518 -0.0853
 8865TIP3    H148086   4.613   1.213  15.687 -0.2361 -0.0031  3.1443
 8865TIP3    H248087   4.740   1.296  15.688 -0.2465  0.1169  0.5918
 8866TIP3   OH248088   5.715   2.621  13.308 -0.0664  0.1059  0.4498
 8866TIP3    H148089   5.728   2.543  13.361 -1.9531 -0.4746  0.1217
 8866TIP3    H248090   5.643   2.667  13.351 -0.4016  0.5594 -0.5682
 8867TIP3   OH248091   4.497   6.175   3.763 -0.3423 -0.2714  0.8535
 8867TIP3    H148092   4.551   6.161   3.841  0.0183  0.8424  0.8337
 8867TIP3    H248093   4.501   6.270   3.748  0.9231 -0.5948 -1.4437
 8868TIP3   OH248094   4.248   3.880  11.822  0.0879 -0.1456 -0.2932
 8868TIP3    H148095   4.242   3.787  11.799  0.2892 -0.5422  1.1363
 8868TIP3    H248096   4.293   3.920  11.748  2.0343 -1.6118  0.0200
 8869TIP3   OH248097   2.440   0.398   3.939  0.1565 -0.1259  0.0776
 8869TIP3    H148098   2.467   0.307   3.927 -0.8352 -0.3868 -0.2573
 8869TIP3    H248099   2.502   0.448   3.885  0.3339 -0.6544 -0.2170
 8870TIP3   OH248100   5.643   5.398   1.861 -0.5609 -0.1066 -0.6079
 8870TIP3    H148101   5.572   5.423   1.802 -2.1547 -0.7369  0.9152
 8870TIP3    H248102   5.680   5.320   1.822 -1.0151 -0.0330 -1.2113
 8871TIP3   OH248103   6.785   2.582   3.074  0.1824  0.1177 -1.0354
 8871TIP3    H148104   6.697   2.613   3.050 -0.0956 -0.6089 -0.9870
 8871TIP3    H248105   6.823   2.655   3.123 -1.7399 -0.8029  2.1184
 8872TIP3   OH248106   2.333   6.410  15.049 -0.0625 -0.1791 -0.2963
 8872TIP3    H148107   2.302   6.338  15.105 -1.2333  1.1946  0.8952
 8872TIP3    H248108   2.376   6.470  15.110 -0.2541  0.7562 -1.0724
 8873TIP3   OH248109   5.165   6.360   5.369  0.2178  0.2601 -0.6488
 8873TIP3    H148110   5.231   6.417   5.409 -0.5937  0.4065  0.5108
 8873TIP3    H248111   5.135   6.304   5.440  0.9802 -1.6559 -1.7559
 8874TIP3   OH248112   6.261   3.114   4.130  0.1814  0.7957 -0.1904
 8874TIP3    H148113   6.215   3.192   4.098  1.1418  1.1030 -0.8872
 8874TIP3    H248114   6.352   3.128   4.103  0.2405 -0.9128 -0.9727
 8875TIP3   OH248115   4.851   6.717  12.704 -0.0769  0.8408  0.4918
 8875TIP3    H148116   4.844   6.623  12.692  0.1708  0.8909 -0.1024
 8875TIP3    H248117   4.788   6.738  12.773  0.5036  0.1231  1.2599
 8876TIP3   OH248118   4.981   6.355  12.919 -0.0254 -0.0171  0.7089
 8876TIP3    H148119   4.946   6.402  12.844 -0.5276 -0.4603  0.6623
 8876TIP3    H248120   5.071   6.334  12.895 -0.2119 -0.2320  0.1998
 8877TIP3   OH248121   3.369   5.006  13.516 -0.4092  0.0732  0.0751
 8877TIP3    H148122   3.390   5.055  13.596  0.0396  1.2891 -0.7471
 8877TIP3    H248123   3.357   4.916  13.545  0.5265  0.3442  1.4036
 8878TIP3   OH248124   1.656   5.072   2.217  0.1880  0.3227 -0.3407
 8878TIP3    H148125   1.652   5.010   2.145 -1.3468  1.3603 -1.2104
 8878TIP3    H248126   1.582   5.048   2.273 -0.0564  0.9756 -0.3757
 8879TIP3   OH248127   2.044   0.063  14.051 -1.0760  0.4343  0.1372
 8879TIP3    H148128   2.027   0.039  14.142 -1.0944 -1.8733 -0.4137
 8879TIP3    H248129   1.965   0.035  14.004 -0.6405  0.6332 -0.7390
 8880TIP3   OH248130   4.222   0.224   3.664 -0.3133 -0.2835  0.1964
 8880TIP3    H148131   4.131   0.205   3.686 -0.2100 -1.4202 -0.2711
 8880TIP3    H248132   4.256   0.270   3.741 -1.7239  1.7612 -0.3104
 8881TIP3   OH248133   5.958   5.954  16.030  0.3039 -0.1741 -0.0407
 8881TIP3    H148134   5.968   6.006  15.950  1.7725  0.1521  0.3112
 8881TIP3    H248135   5.895   5.886  16.007 -0.9365  1.1703 -0.8051
 8882TIP3   OH248136   3.998   3.822   0.411 -0.0843  0.6256  0.0217
 8882TIP3    H148137   4.075   3.830   0.468  1.8470  1.4222 -2.5010
 8882TIP3    H248138   3.984   3.728   0.402  0.1067  0.4787  1.0935
 8883TIP3   OH248139   4.272   1.612  16.561 -0.7599  0.3345 -0.0240
 8883TIP3    H148140   4.326   1.652  16.629 -0.6303  1.4817 -0.7679
 8883TIP3    H248141   4.228   1.539  16.604  3.1357 -2.1997  0.0716
 8884TIP3   OH248142   2.793   6.557  13.668 -0.3647  0.1531 -0.2481
 8884TIP3    H148143   2.873   6.605  13.690 -0.6186 -0.2856  1.9002
 8884TIP3    H248144   2.732   6.624  13.638 -0.3888  1.1062  1.7444
 8885TIP3   OH248145   4.184   3.039   3.303 -0.0935 -0.1156  0.3555
 8885TIP3    H148146   4.187   2.944   3.292 -1.6757 -0.5678  2.9491
 8885TIP3    H248147   4.136   3.070   3.226  0.3760 -1.3997 -0.4870
 8886TIP3   OH248148   6.735   4.430  14.779 -0.2787 -0.4608  0.4669
 8886TIP3    H148149   6.804   4.481  14.822 -0.3012 -0.9036  1.0389
 8886TIP3    H248150   6.757   4.433  14.686 -0.0969  0.3188  0.5250
 8887TIP3   OH248151   1.378   6.469  10.828 -0.1272  0.3975 -0.1672
 8887TIP3    H148152   1.395   6.412  10.753 -1.6392 -0.5703  0.1820
 8887TIP3    H248153   1.399   6.415  10.905 -0.1553  0.8307  0.1504
 8888TIP3   OH248154   1.646   5.687   1.967 -0.0335  0.7020 -0.4119
 8888TIP3    H148155   1.555   5.677   1.939 -0.8040  1.1327  1.7197
 8888TIP3    H248156   1.677   5.766   1.923 -0.0852 -0.3484 -2.4779
 8889TIP3   OH248157   3.420   4.519  16.775  0.6050  0.2301 -0.2693
 8889TIP3    H148158   3.407   4.425  16.787  2.2295 -0.0303 -0.3306
 8889TIP3    H248159   3.429   4.554  16.863 -2.7359  0.8591 -0.0146
 8890TIP3   OH248160   4.541   1.640  15.989 -0.3235 -0.0893  0.0700
 8890TIP3    H148161   4.561   1.551  16.018 -1.0013 -0.2425  0.0920
 8890TIP3    H248162   4.543   1.636  15.894 -0.1168 -0.0716  0.0737
 8891TIP3   OH248163   3.304   3.894   2.011  0.0757 -0.4188  0.3549
 8891TIP3    H148164   3.365   3.835   1.966 -0.6793 -2.2855  1.6450
 8891TIP3    H248165   3.217   3.859   1.990 -0.4423  0.6654  0.6184
 8892TIP3   OH248166   0.411   2.276   4.075 -0.0947  0.3323  0.0675
 8892TIP3    H148167   0.485   2.255   4.132 -0.5898 -1.0692  0.2326
 8892TIP3    H248168   0.449   2.324   4.001  0.9405 -0.2021  0.2480
 8893TIP3   OH248169   0.765   1.529  13.548  0.3092 -0.3512 -0.1183
 8893TIP3    H148170   0.719   1.448  13.528 -2.2983  0.9567  0.0991
 8893TIP3    H248171   0.812   1.512  13.629 -1.8407 -1.0854  1.0234
 8894TIP3   OH248172   1.832   4.717  14.979 -0.2018  0.6109 -0.0202
 8894TIP3    H148173   1.841   4.811  14.995 -2.5480  1.0764 -1.0283
 8894TIP3    H248174   1.903   4.696  14.918  1.0181  1.4447  1.0394
 8895TIP3   OH248175   3.382   0.330   0.966  0.3677 -0.4581  0.3690
 8895TIP3    H148176   3.426   0.295   0.889 -0.0376  2.2722 -1.2217
 8895TIP3    H248177   3.404   0.269   1.036  1.6599 -2.4423 -1.6451
 8896TIP3   OH248178   6.604   5.989   5.715 -0.6711 -0.2194  0.2539
 8896TIP3    H148179   6.587   5.910   5.665  1.4205  0.6242 -1.9673
 8896TIP3    H248180   6.593   6.060   5.652 -0.8015  1.1481  1.7558
 8897TIP3   OH248181   2.722   6.143  16.413 -0.1556 -0.4833  0.2104
 8897TIP3    H148182   2.660   6.207  16.378  0.9342  1.2034  1.1843
 8897TIP3    H248183   2.750   6.092  16.337 -1.4793 -0.1920 -0.5070
 8898TIP3   OH248184   1.753   1.449  13.960  0.3955  0.1527  0.9061
 8898TIP3    H148185   1.823   1.409  14.013 -0.3658 -1.2547  0.9169
 8898TIP3    H248186   1.688   1.477  14.024  0.1832 -0.1230  0.8164
 8899TIP3   OH248187   4.689   6.777   4.798 -0.8316 -0.0762  0.4466
 8899TIP3    H148188   4.598   6.760   4.772 -0.9060 -0.9973  1.2478
 8899TIP3    H248189   4.694   6.749   4.889  0.1088  0.5442  0.6031
 8900TIP3   OH248190   6.035   5.164   3.212  0.6908  0.3829  0.3668
 8900TIP3    H148191   5.946   5.132   3.196  0.7072 -1.0380  2.6730
 8900TIP3    H248192   6.025   5.259   3.217 -0.4084  0.3691 -0.8123
 8901TIP3   OH248193   0.102   1.415  10.813 -0.7933  0.0126  0.4509
 8901TIP3    H148194   0.132   1.353  10.746 -3.5564 -0.5623 -0.4276
 8901TIP3    H248195   0.039   1.470  10.766  0.0716  2.1948  1.7215
 8902TIP3   OH248196   2.612   2.140  13.272 -0.0787 -0.3324  0.0656
 8902TIP3    H148197   2.704   2.116  13.277  0.1500  0.4457 -0.2750
 8902TIP3    H248198   2.565   2.061  13.300  0.6749 -0.8421 -0.0808
 8903TIP3   OH248199   4.703   6.769   0.033 -0.6287 -0.0155  0.5550
 8903TIP3    H148200   4.788   6.803   0.008 -1.1187  0.4651 -0.5228
 8903TIP3    H248201   4.641   6.814  -0.024 -1.3772 -2.2167 -0.5036
 8904TIP3   OH248202   2.042   0.043  16.725 -0.1086  0.4328 -0.0073
 8904TIP3    H148203   1.967   0.042  16.785  0.8921 -0.1344  1.3023
 8904TIP3    H248204   2.065  -0.049  16.714 -0.9087  0.4424 -2.1593
 8905TIP3   OH248205   1.399   4.263   0.091 -0.2403 -0.0463  0.5465
 8905TIP3    H148206   1.311   4.238   0.120  0.5035 -2.0827  1.2103
 8905TIP3    H248207   1.442   4.293   0.171  0.0197 -0.1331  0.4402
 8906TIP3   OH248208   4.156   3.473  11.992 -0.0105  0.2873 -0.2778
 8906TIP3    H148209   4.093   3.544  11.993  0.2971  0.5578 -0.0242
 8906TIP3    H248210   4.170   3.451  12.084 -0.5395 -0.4892 -0.3739
 8907TIP3   OH248211   1.279   0.223  13.140  0.3627 -0.4109  0.5742
 8907TIP3    H148212   1.371   0.248  13.142  0.3004 -0.1934  0.8670
 8907TIP3    H248213   1.253   0.235  13.049  0.4363  0.2284  0.6341
 8908TIP3   OH248214   1.166   5.651  15.339  0.2050  0.6922 -0.4022
 8908TIP3    H148215   1.174   5.736  15.296  0.4996 -0.6303 -3.2716
 8908TIP3    H248216   1.074   5.643  15.362 -0.0160  1.4304 -0.9942
 8909TIP3   OH248217   1.010   0.843  16.480 -0.1825 -0.8780  0.3015
 8909TIP3    H148218   1.010   0.882  16.393 -0.3839  0.5174  0.9005
 8909TIP3    H248219   0.918   0.842  16.506  0.0305  0.3646  1.1875
 8910TIP3   OH248220   0.294   4.719  15.231  0.3331  0.0884  0.2737
 8910TIP3    H148221   0.337   4.736  15.314  1.3674 -0.4520 -0.1232
 8910TIP3    H248222   0.307   4.625  15.216 -0.5119  0.0241 -0.1312
 8911TIP3   OH248223   1.952   1.408  12.200 -0.1715 -0.4220  0.0912
 8911TIP3    H148224   1.932   1.464  12.125 -1.5738 -1.8241 -0.6407
 8911TIP3    H248225   2.030   1.359  12.174  0.9338  0.9624  0.6513
 8912TIP3   OH248226   5.640   0.519  13.973  0.2370  0.6335  0.2071
 8912TIP3    H148227   5.657   0.613  13.974  1.3469  0.4412  0.4025
 8912TIP3    H248228   5.583   0.504  14.048 -2.0530  1.5002 -1.2671
 8913TIP3   OH248229   3.593   2.727  14.739 -0.0439 -0.0925 -0.4282
 8913TIP3    H148230   3.665   2.690  14.688  1.4899  0.7508  0.9929
 8913TIP3    H248231   3.606   2.693  14.827 -1.1426  0.4332 -0.0431
 8914TIP3   OH248232   2.106   2.898  12.837 -0.0858 -0.2459 -0.3201
 8914TIP3    H148233   2.152   2.815  12.830 -1.4486 -1.0398 -0.1336
 8914TIP3    H248234   2.112   2.920  12.930 -0.0740 -0.3315 -0.3003
 8915TIP3   OH248235   6.029   6.465  16.218  0.6759  0.7373 -0.1523
 8915TIP3    H148236   6.056   6.504  16.134 -0.7050 -1.7484 -1.8793
 8915TIP3    H248237   6.078   6.384  16.224  0.6204  0.7900  1.4161
 8916TIP3   OH248238   1.916   3.910   1.808  0.3464 -0.0920  0.8454
 8916TIP3    H148239   1.999   3.923   1.854 -0.6404 -0.0498  2.7108
 8916TIP3    H248240   1.941   3.877   1.722  2.3607  1.4603  0.7669
 8917TIP3   OH248241   4.686   4.177  16.468  0.5033 -0.2793  0.1394
 8917TIP3    H148242   4.657   4.268  16.468  1.4847  0.0442  0.5962
 8917TIP3    H248243   4.610   4.127  16.499 -0.6717  0.1456 -1.8516
 8918TIP3   OH248244   2.996   0.954  11.864 -0.0421 -0.4797 -0.3079
 8918TIP3    H148245   3.047   0.945  11.945 -0.5784 -2.4245 -0.1434
 8918TIP3    H248246   2.905   0.956  11.892 -0.1987 -0.0689 -0.8120
 8919TIP3   OH248247   5.771   6.711   3.229 -0.1832 -0.1178 -0.1069
 8919TIP3    H148248   5.818   6.760   3.298 -3.8719  1.2781  1.7011
 8919TIP3    H248249   5.802   6.750   3.147  2.4194  0.0062  0.8276
 8920TIP3   OH248250   4.658   1.165   5.258 -0.1277 -0.5869  0.2791
 8920TIP3    H148251   4.736   1.214   5.230 -1.0209  1.0599  0.5795
 8920TIP3    H248252   4.612   1.144   5.177  0.0461 -0.5808  0.1784
 8921TIP3   OH248253   4.254   6.325  12.936 -0.1870  0.0766 -0.9104
 8921TIP3    H148254   4.231   6.255  12.875 -1.3201  0.0299 -0.4524
 8921TIP3    H248255   4.170   6.364  12.961  0.4496  2.1211 -1.7432
 8922TIP3   OH248256   6.487   4.780   0.939 -0.0175 -0.3692  0.4527
 8922TIP3    H148257   6.527   4.731   1.011 -0.1753 -1.5404 -0.2269
 8922TIP3    H248258   6.503   4.725   0.862 -1.8403 -0.2560 -0.0425
 8923TIP3   OH248259   5.788   6.201   1.333  0.3977 -0.0080  0.2766
 8923TIP3    H148260   5.826   6.259   1.398  0.8058  1.9122 -1.5640
 8923TIP3    H248261   5.802   6.246   1.250 -3.5426 -0.4017 -0.8009
 8924TIP3   OH248262   2.279   2.389   3.067  0.5142 -0.1206  0.2479
 8924TIP3    H148263   2.227   2.437   3.131 -0.9459 -1.3644  0.0313
 8924TIP3    H248264   2.347   2.346   3.119 -0.1961 -0.5102  0.8707
 8925TIP3   OH248265   1.189   6.178   2.479  0.2371  0.2706 -0.9092
 8925TIP3    H148266   1.099   6.208   2.466  0.2212  0.8058  0.3075
 8925TIP3    H248267   1.241   6.259   2.480  0.6893 -0.0097 -1.2843
 8926TIP3   OH248268   0.946   4.919  16.791  0.0986  0.1215  0.4193
 8926TIP3    H148269   0.987   4.885  16.712  1.6736 -0.3331  1.3708
 8926TIP3    H248270   0.869   4.863  16.805  0.7298 -0.8535  0.0908
 8927TIP3   OH248271   6.213   6.424  15.253  0.2471 -0.0894  0.0230
 8927TIP3    H148272   6.217   6.416  15.157 -1.6515 -0.2253 -0.0957
 8927TIP3    H248273   6.220   6.518  15.269  0.9054 -0.0923 -0.2137
 8928TIP3   OH248274   2.117   1.440   3.337  0.6364  0.2178  0.0950
 8928TIP3    H148275   2.024   1.454   3.357  0.5785 -1.2314  0.9351
 8928TIP3    H248276   2.164   1.476   3.412  0.6646 -0.6416  0.4939
 8929TIP3   OH248277   4.448   6.228   4.633 -0.2879 -0.0615  0.0632
 8929TIP3    H148278   4.424   6.223   4.541 -1.1431  2.7314  0.0537
 8929TIP3    H248279   4.520   6.291   4.636  0.2491 -0.6857  1.2621
 8930TIP3   OH248280   1.971   6.033   2.100  0.0538  0.6568  0.0978
 8930TIP3    H148281   2.010   6.107   2.054 -0.9215  0.6645 -0.7772
 8930TIP3    H248282   1.955   6.065   2.189 -0.4534  1.5413 -0.2986
 8931TIP3   OH248283   2.831   1.709   0.466  0.6802 -0.2668 -0.2894
 8931TIP3    H148284   2.791   1.781   0.417  1.9046  0.1220 -0.7730
 8931TIP3    H248285   2.905   1.749   0.512  0.2853 -0.8764  0.9043
 8932TIP3   OH248286   3.857   1.680  10.521  0.8162  0.4039 -0.0886
 8932TIP3    H148287   3.809   1.599  10.505 -1.3009  1.5997 -0.3296
 8932TIP3    H248288   3.811   1.721  10.595  3.5984  0.1236  1.9337
 8933TIP3   OH248289   5.169   5.864   0.893 -0.6814  0.8878 -0.3546
 8933TIP3    H148290   5.097   5.924   0.912 -2.3697 -1.3161  0.7102
 8933TIP3    H248291   5.201   5.836   0.978 -0.1065  0.1067 -0.8073
 8934TIP3   OH248292   3.317   2.524   5.333  0.3853  0.4514  0.2098
 8934TIP3    H148293   3.340   2.615   5.351  1.8133  0.1015  0.2167
 8934TIP3    H248294   3.371   2.500   5.258  1.3524 -0.9205  1.3049
 8935TIP3   OH248295   3.053   6.773  15.221 -0.0029 -0.0192 -0.3017
 8935TIP3    H148296   3.104   6.853  15.236  1.7069 -0.8374 -1.4078
 8935TIP3    H248297   3.096   6.706  15.275 -1.4915 -0.2244  0.7161
 8936TIP3   OH248298   3.353   1.152   5.241  0.5003 -0.1024  0.5785
 8936TIP3    H148299   3.283   1.210   5.209 -1.1326 -1.6312  1.2055
 8936TIP3    H248300   3.335   1.143   5.335  1.1979 -0.9925  0.6390
 8937TIP3   OH248301   1.881   2.316  12.839 -0.1861 -0.0261  0.0980
 8937TIP3    H148302   1.839   2.364  12.768  0.3736  2.2041  1.1874
 8937TIP3    H248303   1.810   2.269  12.882 -0.7233 -0.3817 -1.1377
 8938TIP3   OH248304   1.911   3.127   6.108 -0.3976 -0.2819  0.2204
 8938TIP3    H148305   1.873   3.136   6.021 -0.0470 -0.7155  0.0227
 8938TIP3    H248306   1.848   3.171   6.166 -1.3601 -1.2266 -0.0668
 8939TIP3   OH248307   5.192   0.722  16.525 -0.5943 -0.3089  0.3138
 8939TIP3    H148308   5.153   0.650  16.575  1.2346 -2.4900 -1.1896
 8939TIP3    H248309   5.126   0.744  16.460  0.1709 -3.5338 -1.8177
 8940TIP3   OH248310   3.825   3.982   5.736  0.1068 -0.3287  0.6921
 8940TIP3    H148311   3.743   3.952   5.776  0.2256 -1.7069 -0.0356
 8940TIP3    H248312   3.876   3.902   5.724  0.5250  0.1757 -1.1805
 8941TIP3   OH248313   3.955   5.530   0.117  0.6230 -0.4798  0.7141
 8941TIP3    H148314   3.882   5.587   0.142  0.9426  0.5263 -0.5281
 8941TIP3    H248315   3.951   5.458   0.179  0.5363  1.1682  2.7629
 8942TIP3   OH248316   5.161   6.389  14.554  0.4415 -0.0485  0.1630
 8942TIP3    H148317   5.119   6.308  14.525 -1.8492  1.6210 -1.5517
 8942TIP3    H248318   5.236   6.399  14.496 -0.0833 -0.2276 -0.5537
 8943TIP3   OH248319   5.613   2.398   5.999  0.1405 -0.8079 -0.0830
 8943TIP3    H148320   5.670   2.356   5.934 -0.1779 -0.9921 -0.2418
 8943TIP3    H248321   5.617   2.491   5.977 -1.0625 -0.9997 -1.2462
 8944TIP3   OH248322   0.421   1.124  14.318 -0.3797 -0.8672  0.3987
 8944TIP3    H148323   0.338   1.076  14.324 -1.0092  0.1476  0.0218
 8944TIP3    H248324   0.414   1.192  14.385 -1.3089  1.3384 -1.8141
 8945TIP3   OH248325   4.517   3.654   1.229 -0.3541 -0.3038  0.5695
 8945TIP3    H148326   4.605   3.688   1.241 -0.6359  0.2628  1.0656
 8945TIP3    H248327   4.519   3.611   1.144  0.3540 -0.1478  0.5065
 8946TIP3   OH248328   6.079   6.230  16.572  0.0754 -0.8257  0.5217
 8946TIP3    H148329   6.016   6.159  16.584 -1.3035  0.5751  2.0344
 8946TIP3    H248330   6.138   6.223  16.648  1.8992 -2.1592 -0.9064
 8947TIP3   OH248331   5.035   5.962  13.394 -0.7273 -0.1093  0.2961
 8947TIP3    H148332   4.943   5.963  13.419 -0.6029  1.0944  0.7692
 8947TIP3    H248333   5.083   5.960  13.476 -0.3140 -0.7483  0.0519
 8948TIP3   OH248334   5.871   4.799   6.301 -0.4476  0.3903 -0.4619
 8948TIP3    H148335   5.918   4.816   6.383  0.0210 -3.0030  0.0996
 8948TIP3    H248336   5.787   4.763   6.328 -0.3136 -0.7234 -1.4533
 8949TIP3   OH248337   0.092   0.829  14.781  0.4071 -0.2171  0.0480
 8949TIP3    H148338   0.126   0.901  14.833 -0.4465  0.4501 -0.2966
 8949TIP3    H248339   0.086   0.863  14.692  0.6355 -0.9372 -0.2591
 8950TIP3   OH248340   4.979   1.058   1.508 -0.1085  0.5505  0.6338
 8950TIP3    H148341   5.038   0.985   1.490 -1.2150 -0.7546  2.0111
 8950TIP3    H248342   4.967   1.100   1.423  0.9739 -0.5527 -0.0999
 8951TIP3   OH248343   1.704   1.128   0.845 -0.5163  0.2146  0.4206
 8951TIP3    H148344   1.797   1.109   0.860 -0.4664  0.1581  0.0472
 8951TIP3    H248345   1.670   1.149   0.932 -0.0645  0.6358  0.5046
 8952TIP3   OH248346   6.631   5.077  14.879  0.2617  0.2854 -0.4492
 8952TIP3    H148347   6.545   5.054  14.844 -1.6485  2.1665  2.4940
 8952TIP3    H248348   6.691   5.065  14.806 -2.3944 -1.5595 -2.5351
 8953TIP3   OH248349   1.713   3.734  16.726  0.4311 -0.0597 -0.0170
 8953TIP3    H148350   1.708   3.647  16.765  0.2478 -0.2314 -0.4188
 8953TIP3    H248351   1.741   3.791  16.798 -1.0215 -0.1730  0.6933
 8954TIP3   OH248352   0.442   4.661  16.053 -0.2577 -0.8035 -0.2675
 8954TIP3    H148353   0.347   4.666  16.047 -0.3260 -0.9359  0.6130
 8954TIP3    H248354   0.467   4.738  16.103  0.0651 -0.9861 -0.1429
 8955TIP3   OH248355   6.174   5.362  16.930  0.3596  0.0057 -0.5866
 8955TIP3    H148356   6.123   5.348  17.010  1.3025  0.9849  0.2140
 8955TIP3    H248357   6.109   5.384  16.864 -0.2243  2.6767  0.7455
 8956TIP3   OH248358   4.454   1.041   3.285  0.2094 -0.3937  0.0126
 8956TIP3    H148359   4.496   1.072   3.365  0.5632 -0.0704 -0.2983
 8956TIP3    H248360   4.406   0.962   3.312 -0.5348  0.3066  0.7604
 8957TIP3   OH248361   2.232   6.745  11.952 -0.2850 -0.8919  0.5607
 8957TIP3    H148362   2.179   6.670  11.979 -0.6628 -1.2028 -0.9625
 8957TIP3    H248363   2.258   6.725  11.862  2.1800 -0.6117  1.1140
 8958TIP3   OH248364   6.010   4.694   4.944 -0.2660 -0.0000 -0.3795
 8958TIP3    H148365   5.939   4.755   4.962  0.4483  1.5079 -2.2740
 8958TIP3    H248366   6.077   4.716   5.009 -0.5557  0.2733 -0.1683
 8959TIP3   OH248367   6.481   3.259   6.275  0.4879  0.2461  0.5673
 8959TIP3    H148368   6.491   3.327   6.342  0.5633  0.8019  0.0020
 8959TIP3    H248369   6.519   3.181   6.316  0.6773  0.6103  1.1179
 8960TIP3   OH248370   6.552   0.861   1.476 -0.6728  1.0746  0.0525
 8960TIP3    H148371   6.611   0.927   1.440 -1.2236  0.9286 -1.1466
 8960TIP3    H248372   6.525   0.897   1.560 -0.2527  1.9472 -0.1757
 8961TIP3   OH248373   6.377   4.452   4.902  0.5252  0.2521  0.1884
 8961TIP3    H148374   6.336   4.499   4.829  1.5501  1.7489  0.5154
 8961TIP3    H248375   6.337   4.490   4.980  1.8758  1.1547  0.4820
 8962TIP3   OH248376   6.791   5.199   2.082 -0.0349 -0.2249  0.4337
 8962TIP3    H148377   6.824   5.289   2.073  3.6133 -1.5158 -1.2573
 8962TIP3    H248378   6.846   5.160   2.150 -0.9142 -1.4460  0.4822
 8963TIP3   OH248379   5.933   4.054   0.439 -0.3159 -0.1231  0.1048
 8963TIP3    H148380   5.920   4.012   0.354 -0.4613 -1.6362  0.8413
 8963TIP3    H248381   5.932   3.982   0.501  0.9501  0.8283  1.2831
 8964TIP3   OH248382   5.692   1.617  16.731  0.1416 -0.4509 -0.6292
 8964TIP3    H148383   5.776   1.598  16.689  0.2613 -1.0962 -0.1160
 8964TIP3    H248384   5.634   1.641  16.659  0.4125 -1.2787 -1.1453
 8965TIP3   OH248385   2.367   5.498   3.814 -0.0026 -0.2068 -0.0347
 8965TIP3    H148386   2.421   5.562   3.860 -1.5057  0.4562  0.9059
 8965TIP3    H248387   2.423   5.463   3.745  0.9371  1.9985 -0.4677
 8966TIP3   OH248388   3.975   6.240   5.433  0.5947  0.3913 -0.2781
 8966TIP3    H148389   3.944   6.211   5.347  2.3667 -0.2512 -0.7349
 8966TIP3    H248390   3.986   6.159   5.483 -1.2366  0.7995  0.9029
 8967TIP3   OH248391   2.637   5.175   2.853  0.3051 -0.5316 -0.3240
 8967TIP3    H148392   2.651   5.081   2.862  0.9148 -0.3722  0.5609
 8967TIP3    H248393   2.647   5.192   2.759 -1.1497 -1.5356 -0.6919
 8968TIP3   OH248394   0.748   6.669   4.949 -0.4163 -0.1573  0.0328
 8968TIP3    H148395   0.706   6.752   4.969 -0.6754 -0.3846  0.4352
 8968TIP3    H248396   0.736   6.659   4.854 -0.0534  0.4396 -0.0817
 8969TIP3   OH248397   6.306   4.986   4.336  0.3022  0.7377  0.2724
 8969TIP3    H148398   6.401   4.978   4.342  0.2916  0.7977  0.5419
 8969TIP3    H248399   6.279   5.020   4.422 -0.1298 -0.8606  0.8088
 8970TIP3   OH248400   1.761   1.621  15.326 -0.1322 -0.3894 -0.6725
 8970TIP3    H148401   1.798   1.694  15.374 -0.1828 -1.0528  0.4112
 8970TIP3    H248402   1.835   1.565  15.304 -0.0651  0.0724 -1.6884
 8971TIP3   OH248403   6.817   3.450  15.812  0.6603 -0.2900 -0.1224
 8971TIP3    H148404   6.797   3.422  15.902  0.3339 -3.0300 -0.9580
 8971TIP3    H248405   6.906   3.420  15.797  0.7509  0.2497 -0.6763
 8972TIP3   OH248406   5.638   4.230   3.857 -0.4286  0.3181 -0.1383
 8972TIP3    H148407   5.679   4.152   3.895 -1.8454 -1.1857 -1.5338
 8972TIP3    H248408   5.613   4.282   3.933 -1.8823 -1.9180  1.0502
 8973TIP3   OH248409   3.498   6.382   3.398  0.3399  0.5696 -0.7093
 8973TIP3    H148410   3.443   6.366   3.474  2.5745  0.8764  1.0882
 8973TIP3    H248411   3.552   6.303   3.391 -0.0140  0.4344 -2.1667
 8974TIP3   OH248412   5.599   2.718  10.936 -0.6721 -0.1923 -0.2026
 8974TIP3    H148413   5.623   2.637  10.982 -2.6799 -1.0052 -0.5113
 8974TIP3    H248414   5.602   2.785  11.004  1.4444 -0.3921 -0.0300
 8975TIP3   OH248415   4.276   2.815   0.986  0.1286 -0.1371  0.6459
 8975TIP3    H148416   4.212   2.759   1.029 -0.9716 -0.0601 -0.8093
 8975TIP3    H248417   4.226   2.859   0.917  1.4239  1.0817  0.4518
 8976TIP3   OH248418   6.621   4.465  17.017  0.2057 -0.1687 -0.1955
 8976TIP3    H148419   6.590   4.521  17.088 -1.0009 -1.3530  0.2594
 8976TIP3    H248420   6.696   4.418  17.055  0.3275  0.0955 -0.1093
 8977TIP3   OH248421   0.433   4.645   3.889  0.2871  0.3360 -0.1370
 8977TIP3    H148422   0.439   4.681   3.800 -0.1219  2.1038  0.5033
 8977TIP3    H248423   0.435   4.722   3.946  3.7714 -0.8382  1.6306
 8978TIP3   OH248424   3.365   1.378   2.474  0.8209  0.0535  0.4388
 8978TIP3    H148425   3.380   1.333   2.391  0.8684 -0.4469  0.7170
 8978TIP3    H248426   3.274   1.356   2.497  0.7534  0.3271  0.4386
 8979TIP3   OH248427   6.216   3.786   4.167 -0.1897  0.7628 -0.7566
 8979TIP3    H148428   6.192   3.705   4.213 -0.5911 -0.3863 -2.8850
 8979TIP3    H248429   6.244   3.845   4.237 -3.6489  0.2212  1.3530
 8980TIP3   OH248430   0.849   1.209  13.323  0.1207 -0.3757 -0.0143
 8980TIP3    H148431   0.936   1.233  13.291  0.1354  0.6610  0.7704
 8980TIP3    H248432   0.798   1.191  13.244  0.2083  1.8927 -0.6516
 8981TIP3   OH248433   0.657   4.662   2.530  0.3060  0.0670 -0.5383
 8981TIP3    H148434   0.615   4.746   2.510  1.4255  1.1279  1.2774
 8981TIP3    H248435   0.689   4.631   2.446  1.0816  2.1593 -1.0803
 8982TIP3   OH248436   2.501   4.415   0.801  0.1931 -0.6543 -0.2037
 8982TIP3    H148437   2.594   4.437   0.801 -0.1756  2.4349 -5.0281
 8982TIP3    H248438   2.467   4.451   0.882  2.7832  0.3215  0.5461
 8983TIP3   OH248439   1.416   0.575  13.867 -0.4366  0.2022 -0.2366
 8983TIP3    H148440   1.349   0.507  13.857 -0.8923  0.7988 -1.5797
 8983TIP3    H248441   1.446   0.591  13.778  1.6043 -0.1142  0.3416
 8984TIP3   OH248442   0.831   0.332   3.826 -0.5564  0.0243 -0.4636
 8984TIP3    H148443   0.862   0.278   3.754  0.5198 -1.6429  1.1590
 8984TIP3    H248444   0.910   0.358   3.872 -1.2826 -0.4416  1.1246
 8985TIP3   OH248445   0.763   6.550  13.599 -0.2715 -0.2809  0.5694
 8985TIP3    H148446   0.829   6.619  13.606 -0.1621 -0.1735 -1.1381
 8985TIP3    H248447   0.765   6.524  13.507 -2.0063 -0.8800  0.6641
 8986TIP3   OH248448   2.932   3.679   6.394  0.0128  0.8140  0.0033
 8986TIP3    H148449   2.987   3.693   6.471  0.9702  0.1337 -0.5263
 8986TIP3    H248450   2.935   3.762   6.347  1.4242  0.5079 -0.5120
 8987TIP3   OH248451   0.834   3.179   5.645 -0.7803  0.0325  0.2200
 8987TIP3    H148452   0.841   3.100   5.698 -1.2175 -0.0067  0.2244
 8987TIP3    H248453   0.887   3.161   5.567  1.0528  0.6362  1.2731
 8988TIP3   OH248454   1.516   4.004  13.815  0.9702 -0.0852  0.1230
 8988TIP3    H148455   1.431   3.971  13.786  0.4302  1.2891  0.0557
 8988TIP3    H248456   1.572   3.996  13.737  1.8827 -3.8443  0.9448
 8989TIP3   OH248457   3.220   0.309   2.028 -0.2726 -0.3596  0.0648
 8989TIP3    H148458   3.133   0.318   2.068 -0.1248 -1.5720  0.7001
 8989TIP3    H248459   3.271   0.258   2.092  1.3445  1.4709  0.3382
 8990TIP3   OH248460   6.183   0.274   0.148  0.2559  0.0426 -0.5131
 8990TIP3    H148461   6.156   0.197   0.098  0.0430  0.5686 -1.2401
 8990TIP3    H248462   6.197   0.342   0.081 -0.2608  0.8332  0.1621
 8991TIP3   OH248463   2.681   0.782   5.344 -0.4104  0.4027 -0.3289
 8991TIP3    H148464   2.740   0.835   5.398 -1.5939  0.5985  0.8435
 8991TIP3    H248465   2.623   0.846   5.303  0.3820  0.2424 -1.7732
 8992TIP3   OH248466   5.230   0.346  11.442  0.3488 -0.3996  0.8711
 8992TIP3    H148467   5.261   0.260  11.413 -1.1090 -0.6655  0.0407
 8992TIP3    H248468   5.221   0.337  11.537 -1.2364 -1.6740  0.6354
 8993TIP3   OH248469   4.960   6.551  13.109  0.8995  0.1357 -0.0437
 8993TIP3    H148470   4.872   6.586  13.091  1.0692  0.7855  0.3602
 8993TIP3    H248471   4.971   6.480  13.046  0.2215  0.2828 -0.3344
 8994TIP3   OH248472   1.376   2.785   0.180  0.0384  0.1057  0.1769
 8994TIP3    H148473   1.468   2.756   0.177 -0.2836 -1.0554  0.9857
 8994TIP3    H248474   1.329   2.719   0.130 -0.3292  0.8595 -0.4803
 8995TIP3   OH248475   5.327   3.870   0.576 -0.3784 -0.0725 -0.9302
 8995TIP3    H148476   5.412   3.913   0.565  0.8203 -2.4619 -1.9214
 8995TIP3    H248477   5.264   3.941   0.580  1.7138  1.8571  0.5959
 8996TIP3   OH248478   5.985   3.192   2.571 -0.0559  0.1362 -0.1243
 8996TIP3    H148479   6.028   3.166   2.652  0.4947 -0.3924 -0.5746
 8996TIP3    H248480   5.902   3.145   2.571  0.3875 -0.6659 -0.3371
 8997TIP3   OH248481   5.790   5.093   0.003 -0.0892 -0.1099 -0.3855
 8997TIP3    H148482   5.699   5.072   0.025  0.4958 -2.3302  0.1463
 8997TIP3    H248483   5.817   5.155   0.071 -1.2194  0.7226 -0.6533
 8998TIP3   OH248484   0.794   0.173  12.049  0.0485 -0.2442 -0.2779
 8998TIP3    H148485   0.824   0.264  12.043 -2.4971  0.6415 -0.5585
 8998TIP3    H248486   0.792   0.156  12.143  1.6161 -0.4403 -0.2525
 8999TIP3   OH248487   5.865   5.663  11.265 -0.0334  0.1209  0.0408
 8999TIP3    H148488   5.851   5.720  11.190 -0.5399 -1.1175 -0.8348
 8999TIP3    H248489   5.938   5.606  11.239 -0.2051 -0.3158  0.4900
 9000TIP3   OH248490   0.381   4.783   3.168 -0.4295  0.0182 -0.4420
 9000TIP3    H148491   0.289   4.778   3.142 -0.2386  1.2861 -1.4652
 9000TIP3    H248492   0.406   4.873   3.149  1.3414 -0.6093 -1.3016
 9001TIP3   OH248493   1.720   0.311  15.847 -0.7162  0.3749  0.4556
 9001TIP3    H148494   1.727   0.401  15.880 -1.7687  0.3099  0.9064
 9001TIP3    H248495   1.630   0.304  15.814  0.3480  0.5099 -2.7641
 9002TIP3   OH248496   2.428   2.995  11.614 -0.2156  0.6651 -0.2731
 9002TIP3    H148497   2.477   3.066  11.655  0.2441  0.5023 -0.5360
 9002TIP3    H248498   2.340   3.031  11.602 -0.6773  0.3580  1.8317
 9003TIP3   OH248499   4.106   5.066  15.581 -0.0467  0.0343  0.2062
 9003TIP3    H148500   4.130   5.130  15.647  1.6076 -0.0466 -0.2724
 9003TIP3    H248501   4.085   4.987  15.630 -1.7805  0.8184  0.7800
 9004TIP3   OH248502   4.001   2.566  12.352  0.3275  0.1216 -0.0407
 9004TIP3    H148503   4.071   2.626  12.376 -0.0185  0.6932 -0.4236
 9004TIP3    H248504   3.946   2.561  12.430  0.2374  0.4792 -0.0791
 9005TIP3   OH248505   2.980   4.460  12.294 -0.9809 -0.2169  0.2981
 9005TIP3    H148506   2.979   4.551  12.321 -2.4670  0.3262 -1.3913
 9005TIP3    H248507   3.036   4.416  12.358 -1.2807  1.6218  1.8961
 9006TIP3   OH248508   1.653   0.915  11.533  0.1966 -0.3589  0.0384
 9006TIP3    H148509   1.720   0.872  11.481  0.5249  0.1749  0.0152
 9006TIP3    H248510   1.599   0.843  11.567 -0.1457 -0.7190 -1.1900
 9007TIP3   OH248511   3.691   1.082   0.049 -0.3836 -0.3274 -0.1495
 9007TIP3    H148512   3.767   1.137   0.030  0.0392 -1.2823 -1.3854
 9007TIP3    H248513   3.706   1.049   0.137  0.7089 -0.5906 -0.4217
 9008TIP3   OH248514   6.631   2.956  16.655 -0.0425 -0.0985 -0.0004
 9008TIP3    H148515   6.643   2.908  16.737 -0.8919 -1.3461 -0.5660
 9008TIP3    H248516   6.658   2.894  16.586 -0.7314  0.3886 -0.7332
 9009TIP3   OH248517   2.092   3.075  12.612 -0.1374 -0.4107  0.2451
 9009TIP3    H148518   2.096   2.991  12.658 -2.6933 -0.6997  0.0806
 9009TIP3    H248519   2.093   3.141  12.681  3.2266 -0.3922  0.3404
 9010TIP3   OH248520   5.976   6.610   1.962  0.3025  0.6080  0.1321
 9010TIP3    H148521   5.964   6.526   1.918 -0.9476  1.1937 -0.7002
 9010TIP3    H248522   6.045   6.653   1.913 -0.2679  0.7718 -0.5407
 9011TIP3   OH248523   2.319   0.907  11.103 -0.2758  0.0449  0.6346
 9011TIP3    H148524   2.388   0.886  11.040 -1.1835 -0.6741 -0.1403
 9011TIP3    H248525   2.360   0.893  11.189  0.8270  0.5769  0.2139
 9012TIP3   OH248526   3.212   0.956  16.363 -0.3626 -0.5742 -0.0627
 9012TIP3    H148527   3.257   1.030  16.323 -3.0274  1.6758  0.7490
 9012TIP3    H248528   3.201   0.892  16.292  0.9154  0.3379 -1.1130
 9013TIP3   OH248529   0.382   2.326   2.232  0.6913  0.2839 -0.2233
 9013TIP3    H148530   0.422   2.367   2.309 -0.6074 -0.7444  1.0689
 9013TIP3    H248531   0.288   2.335   2.247  0.4065 -0.6326 -1.3128
 9014TIP3   OH248532   1.709   3.776   3.526 -0.0013  0.2307 -0.3194
 9014TIP3    H148533   1.767   3.708   3.562 -0.3682  0.6418  1.1132
 9014TIP3    H248534   1.674   3.820   3.603  0.4620  2.2744 -1.2103
 9015TIP3   OH248535   4.421   2.278   1.599 -0.7489  0.0583  0.4123
 9015TIP3    H148536   4.441   2.245   1.687  0.5565 -0.8695 -0.2191
 9015TIP3    H248537   4.405   2.200   1.547 -0.1061  0.5275 -0.5065
 9016TIP3   OH248538   1.117   6.354  13.702  0.9161 -0.4358  0.2588
 9016TIP3    H148539   1.121   6.334  13.609  0.5311 -0.4127  0.2355
 9016TIP3    H248540   1.168   6.434  13.712  0.7753 -0.3166  0.0286
 9017TIP3   OH248541   6.078   3.525   1.710 -0.8300 -0.4968  0.0588
 9017TIP3    H148542   6.114   3.439   1.688 -1.0005 -0.0131 -2.4951
 9017TIP3    H248543   6.081   3.530   1.805  1.3081 -2.4110  0.1573
 9018TIP3   OH248544   4.225   1.806   4.527  0.3555  0.2420 -0.7385
 9018TIP3    H148545   4.166   1.821   4.601  1.8094 -0.9716  0.7722
 9018TIP3    H248546   4.177   1.748   4.468 -0.6265  0.7781 -0.4800
 9019TIP3   OH248547   6.017   4.915   0.641  0.7005 -0.2139  0.1004
 9019TIP3    H148548   6.042   4.845   0.700  1.6268 -0.2947 -0.3780
 9019TIP3    H248549   6.085   4.982   0.651 -0.4204  0.8605  0.9204
 9020TIP3   OH248550   4.362   1.582  12.868 -0.2400  0.8132  0.3042
 9020TIP3    H148551   4.355   1.607  12.775  1.7666 -1.0837 -0.4276
 9020TIP3    H248552   4.403   1.658  12.910 -0.0017  1.1998 -0.5983
 9021TIP3   OH248553   6.802   3.497  17.092 -0.3787 -0.6473  0.2567
 9021TIP3    H148554   6.708   3.481  17.088 -0.6153  0.4602  1.0673
 9021TIP3    H248555   6.811   3.589  17.117  0.9263 -0.6018 -0.2632
 9022TIP3   OH248556   1.809   3.725   3.230  0.1897  0.3875 -0.3222
 9022TIP3    H148557   1.873   3.700   3.163  1.4456 -0.5221  1.1277
 9022TIP3    H248558   1.862   3.751   3.306 -1.1510 -0.1468  0.8587
 9023TIP3   OH248559   6.087   5.932   0.910  0.5672  0.0613 -0.5372
 9023TIP3    H148560   6.005   5.938   0.862  0.0493  0.2786  0.3658
 9023TIP3    H248561   6.063   5.900   0.997  1.5191 -0.5502 -0.4808
 9024TIP3   OH248562   3.112   4.873   4.684 -0.1630 -0.3623 -0.5254
 9024TIP3    H148563   3.118   4.866   4.779  1.2700 -1.9157 -0.6871
 9024TIP3    H248564   3.071   4.958   4.669  1.3132  0.7948  1.4464
 9025TIP3   OH248565   4.827   3.789  14.998 -0.6261 -0.6444 -0.3737
 9025TIP3    H148566   4.759   3.795  15.066 -1.9080 -1.0043 -1.5615
 9025TIP3    H248567   4.814   3.868  14.945 -0.6327 -1.1000 -1.0615
 9026TIP3   OH248568   3.949   6.526   4.926 -0.4544  0.2448  0.1665
 9026TIP3    H148569   3.969   6.506   4.834 -1.5208  0.3298 -0.1029
 9026TIP3    H248570   3.853   6.528   4.929 -0.4221  1.5463  1.0022
 9027TIP3   OH248571   2.640   4.045   3.274 -0.0954  0.2326  0.3155
 9027TIP3    H148572   2.580   4.043   3.200  1.0893  1.2281 -0.7109
 9027TIP3    H248573   2.583   4.062   3.350 -1.4817 -2.0437 -0.1325
 9028TIP3   OH248574   6.301   6.696  15.798  0.1159  0.3998  0.3010
 9028TIP3    H148575   6.368   6.645  15.844 -0.5885 -0.0892  0.8034
 9028TIP3    H248576   6.320   6.682  15.705  1.0408  0.7222  0.4314
 9029TIP3   OH248577   3.665   4.564   5.608  0.6426  0.1471  0.0460
 9029TIP3    H148578   3.681   4.632   5.542  0.0907 -0.3960 -0.6548
 9029TIP3    H248579   3.647   4.485   5.558 -0.6052 -0.1018  0.8317
 9030TIP3   OH248580   5.694   4.473   1.480  0.1664  0.3687  0.1059
 9030TIP3    H148581   5.621   4.411   1.472 -1.8048  2.7504 -2.1533
 9030TIP3    H248582   5.711   4.478   1.574 -1.2073 -1.7700  0.5411
 9031TIP3   OH248583   0.225   4.918  13.322  0.0464 -0.2035  0.0730
 9031TIP3    H148584   0.202   4.972  13.246  0.8257 -0.5336 -0.4051
 9031TIP3    H248585   0.307   4.875  13.298  0.6276  0.1392  1.3282
 9032TIP3   OH248586   2.607   4.086  13.684 -0.4620  0.4746 -0.4493
 9032TIP3    H148587   2.632   4.174  13.654  0.5939  0.6253  0.7848
 9032TIP3    H248588   2.521   4.099  13.724  0.2845  1.2795  0.9954
 9033TIP3   OH248589   6.256   4.635  10.741 -0.5267  0.5011 -0.0455
 9033TIP3    H148590   6.320   4.623  10.811 -1.5119 -0.9081  0.6471
 9033TIP3    H248591   6.258   4.554  10.691 -1.1232  0.7892 -0.5646
 9034TIP3   OH248592   2.704   4.400   1.101  0.6439  0.2308  0.3351
 9034TIP3    H148593   2.755   4.441   1.171  0.8279  0.2313  0.2005
 9034TIP3    H248594   2.753   4.419   1.021  0.6800 -0.1719  0.2609
 9035TIP3   OH248595   3.218   5.525  14.483  0.0405 -0.1424  0.6069
 9035TIP3    H148596   3.253   5.577  14.555 -0.4255 -1.2875  1.6914
 9035TIP3    H248597   3.205   5.438  14.520 -0.6798 -0.6337 -0.7303
 9036TIP3   OH248598   2.455   2.858  11.879  0.4261 -0.2197 -0.4453
 9036TIP3    H148599   2.478   2.885  11.789  0.9230  0.0501 -0.2444
 9036TIP3    H248600   2.399   2.782  11.867  1.0848 -0.6429 -0.9830
 9037TIP3   OH248601   5.808   0.254   5.734  0.4388  0.3478  0.1178
 9037TIP3    H148602   5.759   0.248   5.817 -2.7045  1.7636 -1.4680
 9037TIP3    H248603   5.839   0.344   5.732  0.2788  0.3927 -0.3499
 9038TIP3   OH248604   0.562   0.665  14.333 -0.1506 -0.4671  0.6364
 9038TIP3    H148605   0.602   0.629  14.413  1.6419  0.4249  0.2090
 9038TIP3    H248606   0.605   0.750  14.322 -0.1127 -0.7034 -1.4416
 9039TIP3   OH248607   6.389   0.197   4.269  0.5986  0.7034  0.2145
 9039TIP3    H148608   6.480   0.218   4.247  0.9589  0.5175  1.4790
 9039TIP3    H248609   6.338   0.271   4.237  1.1087  0.5322 -1.0576
 9040TIP3   OH248610   4.571   4.418   2.062 -0.9952  0.0695 -0.1618
 9040TIP3    H148611   4.665   4.437   2.067 -0.8213 -0.6079 -0.6582
 9040TIP3    H248612   4.557   4.392   1.971 -2.2121  2.8622 -0.8954
 9041TIP3   OH248613   6.052   5.464  16.627 -0.4343 -0.0621 -0.0152
 9041TIP3    H148614   6.032   5.376  16.660 -3.9778  1.1344  1.4771
 9041TIP3    H248615   6.021   5.463  16.536 -0.1172 -0.4182 -0.1252
 9042TIP3   OH248616   1.349   3.652   0.835  0.5315  0.2951 -0.3569
 9042TIP3    H148617   1.419   3.594   0.804  0.7116  0.5223 -0.3789
 9042TIP3    H248618   1.380   3.682   0.921  0.0974 -0.2285 -0.0048
 9043TIP3   OH248619   0.521   1.151  11.083 -0.6431 -0.3710 -0.0080
 9043TIP3    H148620   0.464   1.121  11.154 -1.6018 -0.4192 -0.7702
 9043TIP3    H248621   0.470   1.136  11.004  1.5343 -3.1894 -1.0451
 9044TIP3   OH248622   5.786   3.123   5.539  0.1204 -0.0225 -0.5012
 9044TIP3    H148623   5.843   3.184   5.586 -0.8558  0.7232 -0.2494
 9044TIP3    H248624   5.751   3.065   5.608  0.6233 -0.5257 -0.6646
 9045TIP3   OH248625   6.416   5.027  14.089 -0.2781  0.4207 -0.0370
 9045TIP3    H148626   6.483   5.055  14.027 -0.5630  1.5736  0.1404
 9045TIP3    H248627   6.459   5.032  14.174  0.0658 -1.0064 -0.1181
 9046TIP3   OH248628   0.497   5.327   3.854 -0.1155 -0.3188  0.1104
 9046TIP3    H148629   0.465   5.381   3.926 -0.8262 -1.4223  0.6548
 9046TIP3    H248630   0.469   5.373   3.775 -1.8802 -0.5176  0.5591
 9047TIP3   OH248631   0.578   1.874  16.781  0.3675 -0.1106  0.1576
 9047TIP3    H148632   0.576   1.969  16.764 -2.1419  0.2411  1.8554
 9047TIP3    H248633   0.523   1.836  16.713 -0.4875 -0.0573  0.8113
 9048TIP3   OH248634   6.709   5.204  11.604  0.2104  0.0367 -0.5038
 9048TIP3    H148635   6.677   5.273  11.663 -1.3584  0.1459 -1.4202
 9048TIP3    H248636   6.684   5.122  11.647  1.1940  0.0529  0.1110
 9049TIP3   OH248637   5.248   4.855   2.577 -0.2653  0.0654 -0.0324
 9049TIP3    H148638   5.280   4.802   2.504  0.2923  0.0160  0.2394
 9049TIP3    H248639   5.154   4.861   2.564 -0.2225 -0.3122 -0.5133
 9050TIP3   OH248640   5.756   5.271  16.305  0.1119 -0.4355 -0.4526
 9050TIP3    H148641   5.771   5.218  16.226 -0.0297  0.9406 -1.4286
 9050TIP3    H248642   5.666   5.300  16.297  0.6897  1.3836 -0.8555
 9051TIP3   OH248643   2.344   0.153  15.545 -0.0277  0.0512 -0.1008
 9051TIP3    H148644   2.346   0.066  15.584 -2.0135  0.4035  0.9188
 9051TIP3    H248645   2.251   0.175  15.539  0.4190  2.8593  1.4301
 9052TIP3   OH248646   1.678   5.792  11.333 -0.0910  0.3754  0.8412
 9052TIP3    H148647   1.641   5.705  11.347  0.7193 -0.1129  0.0414
 9052TIP3    H248648   1.735   5.782  11.257 -0.5541  1.7734  0.2769
 9053TIP3   OH248649   6.035   3.696  15.095  0.9723 -0.3882 -0.2140
 9053TIP3    H148650   6.073   3.658  15.174 -1.7934 -2.9042  0.0953
 9053TIP3    H248651   5.986   3.771  15.126  1.2901 -0.3401  0.1861
 9054TIP3   OH248652   3.195   6.292  12.042 -0.0393  0.8945  0.4533
 9054TIP3    H148653   3.262   6.359  12.035  0.5302  0.2221 -0.7852
 9054TIP3    H248654   3.113   6.341  12.049  0.1013  1.8106 -2.8077
 9055TIP3   OH248655   4.994   5.367   2.503 -0.2435  0.3144  0.2929
 9055TIP3    H148656   5.048   5.328   2.572 -1.3007 -2.2948 -0.2545
 9055TIP3    H248657   4.904   5.345   2.528 -0.6804 -0.2023 -1.5928
 9056TIP3   OH248658   0.676   0.820   5.498  0.1392 -0.4932  0.1547
 9056TIP3    H148659   0.618   0.774   5.558 -1.0673 -0.0721 -0.6582
 9056TIP3    H248660   0.643   0.910   5.498 -0.1928 -0.5938 -1.4879
 9057TIP3   OH248661   2.711   0.259   2.398 -0.2192 -0.9712 -0.1603
 9057TIP3    H148662   2.659   0.259   2.479  0.2129 -0.6094  0.1251
 9057TIP3    H248663   2.732   0.351   2.383  0.4202 -1.1187 -0.2079
 9058TIP3   OH248664   4.295   4.617   3.283  0.6713  0.6706 -0.8458
 9058TIP3    H148665   4.367   4.648   3.337 -0.8837  2.1592  0.4737
 9058TIP3    H248666   4.333   4.546   3.231  2.1305 -1.3775  2.6797
 9059TIP3   OH248667   3.642   2.518   0.497  0.4915 -0.5776  0.7039
 9059TIP3    H148668   3.575   2.454   0.474 -2.7003  2.3595  1.0289
 9059TIP3    H248669   3.630   2.533   0.590  1.1859  0.4674  0.6393
 9060TIP3   OH248670   4.424   5.320   3.451  0.0839 -0.2938  0.2883
 9060TIP3    H148671   4.379   5.308   3.367  0.1814  0.7915  0.0658
 9060TIP3    H248672   4.354   5.334   3.514  0.0679  1.2378 -0.0310
 9061TIP3   OH248673   4.370   2.081   1.097 -0.4176  0.2890 -0.1289
 9061TIP3    H148674   4.300   2.139   1.127 -0.5034 -0.0037  0.2539
 9061TIP3    H248675   4.339   1.993   1.118  0.1660  0.1700  0.2735
 9062TIP3   OH248676   2.571   3.397   2.324 -0.6734  0.2683 -0.5750
 9062TIP3    H148677   2.510   3.407   2.397 -2.2992  1.6600 -2.0325
 9062TIP3    H248678   2.553   3.310   2.289 -0.3686 -0.1286  0.2400
 9063TIP3   OH248679   1.977   1.174   3.231 -0.1480  0.0850 -0.7472
 9063TIP3    H148680   1.887   1.141   3.226  0.2188 -0.8890 -1.1152
 9063TIP3    H248681   1.998   1.173   3.325 -0.6316  0.6586 -0.6239
 9064TIP3   OH248682   1.828   5.618  14.265 -0.1862  0.2293 -0.4347
 9064TIP3    H148683   1.903   5.601  14.209 -0.7595 -3.0215 -0.4080
 9064TIP3    H248684   1.771   5.673  14.212  0.4882 -0.5186 -2.0136
 9065TIP3   OH248685   4.828   3.994   0.572  0.2461 -0.4346 -0.6137
 9065TIP3    H148686   4.851   4.049   0.497 -0.2903  1.2474  0.3916
 9065TIP3    H248687   4.738   3.967   0.556  0.5483 -1.1294 -1.1673
 9066TIP3   OH248688   2.555   3.732  16.333  0.0390 -0.7655  0.2881
 9066TIP3    H148689   2.513   3.746  16.248  2.1089  1.4094 -0.4970
 9066TIP3    H248690   2.615   3.659  16.319 -0.5921 -1.2877  0.2838
 9067TIP3   OH248691   5.266   6.827   2.810 -0.0464  0.7894 -0.0715
 9067TIP3    H148692   5.276   6.832   2.906  0.9173 -2.1757  0.0954
 9067TIP3    H248693   5.306   6.908   2.778  0.0194  1.6548  2.0053
 9068TIP3   OH248694   4.416   2.905  16.009  0.1289 -0.2817 -0.3550
 9068TIP3    H148695   4.481   2.975  16.003  1.2601 -1.2209  0.4701
 9068TIP3    H248696   4.450   2.847  16.078 -1.4527 -0.9407 -0.0999
 9069TIP3   OH248697   2.500   4.696  14.047  0.0472  0.1694  0.2322
 9069TIP3    H148698   2.527   4.604  14.047  0.1465  0.1990  0.1850
 9069TIP3    H248699   2.546   4.734  14.122 -0.7668 -0.0519  0.8631
 9070TIP3   OH248700   4.400   6.337  10.608 -0.0836  0.6440 -0.0528
 9070TIP3    H148701   4.313   6.297  10.611 -0.7290  1.5257 -3.3412
 9070TIP3    H248702   4.388   6.425  10.642 -0.0050  0.1509  1.3120
 9071TIP3   OH248703   4.054   3.717  16.331  0.4414  0.1785  0.8003
 9071TIP3    H148704   4.057   3.697  16.237  0.0265  2.2292  0.3114
 9071TIP3    H248705   3.968   3.755  16.345  1.0440  1.2794  1.7020
 9072TIP3   OH248706   5.525   3.145  15.613 -0.2351 -0.1438 -0.4241
 9072TIP3    H148707   5.587   3.184  15.552  1.0428 -0.8650  0.3597
 9072TIP3    H248708   5.564   3.158  15.699 -2.1697  1.1747  0.3421
 9073TIP3   OH248709   6.211   5.944   3.269 -0.0787  0.0021  0.6367
 9073TIP3    H148710   6.128   5.980   3.238  0.3453  0.1213 -0.3933
 9073TIP3    H248711   6.194   5.917   3.359 -1.1522  0.2882  0.5231
 9074TIP3   OH248712   5.225   5.596   3.890  0.3488  0.6421  0.3352
 9074TIP3    H148713   5.303   5.549   3.862  0.2935  1.7198 -1.7557
 9074TIP3    H248714   5.155   5.564   3.834 -1.2717 -1.6908  3.3622
 9075TIP3   OH248715   2.644   3.415   5.052 -0.0601 -0.1754 -0.0753
 9075TIP3    H148716   2.663   3.331   5.093  0.4208  0.3626  0.8726
 9075TIP3    H248717   2.573   3.398   4.991  1.0622 -1.5643 -1.0420
 9076TIP3   OH248718   3.105   2.742   2.291 -0.0494 -0.4837  0.1158
 9076TIP3    H148719   3.175   2.807   2.282 -0.5087  0.5492  2.9898
 9076TIP3    H248720   3.150   2.658   2.290  0.6440 -0.1892 -2.8373
 9077TIP3   OH248721   0.302   0.007  15.130 -0.5927 -0.3610 -0.2120
 9077TIP3    H148722   0.355   0.068  15.180 -0.4168 -0.6523 -0.0383
 9077TIP3    H248723   0.358  -0.070  15.119 -1.5380 -1.3202  1.3577
 9078TIP3   OH248724   2.033   3.244  12.841 -0.0145 -0.1491 -0.1786
 9078TIP3    H148725   1.982   3.324  12.827  2.3536  1.3445 -0.8186
 9078TIP3    H248726   2.056   3.246  12.934  0.1606 -0.0269 -0.2256
 9079TIP3   OH248727   0.700   2.698   6.196 -0.5033 -0.1492  0.0215
 9079TIP3    H148728   0.623   2.667   6.148 -1.1543  0.2537  0.7891
 9079TIP3    H248729   0.679   2.787   6.221 -0.6684 -0.7272  2.0732
 9080TIP3   OH248730   2.783   5.293  13.553 -0.8537 -0.1618  0.0903
 9080TIP3    H148731   2.754   5.351  13.623  0.2868 -0.0028  0.4565
 9080TIP3    H248732   2.774   5.205  13.590  1.2329 -0.0187  1.0780
 9081TIP3   OH248733   2.965   0.288   3.294  0.5496  0.0557  0.1123
 9081TIP3    H148734   3.022   0.214   3.317 -0.1953 -0.0443  1.7470
 9081TIP3    H248735   2.906   0.253   3.227 -0.3183 -1.0841  1.4383
 9082TIP3   OH248736   6.198   4.696   6.294  0.0976  0.3737 -0.3788
 9082TIP3    H148737   6.134   4.725   6.360 -2.1081 -0.3527 -2.0701
 9082TIP3    H248738   6.164   4.730   6.211  3.1457  1.8601 -1.1843
 9083TIP3   OH248739   1.155   5.618   4.979 -0.2968 -0.3386 -0.1833
 9083TIP3    H148740   1.238   5.661   4.956  1.4056 -2.6843  1.1530
 9083TIP3    H248741   1.123   5.581   4.896 -1.1540  2.2149 -1.1086
 9084TIP3   OH248742   0.152   2.331   5.576 -0.2635  0.0324 -0.3977
 9084TIP3    H148743   0.228   2.288   5.536 -0.0434 -1.3350  1.3688
 9084TIP3    H248744   0.091   2.345   5.504  0.4456 -1.5861 -1.3586
 9085TIP3   OH248745   0.272   0.352  11.995  0.5900 -0.0916  0.1832
 9085TIP3    H148746   0.293   0.438  11.959  1.4188  0.2180  1.3500
 9085TIP3    H248747   0.348   0.297  11.972  0.0181 -0.5592 -0.6497
 9086TIP3   OH248748   6.337   2.923  12.069  0.6007 -0.3546 -0.1145
 9086TIP3    H148749   6.413   2.865  12.081 -0.2778 -1.6095 -0.4383
 9086TIP3    H248750   6.310   2.908  11.979  1.3799  1.8827 -0.7770
 9087TIP3   OH248751   4.992   4.057   5.543  0.4370  0.0472 -0.2475
 9087TIP3    H148752   4.907   4.083   5.578  0.8430 -0.4619  1.1580
 9087TIP3    H248753   4.993   3.962   5.552  1.5269  0.1315  0.6336
 9088TIP3   OH248754   6.812   5.619  11.939 -0.3093 -0.3796  0.4249
 9088TIP3    H148755   6.765   5.658  11.865  0.1192 -1.4472 -0.4490
 9088TIP3    H248756   6.804   5.683  12.009 -0.0806  1.0202 -0.7737
 9089TIP3   OH248757   3.394   0.174   3.477 -0.2111 -1.1367  0.0876
 9089TIP3    H148758   3.338   0.185   3.401  1.3127  1.4670 -0.8105
 9089TIP3    H248759   3.365   0.243   3.538  0.8888 -0.8443  0.3015
 9090TIP3   OH248760   1.929   6.097   1.072 -0.2035 -0.1302  0.2127
 9090TIP3    H148761   1.979   6.046   1.136  0.8512 -0.4466 -0.8401
 9090TIP3    H248762   1.855   6.131   1.122  1.1632  0.5501  1.8857
 9091TIP3   OH248763   1.733   2.325   4.662  0.2093  0.1987  0.0774
 9091TIP3    H148764   1.689   2.280   4.734 -0.1583 -1.9704 -1.4182
 9091TIP3    H248765   1.662   2.358   4.607  0.4898  0.8139  0.0704
 9092TIP3   OH248766   0.606   4.251   3.307 -0.2177  0.3298 -0.2110
 9092TIP3    H148767   0.692   4.276   3.342 -0.3396  0.8715 -0.2817
 9092TIP3    H248768   0.624   4.177   3.250  0.0403 -0.3154  0.6904
 9093TIP3   OH248769   3.514   3.786  13.409 -0.1738  0.2514  0.2945
 9093TIP3    H148770   3.551   3.825  13.330  0.8450  1.0954  1.1612
 9093TIP3    H248771   3.530   3.692  13.399  0.4579  0.4097 -0.2314
 9094TIP3   OH248772   4.806   1.178   3.083 -0.7800 -0.2901 -0.0221
 9094TIP3    H148773   4.812   1.095   3.129  1.1518 -0.0217  0.2956
 9094TIP3    H248774   4.817   1.244   3.152  0.2779  0.1541 -0.5939
 9095TIP3   OH248775   6.232   2.795  13.049  0.9036  0.2956 -0.1585
 9095TIP3    H148776   6.294   2.816  12.980  1.3313 -0.0031  0.1291
 9095TIP3    H248777   6.186   2.717  13.018  0.9158  0.3103 -0.2135
 9096TIP3   OH248778   0.764   1.713   1.913 -0.4062 -0.2836  0.7448
 9096TIP3    H148779   0.738   1.801   1.886 -0.2039  0.4110  2.6718
 9096TIP3    H248780   0.837   1.726   1.973 -0.3433 -1.7653  1.0353
 9097TIP3   OH248781   4.806   3.790  12.585  0.1189  0.7025 -0.3363
 9097TIP3    H148782   4.767   3.878  12.587  1.2840  1.2239  0.6048
 9097TIP3    H248783   4.841   3.782  12.496 -1.1762  0.6230 -0.8693
 9098TIP3   OH248784   0.102   0.036  11.886  0.4081 -0.0478 -0.0693
 9098TIP3    H148785   0.192   0.006  11.876  0.5526  0.5254 -0.5767
 9098TIP3    H248786   0.075   0.005  11.973  1.5882  1.0101  0.7147
 9099TIP3   OH248787   0.754   4.737   0.199 -0.8354  0.3047  0.5578
 9099TIP3    H148788   0.757   4.701   0.287  0.7920  0.6341  0.6685
 9099TIP3    H248789   0.660   4.747   0.180 -1.2313 -0.7241  1.8329
 9100TIP3   OH248790   5.094   0.832   0.061 -0.6590 -0.4543 -0.6392
 9100TIP3    H148791   5.115   0.767   0.128  2.7289  0.7746 -0.3106
 9100TIP3    H248792   5.179   0.863   0.030 -2.1164  1.4362 -3.1787
 9101TIP3   OH248793   6.515   5.509   5.857 -0.2838 -0.7026 -0.5540
 9101TIP3    H148794   6.517   5.440   5.790 -2.4773 -0.2847 -1.1470
 9101TIP3    H248795   6.423   5.533   5.863  0.3246  1.6703  0.1829
 9102TIP3   OH248796   5.649   5.760   0.472  0.0071  0.6841 -0.0058
 9102TIP3    H148797   5.607   5.772   0.387 -0.4549 -2.1610 -0.2758
 9102TIP3    H248798   5.709   5.686   0.459 -0.3268 -0.0538  2.1890
 9103TIP3   OH248799   2.711   4.190  11.432 -0.3144  0.8784 -0.2310
 9103TIP3    H148800   2.737   4.276  11.466  0.0456  0.9044 -0.5588
 9103TIP3    H248801   2.793   4.151  11.402 -0.3612  0.0905  0.6350
 9104TIP3   OH248802   6.752   5.203   3.946 -0.1465 -0.1145 -0.3550
 9104TIP3    H148803   6.722   5.286   3.908  1.1341  0.0433 -1.0960
 9104TIP3    H248804   6.672   5.153   3.962 -0.8299  0.3192 -2.1305
 9105TIP3   OH248805   3.713   5.831  15.108  0.0990  0.4822  0.1009
 9105TIP3    H148806   3.729   5.772  15.034  0.9351  0.5887  0.1804
 9105TIP3    H248807   3.622   5.815  15.132 -0.3466  0.7910 -1.2509
 9106TIP3   OH248808   0.370   6.289   2.082 -0.0179  0.4591  0.0943
 9106TIP3    H148809   0.452   6.302   2.130 -0.0490  0.8364  0.0517
 9106TIP3    H248810   0.366   6.195   2.067 -0.8212  0.0948  2.2605
 9107TIP3   OH248811   2.856   4.284   5.504 -0.1697 -0.1121  0.3460
 9107TIP3    H148812   2.887   4.193   5.502 -0.2490 -0.2676  2.6726
 9107TIP3    H248813   2.934   4.337   5.492  0.2315 -0.5051  1.1640
 9108TIP3   OH248814   5.906   5.560  10.898  0.0740  0.2283 -0.0526
 9108TIP3    H148815   5.972   5.498  10.928  0.0973  1.4412  2.7396
 9108TIP3    H248816   5.955   5.637  10.870 -0.0519  1.0474  1.8205
 9109TIP3   OH248817   5.210   1.548   5.581  0.3163  0.1812  1.3789
 9109TIP3    H148818   5.145   1.523   5.516  2.7030 -1.1039 -0.7094
 9109TIP3    H248819   5.264   1.469   5.593  0.5617  0.6655  4.2631
 9110TIP3   OH248820   0.684   1.968   2.623 -0.0514 -0.4020  0.5596
 9110TIP3    H148821   0.593   1.959   2.595  0.0509 -1.2765  0.4704
 9110TIP3    H248822   0.703   2.061   2.613 -0.8207 -0.2696  0.2323
 9111TIP3   OH248823   0.430   3.766  13.247 -0.1321 -0.0916  1.1762
 9111TIP3    H148824   0.441   3.771  13.342  2.8350  0.3320  0.9024
 9111TIP3    H248825   0.396   3.678  13.231 -0.3062 -0.3107  2.6113
 9112TIP3   OH248826   4.037   2.604  16.831  0.1207  0.5030  0.2408
 9112TIP3    H148827   4.094   2.536  16.795  2.1417  1.3143  1.7264
 9112TIP3    H248828   4.063   2.684  16.785 -1.1453  0.5700 -0.3832
 9113TIP3   OH248829   0.691   3.775  10.939 -0.0656  0.3492  0.1960
 9113TIP3    H148830   0.776   3.757  10.978 -0.4942 -0.2513  0.8854
 9113TIP3    H248831   0.695   3.867  10.913  0.7175  0.3807  0.4072
 9114TIP3   OH248832   1.946   1.123   0.966  0.1323  0.0747 -0.0891
 9114TIP3    H148833   2.033   1.107   1.004 -1.0937 -3.2682  1.7007
 9114TIP3    H248834   1.902   1.179   1.030 -0.1833 -1.1887  0.8177
 9115TIP3   OH248835   5.870   5.592   0.504 -0.2646 -1.0547 -0.3919
 9115TIP3    H148836   5.894   5.543   0.583 -0.8656 -3.0888 -1.4018
 9115TIP3    H248837   5.954   5.614   0.463  0.0245 -1.8731 -0.2625
 9116TIP3   OH248838   4.343   1.746   2.908  0.2914 -0.3676  0.0450
 9116TIP3    H148839   4.319   1.727   2.817 -1.0788  1.3239  0.0149
 9116TIP3    H248840   4.325   1.664   2.955  0.0818 -0.9479 -1.0164
 9117TIP3   OH248841   5.411   0.052  17.141 -0.5380  0.0357 -0.0934
 9117TIP3    H148842   5.490   0.000  17.124 -0.2398  0.7401 -0.9325
 9117TIP3    H248843   5.388   0.090  17.056 -1.0834  0.8145  0.3888
 9118TIP3   OH248844   2.960   5.007   3.650  0.0296  0.0522 -0.6404
 9118TIP3    H148845   2.984   4.934   3.706 -0.3825 -0.4536 -1.1130
 9118TIP3    H248846   2.870   5.029   3.677  0.0328  0.1713 -0.7252
 9119TIP3   OH248847   1.702   0.372  14.886 -0.1654 -0.3888  0.6582
 9119TIP3    H148848   1.789   0.387  14.925 -1.1103  0.7664  2.4490
 9119TIP3    H248849   1.678   0.284  14.915  0.5410 -0.8807 -0.1825
 9120TIP3   OH248850   3.494   2.361   2.047  0.2110  0.4484  0.2739
 9120TIP3    H148851   3.425   2.306   2.084 -0.7118 -0.2522 -2.2773
 9120TIP3    H248852   3.575   2.319   2.074 -0.3010  1.0696  3.0072
 9121TIP3   OH248853   3.286   4.203   1.719 -0.1170  0.3921  0.6932
 9121TIP3    H148854   3.211   4.261   1.706 -0.6998 -0.6009 -0.6503
 9121TIP3    H248855   3.291   4.152   1.638  1.5399 -0.1110  1.0675
 9122TIP3   OH248856   5.945   2.127   4.874 -0.3094 -0.1733 -0.2329
 9122TIP3    H148857   5.859   2.167   4.857 -0.9129 -0.8186  1.0912
 9122TIP3    H248858   5.925   2.036   4.895  0.4494  0.1003  2.0005
 9123TIP3   OH248859   2.469   3.366  16.103  0.1246 -0.5524 -0.2186
 9123TIP3    H148860   2.505   3.278  16.117  1.3241 -0.4687 -2.3412
 9123TIP3    H248861   2.519   3.422  16.162  0.6253 -1.0250 -0.1874
 9124TIP3   OH248862   1.671   6.357   3.985 -0.0794  0.3251  0.1119
 9124TIP3    H148863   1.642   6.341   3.895 -0.6211  1.6214  0.0268
 9124TIP3    H248864   1.713   6.443   3.981  2.1655 -0.6773  0.6256
 9125TIP3   OH248865   6.749   1.853   0.092 -0.0246  0.3544  0.0817
 9125TIP3    H148866   6.688   1.853   0.165 -1.3673 -0.7203 -0.9988
 9125TIP3    H248867   6.712   1.792   0.028  1.0058  1.3723 -1.5822
 9126TIP3   OH248868   1.667   5.567  10.665 -0.5022  0.1848  0.2285
 9126TIP3    H148869   1.584   5.526  10.643  0.9996 -2.6441 -0.7563
 9126TIP3    H248870   1.710   5.579  10.580  0.3231  1.0934  0.7543
 9127TIP3   OH248871   1.053   6.790  15.647  0.2096 -0.3536  1.1194
 9127TIP3    H148872   1.045   6.788  15.551 -0.5822 -2.6273  1.1563
 9127TIP3    H248873   0.985   6.851  15.676  1.0993  1.1125  0.2262
 9128TIP3   OH248874   5.818   6.459  13.742 -0.1736 -0.4952 -0.2682
 9128TIP3    H148875   5.880   6.529  13.722 -1.6032  0.1885 -2.5366
 9128TIP3    H248876   5.822   6.401  13.666 -0.7556 -1.6238  0.5349
 9129TIP3   OH248877   6.748   3.890   3.329  0.2754  0.2160 -0.3560
 9129TIP3    H148878   6.838   3.907   3.359 -0.0163  3.5285 -1.0448
 9129TIP3    H248879   6.693   3.924   3.399 -0.3992  1.5225 -1.4894
 9130TIP3   OH248880   4.646   6.194  15.974  0.6042 -0.0018  0.1884
 9130TIP3    H148881   4.671   6.208  15.882 -1.0724  0.0941 -0.3026
 9130TIP3    H248882   4.668   6.276  16.018 -1.5939  1.2805 -0.8963
 9131TIP3   OH248883   1.461   0.526  12.798 -0.3625  0.1950 -0.4833
 9131TIP3    H148884   1.438   0.591  12.732 -0.7287 -1.5342 -2.1513
 9131TIP3    H248885   1.526   0.470  12.755 -0.2387 -0.6899  0.7930
 9132TIP3   OH248886   5.338   5.639  14.824  0.4280  0.1217  0.0223
 9132TIP3    H148887   5.260   5.583  14.816  1.3771 -1.0648 -1.4822
 9132TIP3    H248888   5.341   5.662  14.917  0.4992 -3.1519  0.9649
 9133TIP3   OH248889   4.335   5.011   0.665  0.1631  0.1537  0.9442
 9133TIP3    H148890   4.395   4.972   0.728 -0.4566 -1.2329  0.7197
 9133TIP3    H248891   4.337   4.951   0.590 -0.1901  1.0140  0.2285
 9134TIP3   OH248892   5.988   4.250   5.131 -0.3153 -0.8489  0.3109
 9134TIP3    H148893   6.026   4.178   5.080  0.6636  0.0122 -0.2255
 9134TIP3    H248894   5.949   4.307   5.065  1.2283  0.4346  0.4306
 9135TIP3   OH248895   0.961   4.124   2.082  0.2394 -0.0136 -0.0131
 9135TIP3    H148896   0.934   4.130   1.990  0.0328 -0.6069  0.0028
 9135TIP3    H248897   0.881   4.105   2.130  0.7269 -2.7109 -0.0770
 9136TIP3   OH248898   6.215   2.480  13.741 -0.1265  0.0014  0.4885
 9136TIP3    H148899   6.157   2.430  13.800 -1.1093  0.5520  0.0106
 9136TIP3    H248900   6.296   2.492  13.792 -0.1237 -1.4603  0.8753
 9137TIP3   OH248901   0.176   2.194   6.047  0.2126  0.3643 -0.2021
 9137TIP3    H148902   0.175   2.242   5.965 -1.5789 -0.4817 -0.7409
 9137TIP3    H248903   0.114   2.240   6.103 -1.3885 -1.1030 -0.6616
 9138TIP3   OH248904   4.724   4.770  16.374  0.1772  0.1633 -0.3549
 9138TIP3    H148905   4.771   4.852  16.356 -0.3720  0.2614 -1.4008
 9138TIP3    H248906   4.662   4.792  16.443  1.1097  0.2286  0.4839
 9139TIP3   OH248907   2.914   0.862   3.310 -0.6233 -0.2544  1.0735
 9139TIP3    H148908   2.879   0.781   3.272 -1.6310  0.7578 -0.2005
 9139TIP3    H248909   2.864   0.874   3.390 -2.2687  0.4162 -0.0130
 9140TIP3   OH248910   4.776   5.044   5.355 -0.2479 -0.1244  0.0694
 9140TIP3    H148911   4.842   5.108   5.332 -0.3718  0.1913  0.5632
 9140TIP3    H248912   4.771   4.985   5.280  0.2636  0.1177 -0.1551
 9141TIP3   OH248913   4.059   5.202  16.275  0.0035  0.4413  0.2795
 9141TIP3    H148914   4.096   5.241  16.354 -2.7068  2.7914  0.5644
 9141TIP3    H248915   3.974   5.167  16.304 -1.2462  1.7360 -1.5834
 9142TIP3   OH248916   6.371   5.409   0.402  0.2156  0.3514  0.1619
 9142TIP3    H148917   6.316   5.405   0.324 -0.2145  1.5562  0.3690
 9142TIP3    H248918   6.421   5.328   0.402 -1.4738 -0.7340 -0.1055
 9143TIP3   OH248919   1.966   1.771   3.681  0.0614 -0.0246  0.7037
 9143TIP3    H148920   1.908   1.696   3.694 -1.3140  0.8103 -0.2516
 9143TIP3    H248921   1.969   1.782   3.586  1.8748 -0.0782  0.7261
 9144TIP3   OH248922   4.500   1.253  12.451  0.1215 -0.0176  0.1074
 9144TIP3    H148923   4.466   1.320  12.391 -0.1720  0.6663  1.0155
 9144TIP3    H248924   4.484   1.170  12.407  1.0478  0.5285 -1.3298
 9145TIP3   OH248925   4.028   0.750  14.030  0.4549 -0.4505 -0.4597
 9145TIP3    H148926   3.942   0.780  14.061  0.6848 -0.4234  0.1639
 9145TIP3    H248927   4.069   0.712  14.108  0.0577 -2.7084 -1.2779
 9146TIP3   OH248928   0.314   2.148  14.087  0.1111  0.7027  0.2489
 9146TIP3    H148929   0.232   2.099  14.088  1.4350 -1.8062 -1.8517
 9146TIP3    H248930   0.358   2.123  14.168  0.0918 -0.4350 -0.0760
 9147TIP3   OH248931   0.909   2.132  11.928 -0.6742  0.3877 -0.2615
 9147TIP3    H148932   0.954   2.216  11.927  0.9852 -0.3862  1.5335
 9147TIP3    H248933   0.865   2.130  12.013  1.7840 -1.6500  1.1360
 9148TIP3   OH248934   6.340   2.123  12.091  0.2624  0.3925 -0.0144
 9148TIP3    H148935   6.401   2.192  12.067  1.4163 -0.1341  1.2757
 9148TIP3    H248936   6.279   2.165  12.152  1.1774  0.2325  1.0498
 9149TIP3   OH248937   0.996   0.553   3.961  0.1525  0.4475 -0.1739
 9149TIP3    H148938   0.961   0.593   3.881  0.2263  1.2181  0.1642
 9149TIP3    H248939   0.939   0.586   4.031  1.2478  1.3463  0.3257
 9150TIP3   OH248940   6.219   0.057  11.671  0.3071 -0.1757 -0.5962
 9150TIP3    H148941   6.272   0.056  11.591  0.1486  0.7061 -0.7307
 9150TIP3    H248942   6.238   0.142  11.711  1.3743 -1.1128  1.0015
 9151TIP3   OH248943   5.828   0.904  16.673  0.8486 -0.0078 -0.0437
 9151TIP3    H148944   5.830   0.989  16.717  2.4082 -0.2912  0.4978
 9151TIP3    H248945   5.768   0.851  16.726  0.6219  0.4673  0.1785
 9152TIP3   OH248946   6.399   3.063  16.471  0.7042  0.3388 -0.0871
 9152TIP3    H148947   6.465   3.113  16.519 -0.0582  0.2056  1.1478
 9152TIP3    H248948   6.429   3.065  16.380  0.2793  3.8227 -0.3079
 9153TIP3   OH248949   0.994   4.381   4.149  0.2119  0.0112 -0.6585
 9153TIP3    H148950   1.087   4.362   4.135  0.1425 -1.4949  0.6458
 9153TIP3    H248951   0.972   4.334   4.229 -1.6246  0.5579 -0.8046
 9154TIP3   OH248952   4.828   1.527   6.061  0.1539  0.3132  0.1765
 9154TIP3    H148953   4.817   1.600   6.123 -1.8193  2.3000 -2.2868
 9154TIP3    H248954   4.905   1.551   6.010 -0.6762  0.9403 -0.8421
 9155TIP3   OH248955   6.516   3.564  15.823 -0.3931 -0.1897  0.2138
 9155TIP3    H148956   6.587   3.505  15.796  0.7410  0.9359  0.6278
 9155TIP3    H248957   6.474   3.519  15.896  0.5560 -0.4309  0.6236
 9156TIP3   OH248958   5.382   1.785   4.189  0.2558  0.0730 -0.2902
 9156TIP3    H148959   5.389   1.866   4.139  2.2621  0.1106 -0.0280
 9156TIP3    H248960   5.431   1.721   4.137 -0.6111 -0.7807 -0.0859
 9157TIP3   OH248961   4.879   5.966   5.662  0.5153 -0.3239  0.3582
 9157TIP3    H148962   4.966   5.928   5.677  1.7025  1.3366 -1.7414
 9157TIP3    H248963   4.862   5.951   5.569 -1.7947 -1.1462  0.8324
 9158TIP3   OH248964   6.235   2.644   0.456  0.1927 -0.5727 -0.0437
 9158TIP3    H148965   6.258   2.557   0.424  0.1600 -0.1946 -1.1408
 9158TIP3    H248966   6.221   2.632   0.550  0.3330 -1.7169 -0.1525
 9159TIP3   OH248967   5.183   5.902   6.415 -0.4687  0.3663  0.8510
 9159TIP3    H148968   5.147   5.991   6.416  1.0927  1.0382  0.2271
 9159TIP3    H248969   5.231   5.894   6.497  0.9594  0.8054  0.0890
 9160TIP3   OH248970   1.269   4.116   3.595  0.1670 -0.4019  0.5957
 9160TIP3    H148971   1.286   4.026   3.623  1.0878  0.0505  1.5611
 9160TIP3    H248972   1.354   4.160   3.603 -0.4417  0.7483  0.8981
 9161TIP3   OH248973   2.241   4.141   5.731  0.1677 -0.3803 -0.2607
 9161TIP3    H148974   2.239   4.122   5.825  0.9395 -3.2191 -0.7305
 9161TIP3    H248975   2.160   4.103   5.698 -0.3309  1.0187 -0.7524
 9162TIP3   OH248976   4.425   5.111  16.672  0.7140  0.2839  0.0309
 9162TIP3    H148977   4.483   5.035  16.658  1.7591  0.4392  2.9077
 9162TIP3    H248978   4.482   5.187  16.657  0.1142  0.5267 -1.1464
 9163TIP3   OH248979   2.430   4.739   1.516  0.5053  0.2050  0.3353
 9163TIP3    H148980   2.417   4.669   1.581  1.1020  0.3274  0.5933
 9163TIP3    H248981   2.492   4.799   1.558 -0.3577  1.1381  0.3055
 9164TIP3   OH248982   4.539   0.082   0.585 -0.0567  0.5216  0.6466
 9164TIP3    H148983   4.466   0.085   0.647 -0.5408 -1.1055  0.2003
 9164TIP3    H248984   4.497   0.078   0.499  0.5690  0.3308  0.3412
 9165TIP3   OH248985   5.505   5.353  10.585 -0.0596 -0.5278  0.3721
 9165TIP3    H148986   5.475   5.394  10.666  2.2652  1.6137  0.2957
 9165TIP3    H248987   5.600   5.351  10.593  0.4042  1.2056 -2.8512
 9166TIP3   OH248988   1.593   3.246   0.630 -0.5581  0.4781 -0.0045
 9166TIP3    H148989   1.685   3.248   0.605 -0.5276  0.8914  0.1304
 9166TIP3    H248990   1.545   3.251   0.547 -0.4566  0.4405 -0.0644
 9167TIP3   OH248991   4.454   3.583  14.635  0.0665  0.3055 -0.5004
 9167TIP3    H148992   4.480   3.648  14.570  1.6966  0.5017  0.3038
 9167TIP3    H248993   4.536   3.556  14.676 -0.7395 -1.1584  0.2195
 9168TIP3   OH248994   4.681   3.796   4.987 -0.5464  0.0256  0.1129
 9168TIP3    H148995   4.746   3.850   4.942  0.0030  0.9503  1.9251
 9168TIP3    H248996   4.598   3.842   4.973 -0.8317 -0.9666 -1.8953
 9169TIP3   OH248997   3.689   3.211  15.770  0.0452 -0.5742 -0.6254
 9169TIP3    H148998   3.636   3.132  15.772  0.3783 -0.7842  0.2527
 9169TIP3    H248999   3.766   3.190  15.822 -0.1938  0.5551  0.2323
 9170TIP3   OH249000   5.302   0.090  11.299  0.0658  0.0564  0.1602
 9170TIP3    H149001   5.282   0.167  11.246  0.1552 -0.0809 -0.0750
 9170TIP3    H249002   5.386   0.059  11.265  0.1620  0.0154  0.4371
 9171TIP3   OH249003   6.423   5.606   3.120 -0.3040 -0.2183  0.0906
 9171TIP3    H149004   6.410   5.541   3.050  1.0516  0.4900 -0.8757
 9171TIP3    H249005   6.469   5.558   3.189  0.8083 -0.2904 -0.6732
 9172TIP3   OH249006   4.802   4.233  11.961 -0.0668 -0.1905  0.0883
 9172TIP3    H149007   4.813   4.313  11.910  0.1199  0.8614  1.7037
 9172TIP3    H249008   4.719   4.196  11.930 -1.1910  1.7173  0.6934
 9173TIP3   OH249009   2.883   4.907  14.127 -0.2380  0.1192  0.6685
 9173TIP3    H149010   2.844   4.943  14.048  0.0689 -2.4299 -0.7360
 9173TIP3    H249011   2.826   4.833  14.150  2.9527 -3.0354 -0.8079
 9174TIP3   OH249012   6.427   0.432  12.713  0.2847 -0.2397  0.2175
 9174TIP3    H149013   6.332   0.423  12.725  0.5128 -2.1522  0.8341
 9174TIP3    H249014   6.455   0.349  12.676  1.7668  0.2512  0.1729
 9175TIP3   OH249015   4.313   4.935  11.660 -0.4283 -0.5686  0.2124
 9175TIP3    H149016   4.389   4.895  11.702 -0.6696 -0.8526  0.3844
 9175TIP3    H249017   4.342   4.952  11.570 -0.3300 -1.1704  0.1206
 9176TIP3   OH249018   5.609   6.606  15.063 -0.2286  0.6149  0.0033
 9176TIP3    H149019   5.624   6.517  15.093 -0.7223  1.0261  1.5532
 9176TIP3    H249020   5.691   6.631  15.019 -0.1780 -0.6648 -0.6771
 9177TIP3   OH249021   1.851   0.170  15.343  0.6849  0.8209 -0.0262
 9177TIP3    H149022   1.849   0.092  15.287  1.6767  2.0860 -1.9663
 9177TIP3    H249023   1.942   0.175  15.374  1.1234  2.1002 -1.3821
 9178TIP3   OH249024   5.667   5.763  13.043  0.0387 -0.1860  0.2845
 9178TIP3    H149025   5.716   5.787  13.122  2.1517 -1.2038 -0.6219
 9178TIP3    H249026   5.601   5.832  13.033  1.4044  1.3800  1.5103
 9179TIP3   OH249027   5.942   2.133   4.191 -0.3561  0.1041 -0.2036
 9179TIP3    H149028   6.011   2.082   4.150 -0.8753 -0.9540  0.1920
 9179TIP3    H249029   5.886   2.162   4.119 -0.1897 -0.0922 -0.4083
 9180TIP3   OH249030   2.037   5.433  12.412  0.2167  0.3191 -0.3934
 9180TIP3    H149031   2.048   5.384  12.329  0.3837 -1.3910  0.5811
 9180TIP3    H249032   1.957   5.484  12.400  0.5602  0.5697 -1.8194
 9181TIP3   OH249033   5.422   0.508   2.406 -0.5365  0.2134  0.4946
 9181TIP3    H149034   5.469   0.578   2.361 -1.8307 -0.3286 -1.8474
 9181TIP3    H249035   5.371   0.553   2.474 -1.2040  1.5763 -0.8442
 9182TIP3   OH249036   5.671   4.714  16.527 -0.2946 -0.0333  0.4048
 9182TIP3    H149037   5.604   4.778  16.504 -0.1245  0.3074  0.8306
 9182TIP3    H249038   5.750   4.743  16.481 -0.6550 -0.9424 -0.8175
 9183TIP3   OH249039   2.190   0.885   2.628  0.3847  0.8501 -0.3726
 9183TIP3    H149040   2.193   0.803   2.676  0.7150  1.5027  0.7666
 9183TIP3    H249041   2.169   0.860   2.538  0.1076 -0.4334  0.0322
 9184TIP3   OH249042   5.055   6.661  13.712 -0.1765  0.3076 -0.3024
 9184TIP3    H149043   5.045   6.574  13.751  0.2491  1.2162  2.0378
 9184TIP3    H249044   5.100   6.645  13.629  0.8078 -1.6382  0.5194
 9185TIP3   OH249045   6.276   1.361   3.169 -0.4193  0.1382 -0.7372
 9185TIP3    H149046   6.218   1.434   3.191 -1.8067 -0.6471 -1.6366
 9185TIP3    H249047   6.248   1.334   3.082  0.2800 -1.2696 -0.5485
 9186TIP3   OH249048   5.878   0.678   6.034 -0.2143 -0.2607 -0.5461
 9186TIP3    H149049   5.851   0.732   6.109  0.2271 -1.2789  0.3687
 9186TIP3    H249050   5.803   0.680   5.975 -1.3101 -0.9228  0.7546
 9187TIP3   OH249051   6.108   3.873  15.360 -0.3204  0.7810 -0.3101
 9187TIP3    H149052   6.132   3.910  15.445 -0.7945 -0.1677  0.2610
 9187TIP3    H249053   6.087   3.948  15.305  0.9873  1.4626  0.0929
 9188TIP3   OH249054   1.416   6.527  10.329  0.7140 -1.2301 -0.1790
 9188TIP3    H149055   1.451   6.585  10.262 -0.7057  0.3948  0.4068
 9188TIP3    H249056   1.449   6.563  10.412 -1.2902 -0.3623  0.2924
 9189TIP3   OH249057   4.710   2.178   5.012  0.0120  0.2377 -0.5115
 9189TIP3    H149058   4.763   2.250   4.979  1.3706 -0.8943 -0.8762
 9189TIP3    H249059   4.720   2.109   4.947  0.1956 -0.9174  0.7030
 9190TIP3   OH249060   5.846   3.353   1.322 -0.0062 -0.5215  0.3218
 9190TIP3    H149061   5.772   3.319   1.372 -0.3440  0.3629  0.4474
 9190TIP3    H249062   5.894   3.275   1.294  0.3214 -1.0591  2.2118
 9191TIP3   OH249063   4.637   1.145   1.142 -0.5346  0.4878  0.2944
 9191TIP3    H149064   4.611   1.228   1.103 -2.0338  0.8255  1.8849
 9191TIP3    H249065   4.663   1.167   1.232 -2.3921 -0.9087  1.2449
 9192TIP3   OH249066   0.214   0.163  14.867 -0.0293  0.3485  1.0076
 9192TIP3    H149067   0.226   0.202  14.780 -1.7986  0.6241  0.8513
 9192TIP3    H249068   0.177   0.234  14.920 -3.0020 -0.9309  0.8121
 9193TIP3   OH249069   6.654   3.301  12.827  0.8103  0.7465  0.2606
 9193TIP3    H149070   6.615   3.366  12.885 -0.4893  0.3809 -0.1649
 9193TIP3    H249071   6.742   3.335  12.807  0.1607  2.3587  0.0474
 9194TIP3   OH249072   6.764   6.049  13.419 -0.4935 -0.2096 -0.1297
 9194TIP3    H149073   6.746   6.060  13.326 -0.7066  1.7947  0.1163
 9194TIP3    H249074   6.689   6.088  13.464  0.8528  1.3460  0.8795
 9195TIP3   OH249075   4.520   3.052   2.913 -0.0680  0.1811 -0.0042
 9195TIP3    H149076   4.549   3.085   2.828 -0.8088  0.7234 -0.0550
 9195TIP3    H249077   4.590   3.076   2.974  0.9027 -1.0169 -0.6003
 9196TIP3   OH249078   4.900   5.952  14.597 -0.2629  0.3276  0.0591
 9196TIP3    H149079   4.895   5.869  14.550  1.1002  0.1656  0.1659
 9196TIP3    H249080   4.834   5.944  14.666 -0.2723 -0.5813 -0.0369
 9197TIP3   OH249081   5.208   2.981   0.378  0.0209 -0.4999  0.8635
 9197TIP3    H149082   5.263   2.954   0.452  1.5094 -2.8819 -0.9674
 9197TIP3    H249083   5.132   2.924   0.384 -0.7117  0.5017  1.4780
 9198TIP3   OH249084   0.459   2.078   1.315 -0.2561  0.0266 -0.2454
 9198TIP3    H149085   0.401   2.047   1.246 -0.5701 -1.2820  0.5583
 9198TIP3    H249086   0.484   2.167   1.289  1.7676 -1.2897 -3.4171
 9199TIP3   OH249087   6.237   1.270  12.487  0.1333 -0.4584  0.1821
 9199TIP3    H149088   6.166   1.309  12.538  0.9627  0.9807  0.2888
 9199TIP3    H249089   6.231   1.177  12.505 -1.7255 -0.3748  0.1917
 9200TIP3   OH249090   1.297   3.254   6.461 -0.1547 -0.3513  0.1266
 9200TIP3    H149091   1.283   3.320   6.393 -0.7440 -0.6588 -0.0635
 9200TIP3    H249092   1.313   3.305   6.540 -0.0635  0.0174 -0.1240
 9201TIP3   OH249093   2.705   0.997   5.004 -0.7260  0.3669  0.6855
 9201TIP3    H149094   2.627   0.977   5.056 -0.4136  1.1295  1.4693
 9201TIP3    H249095   2.697   0.941   4.927 -2.1482  0.5516  0.6676
 9202TIP3   OH249096   1.549   2.780  15.766  0.1451  0.6426  0.0874
 9202TIP3    H149097   1.546   2.811  15.857  1.2591 -1.1508  0.7884
 9202TIP3    H249098   1.640   2.791  15.740  0.3552 -1.0046  0.0210
 9203TIP3   OH249099   4.794   1.548  16.522  0.3446 -0.1948 -0.7038
 9203TIP3    H149100   4.883   1.558  16.556  0.1196  1.6856 -0.5831
 9203TIP3    H249101   4.799   1.470  16.467  1.6979 -0.9756  0.4442
 9204TIP3   OH249102   6.745   2.518   2.149 -0.1612 -0.2902  0.1791
 9204TIP3    H149103   6.770   2.588   2.209  0.0632 -0.8341  0.7312
 9204TIP3    H249104   6.678   2.557   2.093  0.8656  0.7543 -0.3684
 9205TIP3   OH249105   6.507   0.070  15.958  0.4019 -1.0900  0.1630
 9205TIP3    H149106   6.580   0.070  15.896  0.0540  2.3900 -0.4786
 9205TIP3    H249107   6.430   0.047  15.905  0.2770  0.7722 -0.5474
 9206TIP3   OH249108   6.327   6.387  17.173  0.5568 -0.4595  0.3076
 9206TIP3    H149109   6.253   6.375  17.232  0.3577 -0.5022  0.0487
 9206TIP3    H249110   6.289   6.386  17.085  0.9489 -1.1632  0.1383
 9207TIP3   OH249111   0.222   0.897   4.369  0.1668 -0.0915 -0.3926
 9207TIP3    H149112   0.181   0.918   4.285 -1.2332  1.5170  0.6274
 9207TIP3    H249113   0.241   0.983   4.408  1.5349 -0.8147  0.5913
 9208TIP3   OH249114   1.791   4.683   0.299  0.0630 -0.5092  0.0190
 9208TIP3    H149115   1.831   4.769   0.282  0.3551 -0.6488 -0.0019
 9208TIP3    H249116   1.854   4.637   0.353 -0.4392 -0.4303  0.6816
 9209TIP3   OH249117   6.420   6.662  12.861  0.1036 -0.1105 -0.1850
 9209TIP3    H149118   6.372   6.693  12.938  1.0051 -0.7619  0.6668
 9209TIP3    H249119   6.419   6.736  12.801 -0.4672  0.4695  0.5169
 9210TIP3   OH249120   2.720   4.876  12.911 -0.1853 -0.2309  0.0718
 9210TIP3    H149121   2.709   4.865  12.817 -1.4006 -0.3125  0.2058
 9210TIP3    H249122   2.648   4.933  12.937  0.2548 -0.0363  0.9286
 9211TIP3   OH249123   2.643   5.514   2.957  0.0768  0.4964 -0.2548
 9211TIP3    H149124   2.618   5.422   2.970 -0.1780  0.6001 -0.0023
 9211TIP3    H249125   2.599   5.561   3.028  0.5369  0.7585 -0.1351
 9212TIP3   OH249126   6.508   5.584   4.060 -0.0360 -0.3338 -0.6815
 9212TIP3    H149127   6.502   5.537   4.143  1.7644 -1.3560 -1.0771
 9212TIP3    H249128   6.447   5.539   4.002 -0.2809 -0.4853 -0.3093
 9213TIP3   OH249129   3.661   1.808   1.781  0.2044  0.1364  0.2409
 9213TIP3    H149130   3.648   1.822   1.874  1.8177  2.6739  0.2039
 9213TIP3    H249131   3.576   1.779   1.748 -0.3442 -1.0037  2.4843
 9214TIP3   OH249132   1.939   1.671  13.303  0.3925 -0.0548 -0.3025
 9214TIP3    H149133   2.035   1.673  13.306  0.3848  1.7891 -0.1004
 9214TIP3    H249134   1.912   1.754  13.342 -1.3171 -0.6911 -0.0334
 9215TIP3   OH249135   6.441   1.020  10.645  0.0762 -0.1905  0.0940
 9215TIP3    H149136   6.455   1.018  10.739  1.0031 -0.3466 -0.0362
 9215TIP3    H249137   6.529   1.007  10.607 -0.2504  0.0865 -0.7845
 9216TIP3   OH249138   2.707   0.283  13.763  0.3872 -0.0124 -0.1209
 9216TIP3    H149139   2.700   0.369  13.720  1.0830 -0.4055 -1.0397
 9216TIP3    H249140   2.625   0.274  13.811 -1.1618 -0.2294 -2.6354
 9217TIP3   OH249141   1.111   5.840  11.856  0.0695 -0.2555  0.2601
 9217TIP3    H149142   1.194   5.887  11.849  0.5148 -1.2592 -2.6240
 9217TIP3    H249143   1.050   5.904  11.891  1.4390  1.3819 -0.1879
 9218TIP3   OH249144   0.613   5.978   3.451  0.1072 -0.0347 -0.3753
 9218TIP3    H149145   0.689   5.989   3.394  0.2683 -1.8064 -0.5400
 9218TIP3    H249146   0.584   5.888   3.436 -3.0422  1.0220 -1.5428
 9219TIP3   OH249147   3.958   1.760   5.231  0.3072  0.0994 -0.3468
 9219TIP3    H149148   4.009   1.698   5.180  0.6958 -0.6348  0.9187
 9219TIP3    H249149   3.880   1.776   5.177  0.5873 -0.8525 -1.0613
 9220TIP3   OH249150   3.734   2.857   4.149  0.9118  0.1198 -0.4460
 9220TIP3    H149151   3.721   2.851   4.054 -0.3915  0.6960 -0.3293
 9220TIP3    H249152   3.645   2.861   4.185  1.3420 -1.5711  0.9258
 9221TIP3   OH249153   3.468   5.794  16.506 -0.1193 -0.2813  0.3025
 9221TIP3    H149154   3.374   5.810  16.510  0.2210  2.1706  0.3199
 9221TIP3    H249155   3.488   5.791  16.413 -0.1181 -0.0544  0.2940
 9222TIP3   OH249156   1.627   2.600   5.054 -0.4499 -0.0697  0.2005
 9222TIP3    H149157   1.603   2.516   5.094  0.7631 -0.9663 -0.8780
 9222TIP3    H249158   1.621   2.663   5.126  0.3784 -1.4083  1.5023
 9223TIP3   OH249159   4.978   3.112   3.737  0.1463 -0.1599  0.1048
 9223TIP3    H149160   5.032   3.033   3.735  1.7028  0.8908 -0.6679
 9223TIP3    H249161   4.928   3.109   3.656 -0.5497 -0.8191  0.5359
 9224TIP3   OH249162   0.044   4.371   4.920 -0.1963  0.3941 -0.5999
 9224TIP3    H149163  -0.032   4.420   4.954  0.1161  0.2538  0.3242
 9224TIP3    H249164   0.043   4.389   4.826 -1.4979  0.2376 -0.6409
 9225TIP3   OH249165   2.331   2.785  16.926  0.9268 -0.4062  0.3271
 9225TIP3    H149166   2.393   2.714  16.910  1.3630  0.0648 -0.0905
 9225TIP3    H249167   2.263   2.745  16.981  0.5026 -1.4944 -0.9169
 9226TIP3   OH249168   3.753   6.308   1.561 -0.0844  0.0264  0.3350
 9226TIP3    H149169   3.843   6.332   1.586 -0.2295 -0.6417  1.6359
 9226TIP3    H249170   3.706   6.391   1.557  0.6358  0.4090 -0.6061
 9227TIP3   OH249171   3.336   3.531   1.761 -0.5745 -0.1365 -0.8164
 9227TIP3    H149172   3.272   3.552   1.693 -0.9383  0.8016 -0.2040
 9227TIP3    H249173   3.290   3.544   1.843  0.3759  0.4884 -0.3602
 9228TIP3   OH249174   3.058   3.419  12.971 -0.2866 -0.0265 -0.2106
 9228TIP3    H149175   3.102   3.474  12.906  1.5912 -0.2021  0.8396
 9228TIP3    H249176   2.980   3.387  12.927 -0.6165  2.2085 -1.3834
 9229TIP3   OH249177   3.072   3.340   4.019 -0.7180 -0.7637  0.0745
 9229TIP3    H149178   3.025   3.407   3.970 -0.7207 -0.6037  0.2952
 9229TIP3    H249179   3.045   3.257   3.980  0.7233 -0.5547 -1.4889
 9230TIP3   OH249180   5.328   3.449  16.416  0.3971 -0.2998 -0.4897
 9230TIP3    H149181   5.376   3.510  16.359  1.1380  0.3529  0.7834
 9230TIP3    H249182   5.341   3.363  16.375  1.4723  0.0583 -0.9489
 9231TIP3   OH249183   3.297   6.727  11.874 -0.0416 -0.3490  0.1522
 9231TIP3    H149184   3.244   6.765  11.944 -2.2959  0.7795 -1.9902
 9231TIP3    H249185   3.270   6.776  11.795  0.0784 -3.5166 -2.0447
 9232TIP3   OH249186   6.645   2.523   4.422  0.0334 -0.0336  0.4022
 9232TIP3    H149187   6.626   2.442   4.468 -1.0062 -1.2862 -2.0333
 9232TIP3    H249188   6.738   2.519   4.402  0.2482 -0.0063  1.3613
 9233TIP3   OH249189   1.746   5.142   1.880 -0.0754  0.2644 -0.1548
 9233TIP3    H149190   1.794   5.157   1.961 -1.0734  2.3237  0.1181
 9233TIP3    H249191   1.774   5.055   1.851  1.7670  0.2938  1.3567
 9234TIP3   OH249192   1.587   0.720  10.414 -0.2355 -0.0597 -0.0592
 9234TIP3    H149193   1.654   0.787  10.430  0.4440 -0.4917 -0.9889
 9234TIP3    H249194   1.619   0.642  10.461 -0.9231  0.1954  0.8556
 9235TIP3   OH249195   3.681   4.889  16.603  0.5465  0.1350 -0.6369
 9235TIP3    H149196   3.618   4.941  16.553 -0.2598 -0.6227 -0.4348
 9235TIP3    H249197   3.760   4.943  16.606  0.4320  0.4497 -2.2242
 9236TIP3   OH249198   3.038   5.921  15.099 -0.5260  0.4315 -0.3026
 9236TIP3    H149199   3.079   5.882  15.022 -0.4303  1.7116 -0.9258
 9236TIP3    H249200   3.091   5.889  15.172  0.1038  0.1318 -0.8728
 9237TIP3   OH249201   4.089   2.932   2.577 -0.2637  0.1827 -0.1318
 9237TIP3    H149202   4.010   2.885   2.552  0.4150 -1.2974  0.3970
 9237TIP3    H249203   4.159   2.890   2.528  0.2009  1.6003 -0.7455
 9238TIP3   OH249204   2.394   5.377  16.100 -0.2663 -0.3656  0.1545
 9238TIP3    H149205   2.366   5.290  16.071 -1.1353 -0.2849  0.7082
 9238TIP3    H249206   2.312   5.426  16.109  0.2923  1.0520 -1.7833
 9239TIP3   OH249207   6.498   0.532  12.076  0.1803  0.1970 -0.3424
 9239TIP3    H149208   6.507   0.618  12.115  0.7550 -0.5385  1.2286
 9239TIP3    H249209   6.528   0.471  12.143  0.0451 -1.2226 -1.5003
 9240TIP3   OH249210   1.275   5.575   2.398 -0.9275 -0.4878 -0.8222
 9240TIP3    H149211   1.339   5.568   2.469 -0.3901 -0.4315 -1.2933
 9240TIP3    H249212   1.237   5.662   2.408 -1.0899 -0.6042 -0.4081
 9241TIP3   OH249213   4.733   2.378  13.260  0.3683  0.3166  0.3912
 9241TIP3    H149214   4.644   2.344  13.249 -0.3811  2.1435  0.3466
 9241TIP3    H249215   4.785   2.302  13.285 -0.5819 -1.4174 -2.3675
 9242TIP3   OH249216   6.190   1.075  11.901  0.0901  0.2917  0.9385
 9242TIP3    H149217   6.234   1.146  11.856  0.6157 -0.1621  0.7254
 9242TIP3    H249218   6.152   1.115  11.979 -1.2601  1.1874 -0.1483
 9243TIP3   OH249219   4.598   3.490  10.446 -0.5973 -0.2924  0.4922
 9243TIP3    H149220   4.533   3.426  10.418  0.4912 -0.8193 -0.9612
 9243TIP3    H249221   4.584   3.565  10.388 -0.3559 -0.1408  0.6317
 9244TIP3   OH249222   1.983   6.408   3.862  0.0385 -0.3876 -0.1150
 9244TIP3    H149223   1.987   6.331   3.918  2.0376  0.8292  1.5334
 9244TIP3    H249224   1.890   6.418   3.842 -0.6353 -1.4472  2.1994
 9245TIP3   OH249225   6.756   2.022   0.938 -0.0141  0.1139  0.1781
 9245TIP3    H149226   6.753   1.930   0.964  0.2727 -0.2966 -1.1530
 9245TIP3    H249227   6.668   2.039   0.902  0.1858  0.1152 -0.3209
 9246TIP3   OH249228   6.319   4.340  11.021  0.5551  0.3625 -0.7644
 9246TIP3    H149229   6.244   4.374  11.070 -0.2731  1.1556 -2.4804
 9246TIP3    H249230   6.392   4.397  11.044  0.5861 -0.2477  0.7147
 9247TIP3   OH249231   0.477   4.596  11.913  0.8671  0.1410 -0.4750
 9247TIP3    H149232   0.454   4.503  11.916  0.6142  0.2212  1.0573
 9247TIP3    H249233   0.562   4.601  11.957 -0.1136  0.8559  1.4661
 9248TIP3   OH249234   4.425   3.736   3.834  0.7818  0.1272  0.0160
 9248TIP3    H149235   4.424   3.820   3.787 -1.0577 -0.6871 -1.5555
 9248TIP3    H249236   4.354   3.743   3.898 -0.4387 -0.6886 -1.1652
 9249TIP3   OH249237   6.356   3.158   0.462 -0.1976  0.1238  0.7872
 9249TIP3    H149238   6.368   3.119   0.376  1.8716  0.7085  0.7490
 9249TIP3    H249239   6.296   3.231   0.448  0.9629  0.8894 -0.3993
 9250TIP3   OH249240   4.551   2.111  12.863 -0.2520 -0.1958 -0.1580
 9250TIP3    H149241   4.623   2.104  12.926  0.7715  0.1366 -1.2502
 9250TIP3    H249242   4.552   2.028  12.815 -0.8079 -0.3173  0.0366
 9251TIP3   OH249243   0.830   6.181  12.849 -0.2998 -0.0418 -0.4967
 9251TIP3    H149244   0.872   6.255  12.894  1.8510 -1.3754 -0.1474
 9251TIP3    H249245   0.757   6.157  12.906 -0.1619  0.9120  0.1144
 9252TIP3   OH249246   0.601   1.300  15.867  0.6169 -0.7872 -0.1073
 9252TIP3    H149247   0.695   1.283  15.863  0.5418 -1.4819  0.7981
 9252TIP3    H249248   0.591   1.363  15.939  0.6277  1.2398 -1.8032
 9253TIP3   OH249249   0.770   3.688  13.713 -0.1057  0.1963  0.7293
 9253TIP3    H149250   0.753   3.718  13.624 -1.0234 -2.8337 -0.2473
 9253TIP3    H249251   0.834   3.617  13.702 -0.3180 -0.3071  2.4580
 9254TIP3   OH249252   5.831   0.113   4.968  0.2287 -0.5392 -0.0365
 9254TIP3    H149253   5.742   0.127   4.935  0.5749  0.9374 -0.3976
 9254TIP3    H249254   5.824   0.128   5.062 -0.1839 -1.9132  0.1732
 9255TIP3   OH249255   0.338   1.943  12.599  0.4842  0.7081  0.2032
 9255TIP3    H149256   0.280   2.014  12.571 -1.1192  0.3294  2.3324
 9255TIP3    H249257   0.423   1.965  12.561 -0.3844  2.8066 -0.6708
 9256TIP3   OH249258   4.571   1.593  12.174 -0.2018 -0.3493 -0.2714
 9256TIP3    H149259   4.534   1.506  12.190 -0.3045 -0.7134 -2.2695
 9256TIP3    H249260   4.659   1.589  12.212 -0.2437 -1.2927 -0.2624
 9257TIP3   OH249261   0.930   1.827  15.224  0.2463  0.5039 -0.2289
 9257TIP3    H149262   0.876   1.850  15.148 -0.6884 -1.4138 -0.2143
 9257TIP3    H249263   1.017   1.810  15.188  0.1872  1.0667 -0.6469
 9258TIP3   OH249264   2.439   5.413   2.076 -0.0710  0.5566 -0.3861
 9258TIP3    H149265   2.371   5.347   2.062 -0.1745  0.0944  1.9482
 9258TIP3    H249266   2.426   5.476   2.004 -0.8586 -1.1891 -1.8559
 9259TIP3   OH249267   4.449   0.725  14.925  0.8092  0.0846  0.1490
 9259TIP3    H149268   4.366   0.716  14.878  0.5890 -0.3763  0.6250
 9259TIP3    H249269   4.424   0.757  15.012  0.9946 -1.4689  0.7901
 9260TIP3   OH249270   5.336   0.978  16.256  0.0007 -0.1895 -0.2317
 9260TIP3    H149271   5.405   0.944  16.312  0.0847 -0.7334 -0.6565
 9260TIP3    H249272   5.358   1.071  16.243 -0.3707  0.1106  1.1374
 9261TIP3   OH249273   4.523   6.358  13.752 -0.2215  0.0568 -0.1179
 9261TIP3    H149274   4.578   6.293  13.794 -0.8965 -0.1261  0.5194
 9261TIP3    H249275   4.581   6.407  13.694  0.4106 -0.7044 -0.1256
 9262TIP3   OH249276   2.685   3.702   5.951 -0.4861 -0.5851  0.4582
 9262TIP3    H149277   2.654   3.612   5.946 -0.0047 -0.7097 -0.6898
 9262TIP3    H249278   2.630   3.744   6.017 -1.9046 -1.2563 -0.2609
 9263TIP3   OH249279   3.531   1.535  10.986 -0.0516 -0.7200 -0.3016
 9263TIP3    H149280   3.487   1.513  11.068 -1.2118 -1.9683 -1.2117
 9263TIP3    H249281   3.549   1.629  10.992 -1.1843 -0.5548  0.8897
 9264TIP3   OH249282   4.470   5.532  13.451 -0.2756  0.5601  0.3424
 9264TIP3    H149283   4.392   5.508  13.400 -0.0973  2.0884 -0.7025
 9264TIP3    H249284   4.518   5.449  13.460 -2.1481 -0.4956  1.3072
 9265TIP3   OH249285   4.818   5.363   5.410  0.2321 -0.2052  0.2864
 9265TIP3    H149286   4.803   5.313   5.490  0.3393  0.9489  1.0485
 9265TIP3    H249287   4.770   5.445   5.423  1.2127  0.4928 -0.3115
 9266TIP3   OH249288   1.532   0.949  16.782  0.1206  0.0621 -0.2669
 9266TIP3    H149289   1.528   0.898  16.700 -0.9326 -0.8706  0.3244
 9266TIP3    H249290   1.592   0.899  16.838  1.5738  1.1962 -0.7629
 9267TIP3   OH249291   1.034   4.830  13.427  0.2368 -0.0544  0.1070
 9267TIP3    H149292   1.089   4.780  13.486  0.3576 -0.7017 -0.5371
 9267TIP3    H249293   1.013   4.769  13.356 -1.7627 -0.0163  0.6056
 9268TIP3   OH249294   2.399   0.617  14.492 -0.1502  0.4857  0.1927
 9268TIP3    H149295   2.427   0.570  14.413 -1.8519  0.4856 -0.4537
 9268TIP3    H249296   2.441   0.570  14.564  0.6842 -0.0928 -0.6485
 9269TIP3   OH249297   6.796   0.753   1.092 -0.0095  0.3421 -0.0576
 9269TIP3    H149298   6.845   0.790   1.018 -0.8014  0.9896 -0.2773
 9269TIP3    H249299   6.863   0.733   1.157  0.5942  0.7923 -0.5231
 9270TIP3   OH249300   6.706   1.242  12.911  0.0412  0.0496  0.1295
 9270TIP3    H149301   6.654   1.223  12.989 -0.3335  0.1578 -0.0910
 9270TIP3    H249302   6.714   1.158  12.866 -1.0810  0.2792 -0.5227
 9271TIP3   OH249303   1.600   2.338  16.278  0.1249 -0.3892 -0.0520
 9271TIP3    H149304   1.660   2.405  16.310  0.1703  1.2155 -3.0757
 9271TIP3    H249305   1.518   2.356  16.324  1.0782 -0.6113  1.8260
 9272TIP3   OH249306   6.735   4.489  12.608  0.0128  0.3619  0.7330
 9272TIP3    H149307   6.778   4.410  12.577  1.3022  0.9282  1.0254
 9272TIP3    H249308   6.652   4.458  12.645  0.1797 -0.7562  0.1993
 9273TIP3   OH249309   4.619   4.540   3.277 -0.6699 -0.2754 -0.0113
 9273TIP3    H149310   4.599   4.485   3.353  0.7648  0.5267  0.9870
 9273TIP3    H249311   4.601   4.629   3.307  0.0248  0.0554 -0.5656
 9274TIP3   OH249312   4.773   5.969  16.669 -0.6635 -0.1403 -0.1386
 9274TIP3    H149313   4.861   5.964  16.708  0.3196 -0.9164 -2.2867
 9274TIP3    H249314   4.741   5.879  16.670 -0.0949 -0.4175 -2.1096
 9275TIP3   OH249315   6.778   6.346  11.212 -0.3305 -0.3925  0.0772
 9275TIP3    H149316   6.700   6.312  11.169  0.3414 -1.3488 -0.4166
 9275TIP3    H249317   6.793   6.431  11.171 -0.8909 -0.3664 -0.0854
 9276TIP3   OH249318   0.472   0.862   5.955 -0.4230  0.0654 -0.3291
 9276TIP3    H149319   0.408   0.931   5.975 -0.3814 -0.0907  0.3857
 9276TIP3    H249320   0.449   0.791   6.016  1.8917  0.8948  1.6414
 9277TIP3   OH249321   6.117   1.170   0.133 -0.5541 -0.1604 -0.1561
 9277TIP3    H149322   6.177   1.244   0.119 -1.9699  0.9170 -0.7548
 9277TIP3    H249323   6.032   1.202   0.103 -1.3392 -1.8344  0.1716
 9278TIP3   OH249324   3.881   5.557  15.813 -0.3110  0.3678 -0.1518
 9278TIP3    H149325   3.912   5.528  15.727 -1.1626 -1.2286  0.0318
 9278TIP3    H249326   3.959   5.593  15.855  0.4416 -0.1128 -1.0784
 9279TIP3   OH249327   3.060   2.243   4.647 -0.9085  0.0727  0.4548
 9279TIP3    H149328   3.034   2.178   4.712 -1.1049  0.0367  0.3395
 9279TIP3    H249329   3.150   2.220   4.625  0.2653  1.8499  2.9331
 9280TIP3   OH249330   1.810   3.215  11.327  0.3676 -0.0337 -0.2786
 9280TIP3    H149331   1.759   3.259  11.259  0.5120 -0.3229 -0.5806
 9280TIP3    H249332   1.748   3.199  11.398 -0.2541 -1.3952 -1.0910
 9281TIP3   OH249333   1.498   4.237  14.283  0.0898 -0.4429 -0.1705
 9281TIP3    H149334   1.589   4.248  14.312  0.2490 -1.0711 -0.4151
 9281TIP3    H249335   1.488   4.142  14.273 -0.0770 -0.2761 -1.8040
 9282TIP3   OH249336   4.031   3.040   1.157 -0.2137 -0.6469 -0.4927
 9282TIP3    H149337   3.943   3.078   1.146 -0.1042 -0.5083 -0.9122
 9282TIP3    H249338   4.075   3.057   1.073  0.6111  0.3361  0.1090
 9283TIP3   OH249339   0.508   6.811   6.607 -0.0449 -0.0796 -0.1634
 9283TIP3    H149340   0.442   6.803   6.538  0.3938  1.6039 -0.8341
 9283TIP3    H249341   0.480   6.888   6.658  1.0238  0.2638 -0.0626
 9284TIP3   OH249342   1.275   6.532   6.755  0.2288  0.0591  0.3714
 9284TIP3    H149343   1.307   6.570   6.673  3.3138  0.1278  1.4653
 9284TIP3    H249344   1.318   6.447   6.760  0.5397  0.2810  2.1321
 9285TIP3   OH249345   3.912   4.292  15.476 -0.5849  0.0799 -0.4117
 9285TIP3    H149346   3.954   4.369  15.439 -0.1706  0.1071  0.1053
 9285TIP3    H249347   3.820   4.315  15.483 -0.3480  0.7902  0.4128
 9286TIP3   OH249348   5.196   4.400  12.900  0.1241 -0.3541  0.0582
 9286TIP3    H149349   5.143   4.440  12.970  0.0726 -0.3503  0.0163
 9286TIP3    H249350   5.164   4.441  12.820 -1.2724 -1.8964 -0.2125
 9287TIP3   OH249351   5.331   6.438   5.743 -0.3083  0.0503 -0.1292
 9287TIP3    H149352   5.246   6.474   5.768  0.8042  1.6338  1.6230
 9287TIP3    H249353   5.372   6.508   5.693  0.6534  0.0174  0.5988
 9288TIP3   OH249354   5.003   4.191   0.019  0.2714  0.0893 -0.3645
 9288TIP3    H149355   5.053   4.229   0.092  1.5212 -1.8675 -0.1457
 9288TIP3    H249356   4.953   4.120   0.059 -1.0679  0.6435 -0.9905
 9289TIP3   OH249357   2.800   2.408   0.075  0.2005 -0.3889 -0.0379
 9289TIP3    H149358   2.868   2.464   0.112  0.8123 -0.7790 -0.5412
 9289TIP3    H249359   2.823   2.320   0.106 -1.5676 -0.2368  1.9633
 9290TIP3   OH249360   6.596   2.569  16.994  0.3129  0.4876  0.1261
 9290TIP3    H149361   6.501   2.555  17.003  0.4359 -1.2253 -0.6764
 9290TIP3    H249362   6.632   2.544  17.079  0.1489 -0.4243 -0.0530
 9291TIP3   OH249363   1.820   4.788  16.248 -0.2797  0.7708  0.1929
 9291TIP3    H149364   1.852   4.707  16.208  1.0807  0.8959  0.9441
 9291TIP3    H249365   1.795   4.763  16.336  1.6644  1.3915  0.9927
 9292TIP3   OH249366   3.640   4.461  12.372 -0.3359  0.2806  0.7071
 9292TIP3    H149367   3.551   4.427  12.377  0.4020 -1.6671  1.3990
 9292TIP3    H249368   3.692   4.387  12.340  1.3095  0.8325  1.9942
 9293TIP3   OH249369   5.584   5.250  10.881 -0.4132  0.0391  0.8093
 9293TIP3    H149370   5.623   5.229  10.796  1.0467  0.7113  1.2882
 9293TIP3    H249371   5.516   5.315  10.862  1.3510  1.8248  0.3613
 9294TIP3   OH249372   1.060   6.480   1.491 -0.1662  0.2891  0.3610
 9294TIP3    H149373   1.082   6.497   1.583 -0.9274  1.8405  0.2794
 9294TIP3    H249374   1.083   6.387   1.478 -0.3205 -0.0396  2.1803
 9295TIP3   OH249375   2.512   5.399   3.600 -0.0575 -0.4514 -0.2071
 9295TIP3    H149376   2.460   5.347   3.539 -0.2143 -1.7946  1.0179
 9295TIP3    H249377   2.591   5.348   3.614 -0.0933 -0.2485  0.8180
 9296TIP3   OH249378   0.256   5.820  14.950 -0.3872 -0.0377 -0.3727
 9296TIP3    H149379   0.337   5.829  14.901 -0.3093  1.2409 -0.0471
 9296TIP3    H249380   0.246   5.726  14.963  1.6319 -0.1808  0.5597
 9297TIP3   OH249381   2.775   2.899  15.094 -0.2681  0.2611 -0.0879
 9297TIP3    H149382   2.824   2.972  15.056  1.3873 -1.0301 -0.5765
 9297TIP3    H249383   2.824   2.875  15.172 -0.4600 -0.6831 -0.2478
 9298TIP3   OH249384   1.659   5.929  11.755 -0.1181 -0.5239 -0.1401
 9298TIP3    H149385   1.592   5.923  11.687 -0.1523 -1.0023 -0.0658
 9298TIP3    H249386   1.656   6.020  11.783 -0.7966 -0.5627 -0.0749
 9299TIP3   OH249387   2.656   6.395   6.160 -0.3685  0.4545  0.3518
 9299TIP3    H149388   2.712   6.344   6.218 -0.8503 -1.2048 -0.5687
 9299TIP3    H249389   2.606   6.452   6.218  0.2738 -0.0399  1.4127
 9300TIP3   OH249390   2.565   5.272   2.564  0.2700  0.1962 -0.0348
 9300TIP3    H149391   2.541   5.314   2.481  2.5439 -0.2156 -0.9635
 9300TIP3    H249392   2.610   5.340   2.614  0.9207 -0.1838 -0.0983
 9301TIP3   OH249393   4.415   3.312  10.391  0.0231 -0.1133 -0.0508
 9301TIP3    H149394   4.348   3.276  10.333 -0.2391  0.1277  0.1058
 9301TIP3    H249395   4.398   3.271  10.476 -1.7008  2.0811  0.7328
 9302TIP3   OH249396   5.275   2.539   2.715  0.4743  0.8879  0.1986
 9302TIP3    H149397   5.235   2.488   2.786  0.5193  0.9314  0.2546
 9302TIP3    H249398   5.355   2.491   2.695 -0.8666 -0.7681 -1.7305
 9303TIP3   OH249399   1.823   6.675  14.195  0.3322  0.7363  0.5385
 9303TIP3    H149400   1.733   6.706  14.197  0.3419  1.0188 -1.6860
 9303TIP3    H249401   1.874   6.747  14.232 -0.2363  0.9523  0.9180
 9304TIP3   OH249402   1.255   1.085   4.550  0.0380 -0.1294 -0.3158
 9304TIP3    H149403   1.189   1.051   4.489  0.1189 -1.9920  0.5702
 9304TIP3    H249404   1.311   1.009   4.569  0.2442  0.4999  1.7881
 9305TIP3   OH249405   2.757   4.452  11.448 -0.7924  0.4998 -0.2403
 9305TIP3    H149406   2.727   4.488  11.364 -0.6817  1.3859  0.0963
 9305TIP3    H249407   2.843   4.491  11.462  0.2225 -1.4153 -0.8081
 9306TIP3   OH249408   2.667   6.046  10.887  0.3477 -0.2609 -0.0294
 9306TIP3    H149409   2.747   5.994  10.893 -0.6661 -1.7718  0.9730
 9306TIP3    H249410   2.634   6.027  10.799 -0.9240 -2.8228  0.8999
 9307TIP3   OH249411   4.070   4.769  15.324 -0.0871 -0.2696 -0.1861
 9307TIP3    H149412   4.153   4.753  15.368 -0.2426  1.3361  0.7791
 9307TIP3    H249413   4.005   4.770  15.395 -0.7509 -0.3440 -0.7791
 9308TIP3   OH249414   4.113   0.832   0.844 -0.3385  0.4163  0.1626
 9308TIP3    H149415   4.071   0.897   0.899 -0.4831  0.7058 -0.2838
 9308TIP3    H249416   4.041   0.786   0.801 -0.2383 -0.0383  0.4668
 9309TIP3   OH249417   0.794   6.639  11.414  0.2986  0.2423 -0.2748
 9309TIP3    H149418   0.815   6.557  11.368  0.2198 -1.2549  2.1503
 9309TIP3    H249419   0.707   6.662  11.383 -0.3251 -1.4717  0.1198
 9310TIP3   OH249420   1.066   5.853   6.522 -0.5714  0.0112  0.2079
 9310TIP3    H149421   0.996   5.802   6.562 -0.1768 -1.2308 -0.6109
 9310TIP3    H249422   1.112   5.893   6.595 -0.6604 -1.1479  0.9246
 9311TIP3   OH249423   2.085   4.650   4.325 -0.4639 -0.1345  0.1838
 9311TIP3    H149424   2.046   4.575   4.279 -0.5774 -0.0490  0.1382
 9311TIP3    H249425   2.123   4.704   4.255 -1.3739  0.4223  0.1004
 9312TIP3   OH249426   6.359   3.691   3.958 -0.8075  0.5333 -0.3489
 9312TIP3    H149427   6.349   3.754   3.887 -0.7955  0.3936 -0.4764
 9312TIP3    H249428   6.302   3.723   4.027  0.5769  1.6953  0.3059
 9313TIP3   OH249429   6.085   2.836   3.878 -0.4185  0.1794 -0.6031
 9313TIP3    H149430   6.142   2.818   3.803  0.4682  1.7760 -0.3760
 9313TIP3    H249431   6.135   2.808   3.954 -0.3853  0.5643 -0.4779
 9314TIP3   OH249432   2.282   6.019   0.624 -0.3306  0.2565  0.5148
 9314TIP3    H149433   2.217   6.025   0.694 -0.8932  0.6518 -0.0181
 9314TIP3    H249434   2.335   5.943   0.646 -1.1385 -0.2293  0.8381
 9315TIP3   OH249435   4.149   4.069  16.595 -0.4586 -0.4278 -0.5799
 9315TIP3    H149436   4.129   4.149  16.547 -0.6490 -1.1642 -1.7621
 9315TIP3    H249437   4.191   4.011  16.531  1.4830 -0.5695  0.7280
 9316TIP3   OH249438   5.745   4.428   5.993  0.2899  0.0639  0.1629
 9316TIP3    H149439   5.672   4.385   6.037  0.1825  1.7678  1.7727
 9316TIP3    H249440   5.758   4.378   5.912 -3.1188  0.1304 -0.5418
 9317TIP3   OH249441   0.477   4.721   0.121 -0.5037  0.3902  0.3707
 9317TIP3    H149442   0.474   4.770   0.039  1.0406 -0.5426 -0.2843
 9317TIP3    H249443   0.439   4.636   0.099 -1.9688  0.7881  1.1756
 9318TIP3   OH249444   0.227   0.647   5.830 -0.0266  0.3158 -0.1275
 9318TIP3    H149445   0.269   0.624   5.913 -2.2706  0.3700  1.1073
 9318TIP3    H249446   0.157   0.583   5.820  0.1460  0.3546 -1.9882
 9319TIP3   OH249447   1.099   2.211  17.143  1.1751  0.0395  0.1316
 9319TIP3    H149448   1.025   2.272  17.137  1.3836  0.3500  0.6578
 9319TIP3    H249449   1.077   2.142  17.080  0.5358  0.2273  0.1313
 9320TIP3   OH249450   4.220   0.972   6.195 -0.2018  0.1449  0.0795
 9320TIP3    H149451   4.165   1.032   6.245 -1.2945 -0.9417  0.2239
 9320TIP3    H249452   4.222   0.892   6.248  0.7524 -0.1566 -0.3870
 9321TIP3   OH249453   0.550   6.392   4.960  0.3332 -0.0054 -0.4314
 9321TIP3    H149454   0.641   6.374   4.984 -0.2017 -1.1968  0.8683
 9321TIP3    H249455   0.544   6.370   4.867  1.2359 -0.4713 -0.3881
 9322TIP3   OH249456   2.282   2.626  11.958  0.6447  0.0669  0.5239
 9322TIP3    H149457   2.290   2.603  12.051 -0.6001 -1.6290  0.2713
 9322TIP3    H249458   2.188   2.631  11.943  0.8304  0.3561 -0.6337
 9323TIP3   OH249459   1.796   1.237  12.891  0.3015 -0.2648  0.3833
 9323TIP3    H149460   1.867   1.222  12.829  0.0652 -0.7211  0.2126
 9323TIP3    H249461   1.813   1.174  12.962 -1.1075 -1.9487 -0.6878
 9324TIP3   OH249462   6.779   5.261  15.728 -0.3485  0.3478 -0.2554
 9324TIP3    H149463   6.757   5.170  15.706  0.2812 -0.0686  0.7549
 9324TIP3    H249464   6.867   5.256  15.766 -0.6771  1.2539  0.6768
 9325TIP3   OH249465   0.176   6.333   5.738  0.0723 -0.1066  0.0399
 9325TIP3    H149466   0.187   6.372   5.651  0.1244 -0.1740  0.0155
 9325TIP3    H249467   0.165   6.239   5.720  3.2571 -0.6320  0.2512
 9326TIP3   OH249468   5.978   4.569   5.954  0.1092 -0.4736 -0.3338
 9326TIP3    H149469   5.997   4.640   6.016  0.1344 -1.8882  1.3492
 9326TIP3    H249470   5.884   4.556   5.960  0.2033 -1.0496 -0.1100
 9327TIP3   OH249471   1.149   4.631  10.568  0.2273 -0.1328  0.3040
 9327TIP3    H149472   1.175   4.612  10.478  0.7197 -1.4388  0.7032
 9327TIP3    H249473   1.228   4.669  10.607 -0.1064  0.8081  0.0965
 9328TIP3   OH249474   4.433   4.210   1.789  0.3218 -0.3821  0.3841
 9328TIP3    H149475   4.491   4.172   1.854 -0.8908 -1.4098  0.9034
 9328TIP3    H249476   4.363   4.250   1.839  0.5606  0.8463 -0.2325
 9329TIP3   OH249477   2.850   1.404  11.163  0.6723 -0.1287 -0.3899
 9329TIP3    H149478   2.786   1.397  11.092 -0.4457  1.0891  0.4606
 9329TIP3    H249479   2.803   1.377  11.241  1.5171 -0.2427  0.0973
 9330TIP3   OH249480   0.386   5.502  14.530  0.1580  0.0056 -0.0966
 9330TIP3    H149481   0.446   5.529  14.460  0.1620 -1.9224 -0.9104
 9330TIP3    H249482   0.394   5.407  14.533 -0.6520 -0.0489  1.8374
 9331TIP3   OH249483   5.185   5.758   2.056  0.3269 -0.5160  0.1620
 9331TIP3    H149484   5.277   5.738   2.072  0.5579  1.4333  1.5639
 9331TIP3    H249485   5.143   5.752   2.142 -0.7513 -0.8473 -0.3672
 9332TIP3   OH249486   6.246   6.690   2.173  0.4110  0.3855 -0.1069
 9332TIP3    H149487   6.249   6.714   2.266  0.6875 -0.9081  0.2411
 9332TIP3    H249488   6.310   6.747   2.131 -0.2413  1.4875  0.3677
 9333TIP3   OH249489   6.550   3.674  15.410  0.6037  0.2382  0.4972
 9333TIP3    H149490   6.525   3.600  15.355 -2.2778  0.4568  1.3632
 9333TIP3    H249491   6.633   3.648  15.449  3.6184  0.5420 -4.6746
 9334TIP3   OH249492   6.092   2.083   0.551 -0.1040 -0.1958  0.2945
 9334TIP3    H149493   6.129   2.076   0.463  1.9782  2.8433  0.7535
 9334TIP3    H249494   6.158   2.046   0.608  0.3222  1.2615  0.7969
 9335TIP3   OH249495   4.697   5.860  15.071  0.0316  0.3204 -0.8336
 9335TIP3    H149496   4.753   5.816  15.008  0.8225 -1.2282  0.8515
 9335TIP3    H249497   4.612   5.866  15.028  0.1249 -2.1040 -1.5282
 9336TIP3   OH249498   5.655   3.568   0.436  0.5764 -0.5979  0.4067
 9336TIP3    H149499   5.650   3.549   0.529 -0.5028 -1.9721  0.0996
 9336TIP3    H249500   5.659   3.482   0.394  0.7722 -0.0099 -0.8378
 9337TIP3   OH249501   0.778   6.545  15.992  0.1450  0.5447 -0.1592
 9337TIP3    H149502   0.801   6.628  16.033  1.9818 -0.6460  1.3902
 9337TIP3    H249503   0.854   6.524  15.938  0.3712 -0.8247  0.6575
 9338TIP3   OH249504   4.004   1.935  15.787 -0.5426  0.9603  0.4170
 9338TIP3    H149505   4.054   1.984  15.722 -0.0490 -1.8066 -1.4994
 9338TIP3    H249506   3.959   1.868  15.735  1.0827 -2.4163  2.9992
 9339TIP3   OH249507   2.036   2.182  12.115  0.2543  0.2964  0.8358
 9339TIP3    H149508   2.012   2.120  12.184 -1.5424 -0.0007 -0.0123
 9339TIP3    H249509   1.963   2.243  12.111  0.5383  0.5778 -0.4994
 9340TIP3   OH249510   4.716   5.199  14.790 -0.0693 -0.5074 -0.2428
 9340TIP3    H149511   4.719   5.104  14.801 -0.7001 -0.5474 -0.3791
 9340TIP3    H249512   4.740   5.214  14.699 -0.7516 -0.5979 -0.4438
 9341TIP3   OH249513   0.164   3.057  14.773  0.3721  0.2756 -0.1403
 9341TIP3    H149514   0.201   3.140  14.802  1.5685 -0.3659  0.2377
 9341TIP3    H249515   0.155   3.005  14.853 -0.1794 -0.0277 -0.3929
 9342TIP3   OH249516   1.493   3.277  15.920  0.2450  0.9494  0.5645
 9342TIP3    H149517   1.528   3.255  15.833 -1.4316  2.6112 -0.6077
 9342TIP3    H249518   1.565   3.323  15.963  0.9461  0.5310 -0.1109
 9343TIP3   OH249519   2.925   5.804   5.116 -0.5975 -0.8947  0.6164
 9343TIP3    H149520   2.994   5.751   5.154  0.0535  0.1803  1.0005
 9343TIP3    H249521   2.859   5.742   5.087 -0.5436 -1.8224  2.3862
 9344TIP3   OH249522   1.056   4.871   0.651  0.1734  0.1369 -0.6465
 9344TIP3    H149523   1.021   4.827   0.729  0.5976  1.2107  0.1697
 9344TIP3    H249524   1.149   4.852   0.652  0.1145 -0.1957 -1.1350
 9345TIP3   OH249525   3.499   1.722  11.193 -0.1717  0.7761 -0.4266
 9345TIP3    H149526   3.442   1.788  11.231 -2.2687 -0.5302 -1.1401
 9345TIP3    H249527   3.450   1.640  11.201  1.3562 -0.3241 -1.6141
 9346TIP3   OH249528   1.334   4.840   0.716  0.4740 -0.1520 -0.2598
 9346TIP3    H149529   1.381   4.924   0.712  2.3770 -1.1813 -0.6505
 9346TIP3    H249530   1.385   4.787   0.776 -0.9365 -0.9283  0.2834
 9347TIP3   OH249531   2.709   0.570  17.198  0.0186  0.4225  0.3922
 9347TIP3    H149532   2.671   0.592  17.112 -0.2476 -0.8763  0.1603
 9347TIP3    H249533   2.749   0.484  17.185  0.0373  0.2453  1.5525
 9348TIP3   OH249534   3.967   3.013  11.839 -0.0660 -0.1088  0.2880
 9348TIP3    H149535   3.931   2.925  11.838  0.1325 -0.1895 -0.0092
 9348TIP3    H249536   3.890   3.070  11.841 -0.1956 -0.2866  0.4079
 9349TIP3   OH249537   6.668   0.238   3.843 -0.4562 -0.0526  0.4460
 9349TIP3    H149538   6.649   0.332   3.838 -0.9611  0.0119  2.5729
 9349TIP3    H249539   6.739   0.231   3.906 -0.5977 -1.1285  0.5106
 9350TIP3   OH249540   1.615   5.377   3.534  0.1561 -0.6961  0.1561
 9350TIP3    H149541   1.669   5.298   3.531 -0.7137 -1.2637 -1.5476
 9350TIP3    H249542   1.632   5.422   3.452 -2.3700 -1.2271 -0.7538
 9351TIP3   OH249543   6.020   3.224   1.509  0.6378 -0.4589  0.5420
 9351TIP3    H149544   5.941   3.184   1.544 -0.0155  0.2068 -0.1217
 9351TIP3    H249545   5.988   3.292   1.450  1.7063  0.2329  0.7248
 9352TIP3   OH249546   3.379   4.207  16.823 -0.4409 -0.0279  0.3816
 9352TIP3    H149547   3.317   4.139  16.795 -0.1579  0.0135 -0.3670
 9352TIP3    H249548   3.460   4.186  16.776  0.0218  0.1120  1.0983
 9353TIP3   OH249549   2.552   0.057   2.838  0.3548  0.7554  0.0443
 9353TIP3    H149550   2.591  -0.004   2.900  0.0201 -0.7391 -1.1471
 9353TIP3    H249551   2.458   0.052   2.855  0.4071  1.9265  0.7785
 9354TIP3   OH249552   1.835   4.071   5.290  0.1206 -0.2861  0.0941
 9354TIP3    H149553   1.845   3.977   5.307 -1.0192 -0.6953 -1.2733
 9354TIP3    H249554   1.882   4.085   5.208 -0.6413  0.1128 -0.2796
 9355TIP3   OH249555   1.594   3.070   5.746  0.0311 -0.2566  0.4612
 9355TIP3    H149556   1.513   3.082   5.796 -1.8255 -0.3971 -2.3274
 9355TIP3    H249557   1.596   2.977   5.726  1.3426 -0.3990  1.1441
 9356TIP3   OH249558   5.620   2.050  12.720  0.6209  0.0846  0.5121
 9356TIP3    H149559   5.715   2.050  12.725  0.6614  2.5078  0.9017
 9356TIP3    H249560   5.599   2.125  12.664 -1.0346 -1.5570 -1.1801
 9357TIP3   OH249561   0.982   4.918  15.170  0.1614 -0.6596  0.3129
 9357TIP3    H149562   1.045   4.973  15.126 -0.3210  0.2018  0.6778
 9357TIP3    H249563   0.936   4.977  15.230  0.0284 -1.5637  1.1320
 9358TIP3   OH249564   0.740   4.352   1.948 -0.0121  0.3043  0.4494
 9358TIP3    H149565   0.662   4.302   1.971  0.2131 -1.0774 -1.4237
 9358TIP3    H249566   0.737   4.430   2.003 -1.7954 -0.5252  1.6259
 9359TIP3   OH249567   0.589   6.375  17.146 -0.3978 -0.4053  0.6947
 9359TIP3    H149568   0.639   6.398  17.224  0.8853 -1.7158  0.2956
 9359TIP3    H249569   0.617   6.287  17.124 -0.3914  0.0877 -1.5148
 9360TIP3   OH249570   2.971   0.787  16.450  0.2456 -0.3879  0.7056
 9360TIP3    H149571   3.060   0.754  16.459  1.4725  1.4506 -2.7132
 9360TIP3    H249572   2.969   0.867  16.503  0.5847 -0.4977  0.8846
 9361TIP3   OH249573   3.754   0.795   3.973 -0.7006 -0.5583  0.5994
 9361TIP3    H149574   3.666   0.809   4.009 -1.8401  1.3942 -2.5360
 9361TIP3    H249575   3.740   0.741   3.895  0.7183  0.4173 -0.3930
 9362TIP3   OH249576   0.055   3.878  15.745 -1.0214  0.0632  0.4394
 9362TIP3    H149577   0.075   3.808  15.808 -0.5571  0.7655  1.0905
 9362TIP3    H249578  -0.040   3.879  15.740 -1.0498 -0.2865  0.7993
 9363TIP3   OH249579   4.334   2.542  14.526 -0.0749 -0.3428 -0.5881
 9363TIP3    H149580   4.328   2.593  14.445  1.6285 -0.9277 -1.1206
 9363TIP3    H249581   4.286   2.461  14.507 -0.2321 -0.2051 -0.7807
 9364TIP3   OH249582   5.862   6.748  11.394  0.1258  0.0140 -0.1744
 9364TIP3    H149583   5.910   6.831  11.387 -1.9657  1.2907 -0.3905
 9364TIP3    H249584   5.881   6.702  11.313  2.0627 -0.1930  0.3462
 9365TIP3   OH249585   4.941   0.568  14.928  0.8570 -0.0438  0.0261
 9365TIP3    H149586   4.920   0.613  15.009 -2.3340  0.4577 -0.9378
 9365TIP3    H249587   4.922   0.476  14.946  1.2690 -0.1106  0.1441
 9366TIP3   OH249588   3.819   5.591  13.700  0.4122  0.8058 -0.4245
 9366TIP3    H149589   3.861   5.586  13.614  1.0935  2.2464 -0.2035
 9366TIP3    H249590   3.753   5.521  13.698  1.1314  0.1237 -1.7064
 9367TIP3   OH249591   6.308   3.949  11.787  0.1147  0.0398  0.3436
 9367TIP3    H149592   6.335   4.017  11.725  0.6672 -0.1222  0.4068
 9367TIP3    H249593   6.218   3.927  11.761  0.2853  0.0932 -0.2935
 9368TIP3   OH249594   5.577   1.705  11.025 -0.1192  0.0949 -0.0349
 9368TIP3    H149595   5.650   1.656  11.065  0.2309  0.6638  0.0337
 9368TIP3    H249596   5.618   1.785  10.991 -0.8665  0.8712  0.8409
 9369TIP3   OH249597   6.206   3.722   3.388 -0.1487 -0.2771  0.2265
 9369TIP3    H149598   6.238   3.632   3.397  0.3177 -0.3533 -1.7125
 9369TIP3    H249599   6.217   3.760   3.475  2.6918 -1.1348  0.3459
 9370TIP3   OH249600   5.465   5.651  11.070  0.1949 -0.4707 -0.5894
 9370TIP3    H149601   5.536   5.596  11.037 -1.6540 -1.8195 -2.6399
 9370TIP3    H249602   5.396   5.590  11.096 -0.2835  0.7880  1.3109
 9371TIP3   OH249603   6.446   1.767   5.526 -0.0326 -0.5341 -0.1534
 9371TIP3    H149604   6.384   1.717   5.579 -0.6615 -1.1519 -1.4245
 9371TIP3    H249605   6.399   1.846   5.500  0.3305 -0.1526  0.3231
 9372TIP3   OH249606   0.855   0.162  14.876 -0.7579  0.3942  0.0726
 9372TIP3    H149607   0.788   0.192  14.815 -1.6422  0.7139  1.1650
 9372TIP3    H249608   0.807   0.110  14.940 -0.0014  0.8233  1.0114
 9373TIP3   OH249609   6.813   5.456   4.096 -0.3671  0.3749  0.0307
 9373TIP3    H149610   6.855   5.372   4.081 -0.4333  0.1932  0.7993
 9373TIP3    H249611   6.761   5.473   4.017  2.4334  1.4045 -1.7533
 9374TIP3   OH249612   6.389   1.026  14.949  0.1603  0.2017  0.3352
 9374TIP3    H149613   6.370   1.116  14.978  0.1815  0.0689  0.7723
 9374TIP3    H249614   6.409   1.035  14.856  3.6433  1.1930  1.0234
 9375TIP3   OH249615   2.683   6.124   1.295 -0.3914 -0.3876  0.7804
 9375TIP3    H149616   2.712   6.065   1.364  0.1783 -0.2213  0.6902
 9375TIP3    H249617   2.680   6.210   1.337 -1.0852 -0.4475  0.8753
 9376TIP3   OH249618   2.762   5.170   0.305  0.0581  0.6284  0.0604
 9376TIP3    H149619   2.683   5.182   0.254 -1.2218 -3.1249  0.8606
 9376TIP3    H249620   2.745   5.216   0.387 -2.3011 -1.7487  1.0363
 9377TIP3   OH249621   4.166   6.557   1.710  0.1468 -0.3363 -0.3783
 9377TIP3    H149622   4.162   6.652   1.695  0.1361  0.2648  2.7289
 9377TIP3    H249623   4.257   6.540   1.734 -0.1562 -0.8422  0.4611
 9378TIP3   OH249624   0.045   0.134   5.878  0.2400  0.1463 -0.0279
 9378TIP3    H149625   0.020   0.226   5.888  0.2874  0.2878 -1.0905
 9378TIP3    H249626   0.135   0.130   5.908  0.1210  0.3737  0.3655
 9379TIP3   OH249627   5.542   1.859   2.978 -0.1112  0.6034 -0.1950
 9379TIP3    H149628   5.447   1.857   2.982 -0.1234  0.1535 -0.5967
 9379TIP3    H249629   5.562   1.852   2.885  0.2946  1.7290 -0.2018
 9380TIP3   OH249630   1.022   4.437   6.484 -0.1999  0.1546  0.2777
 9380TIP3    H149631   1.096   4.380   6.506 -0.8042 -0.4595  0.7579
 9380TIP3    H249632   1.060   4.505   6.428  1.1781  1.1208  2.2726
 9381TIP3   OH249633   2.752   3.404   1.880  0.8772 -0.2373 -0.2905
 9381TIP3    H149634   2.810   3.480   1.879  0.2298  0.2758  0.2206
 9381TIP3    H249635   2.786   3.350   1.952  2.4093 -1.3231 -1.7386
 9382TIP3   OH249636   6.063   2.663  11.853  0.2508 -0.0072  0.2271
 9382TIP3    H149637   6.054   2.696  11.942  0.9071 -0.1494  0.3521
 9382TIP3    H249638   6.030   2.573  11.857 -1.3247  0.5264 -0.0646
 9383TIP3   OH249639   4.018   3.350   2.023 -0.1543  0.1162 -0.3629
 9383TIP3    H149640   4.041   3.431   2.069  1.0439  0.3072 -1.2628
 9383TIP3    H249641   4.101   3.310   2.001 -0.7261 -1.5116  0.2527
 9384TIP3   OH249642   2.202   2.786   4.409 -0.7009 -0.1650 -0.5039
 9384TIP3    H149643   2.280   2.780   4.353 -0.6697  2.2563 -0.8123
 9384TIP3    H249644   2.215   2.718   4.475  2.9573  1.6848  0.9806
 9385TIP3   OH249645   3.859   0.778   5.220  0.3411  0.2430  0.0706
 9385TIP3    H149646   3.928   0.844   5.215  1.6453 -1.1493 -1.6784
 9385TIP3    H249647   3.906   0.695   5.225 -1.2493 -0.6484  1.0264
 9386TIP3   OH249648   5.159   3.647  13.191  0.2615 -0.3324 -0.3516
 9386TIP3    H149649   5.123   3.615  13.108  0.8884  1.6124 -1.4556
 9386TIP3    H249650   5.082   3.679  13.239  0.1102  1.0570 -1.4160
 9387TIP3   OH249651   6.008   0.999   1.814  0.5049  0.1050  0.1385
 9387TIP3    H149652   6.004   0.907   1.787  0.6325  0.4026 -0.9361
 9387TIP3    H249653   6.058   0.999   1.896  0.0148 -0.8425  0.4448
 9388TIP3   OH249654   1.603   1.766   0.646  0.1457  0.0377 -0.3309
 9388TIP3    H149655   1.618   1.776   0.740 -0.7042  1.7262 -0.3323
 9388TIP3    H249656   1.688   1.739   0.611  0.3763 -0.9927  0.9452
 9389TIP3   OH249657   4.870   2.746   3.318 -0.0692  0.8033 -0.1099
 9389TIP3    H149658   4.927   2.673   3.296 -0.9377  0.6226 -1.9195
 9389TIP3    H249659   4.838   2.726   3.406 -0.3909 -1.0821 -0.6108
 9390TIP3   OH249660   5.178   4.113   5.094  0.5406  0.3026 -0.4695
 9390TIP3    H149661   5.209   4.198   5.065 -0.5110  0.2524 -1.8248
 9390TIP3    H249662   5.083   4.116   5.083  0.4370 -0.8899 -0.1317
 9391TIP3   OH249663   5.060   2.374  13.316  0.5760 -0.0512 -0.2091
 9391TIP3    H149664   5.140   2.327  13.295  0.2063  0.2759 -2.7079
 9391TIP3    H249665   5.000   2.307  13.348  1.5726 -0.4314  0.8858
 9392TIP3   OH249666   0.990   3.992  12.070  0.3170 -0.5075 -0.6991
 9392TIP3    H149667   1.028   3.984  11.983  1.5958 -0.0264 -0.2055
 9392TIP3    H249668   0.993   4.085  12.090  0.1316 -0.6228 -0.1023
 9393TIP3   OH249669   4.777   3.183   0.822 -0.2190  0.3123 -0.1301
 9393TIP3    H149670   4.830   3.111   0.789 -1.7102 -1.1899  0.5711
 9393TIP3    H249671   4.724   3.210   0.747 -3.3911 -2.8977  0.6602
 9394TIP3   OH249672   0.064   2.381   5.094  0.3225  0.9776 -0.5219
 9394TIP3    H149673   0.030   2.350   5.178  0.7162  2.0326  0.0443
 9394TIP3    H249674   0.023   2.324   5.029  0.9791 -0.6960  0.4584
 9395TIP3   OH249675   5.824   1.190  15.046  0.5959 -0.3320  0.6881
 9395TIP3    H149676   5.742   1.210  15.090 -0.3300 -0.3920 -0.9314
 9395TIP3    H249677   5.840   1.097  15.066  0.4102 -0.2577  1.2043
 9396TIP3   OH249678   3.930   3.105  12.748  0.7357  0.8000  0.0033
 9396TIP3    H149679   3.976   3.187  12.765  1.0269  0.6027  0.1686
 9396TIP3    H249680   3.895   3.115  12.659 -0.2326  1.5734  0.4527
 9397TIP3   OH249681   2.661   5.821   3.784 -0.0247  0.9038  0.4602
 9397TIP3    H149682   2.685   5.744   3.732 -0.8396 -0.4525  1.9639
 9397TIP3    H249683   2.672   5.895   3.725  1.5507 -0.2775 -0.8270
 9398TIP3   OH249684   2.659   3.603   0.645 -0.0754  0.3853 -0.1555
 9398TIP3    H149685   2.723   3.591   0.574  1.7770 -1.8193  1.6991
 9398TIP3    H249686   2.586   3.546   0.620  0.8534 -0.9129 -0.0506
 9399TIP3   OH249687   2.471   0.701   3.202 -0.6279 -0.0798 -0.2974
 9399TIP3    H149688   2.457   0.739   3.115 -0.5163  0.3389 -0.1363
 9399TIP3    H249689   2.488   0.776   3.258  2.9506 -0.5096 -0.5669
 9400TIP3   OH249690   5.702   3.801  16.884  0.0115 -0.1258 -0.3321
 9400TIP3    H149691   5.734   3.740  16.950  2.6923 -1.3793 -2.5822
 9400TIP3    H249692   5.774   3.862  16.870 -1.0140  0.9652 -1.1710
 9401TIP3   OH249693   2.510   2.086   0.504  0.6823  0.0054  0.3415
 9401TIP3    H149694   2.442   2.101   0.570  0.2928 -0.2803  0.0107
 9401TIP3    H249695   2.592   2.096   0.552  0.5029  2.9499  0.2322
 9402TIP3   OH249696   2.289   4.399  16.630  0.6148  0.9736 -0.2527
 9402TIP3    H149697   2.369   4.410  16.578  0.2802 -0.2243 -1.0777
 9402TIP3    H249698   2.313   4.334  16.697  0.3457  0.6178 -0.4978
 9403TIP3   OH249699   5.283   2.239   3.817 -0.2632  0.6096 -0.6713
 9403TIP3    H149700   5.307   2.315   3.869 -0.0470  0.5449 -0.6742
 9403TIP3    H249701   5.235   2.183   3.878  0.2430  0.3989 -0.4515
 9404TIP3   OH249702   1.304   6.610  13.715 -0.4354 -0.2606  0.2060
 9404TIP3    H149703   1.359   6.634  13.640 -0.2019 -0.5815  0.2726
 9404TIP3    H249704   1.360   6.625  13.791 -0.6646  0.0449  0.3162
 9405TIP3   OH249705   1.268   3.375   2.526  0.1520  0.2738  0.5321
 9405TIP3    H149706   1.255   3.455   2.475  0.7059 -0.1408 -0.2979
 9405TIP3    H249707   1.188   3.366   2.578 -1.1589 -0.1177 -1.4412
 9406TIP3   OH249708   2.672   3.332   2.593 -0.5030 -0.3343 -0.1358
 9406TIP3    H149709   2.590   3.315   2.548 -0.4531  1.2324 -0.8478
 9406TIP3    H249710   2.691   3.249   2.638 -2.4363 -0.7352  0.0396
 9407TIP3   OH249711   0.515   3.270  15.678 -0.4477 -0.0812  0.2965
 9407TIP3    H149712   0.522   3.207  15.749  0.5972  0.6813  0.9025
 9407TIP3    H249713   0.550   3.352  15.714  0.6169  0.1860 -1.2354
 9408TIP3   OH249714   4.810   6.330   2.214  0.1547  0.7865  0.2067
 9408TIP3    H149715   4.814   6.425   2.209 -0.4488  0.7467 -2.1959
 9408TIP3    H249716   4.722   6.312   2.248 -0.8607  1.1246 -2.0594
 9409TIP3   OH249717   2.091   5.506   1.000 -0.0302  0.7339 -0.1837
 9409TIP3    H149718   2.100   5.529   0.908 -2.8481  1.1954 -0.4382
 9409TIP3    H249719   2.020   5.562   1.032 -0.3770 -0.6996  1.7791
 9410TIP3   OH249720   0.512   6.033   0.628  0.1887  0.0069 -0.5780
 9410TIP3    H149721   0.561   6.095   0.683 -0.1866 -1.2138  1.2183
 9410TIP3    H249722   0.511   5.952   0.679 -1.0117 -0.9145 -1.9969
 9411TIP3   OH249723   6.154   4.443  11.248  0.6727 -0.3515  0.7641
 9411TIP3    H149724   6.071   4.447  11.297 -0.0987 -1.5518 -0.3736
 9411TIP3    H249725   6.164   4.530  11.211 -1.1027 -0.6764 -0.6222
 9412TIP3   OH249726   3.040   3.141  15.301  0.1602 -0.3484  0.0951
 9412TIP3    H149727   2.954   3.180  15.288 -0.1255 -0.9930  0.0129
 9412TIP3    H249728   3.091   3.209  15.346 -0.0073  0.4968 -0.9671
 9413TIP3   OH249729   3.234   0.263   4.182  0.0078  0.2822  0.4291
 9413TIP3    H149730   3.225   0.198   4.252  1.8891 -0.4338  0.0527
 9413TIP3    H249731   3.306   0.320   4.211  0.8771 -0.0790 -0.9388
 9414TIP3   OH249732   1.676   2.882   4.232  0.3371 -0.1988 -0.7035
 9414TIP3    H149733   1.769   2.895   4.251  0.2026 -0.3989  0.1593
 9414TIP3    H249734   1.673   2.806   4.174  0.6083 -1.6738  1.0911
 9415TIP3   OH249735   0.104   3.832   5.946  0.3201  0.4085  0.5858
 9415TIP3    H149736   0.072   3.912   5.986 -0.0312  0.9363 -0.6879
 9415TIP3    H249737   0.077   3.762   6.005 -0.2765  1.1390  1.1898
 9416TIP3   OH249738   0.850   4.065  14.298 -0.5731  0.2359 -0.8116
 9416TIP3    H149739   0.771   4.116  14.312  0.1351  0.7689  1.7262
 9416TIP3    H249740   0.901   4.077  14.378  1.1601 -1.7387 -1.5261
 9417TIP3   OH249741   1.218   2.215  10.938 -0.1257 -0.3003 -0.1181
 9417TIP3    H149742   1.165   2.137  10.923 -0.2002 -0.3135  0.2126
 9417TIP3    H249743   1.231   2.218  11.033 -1.7082  1.1153  0.0967
 9418TIP3   OH249744   1.895   6.395   4.569 -0.3910 -0.5342  0.1608
 9418TIP3    H149745   1.940   6.422   4.650  1.6229 -0.4325 -0.9340
 9418TIP3    H249746   1.873   6.477   4.526 -0.3609 -0.5927  0.0340
 9419TIP3   OH249747   2.501   0.712  14.781  0.5673 -0.4888  0.1291
 9419TIP3    H149748   2.458   0.780  14.834  0.1858 -0.7712  0.1850
 9419TIP3    H249749   2.502   0.748  14.692  1.8381  0.2908  0.4300
 9420TIP3   OH249750   4.074   3.335   0.280 -0.1378 -0.0330 -0.1492
 9420TIP3    H149751   4.169   3.324   0.283  0.0762  1.0251 -1.8307
 9420TIP3    H249752   4.044   3.268   0.218 -0.9510 -2.5253  2.6957
 9421TIP3   OH249753   0.317   0.014  13.183  0.1674  0.1326  0.5613
 9421TIP3    H149754   0.369  -0.066  13.188 -0.5771 -0.6185 -2.0758
 9421TIP3    H249755   0.249  -0.006  13.119  1.0556  3.4286 -1.6747
 9422TIP3   OH249756   6.035   6.445  13.317 -0.0361 -0.1958 -0.5675
 9422TIP3    H149757   6.097   6.501  13.363 -1.0375 -0.6318  1.4036
 9422TIP3    H249758   5.998   6.501  13.249  0.8235  0.7549 -0.2826
 9423TIP3   OH249759   5.679   2.031  15.634 -0.3981  0.3354 -0.6019
 9423TIP3    H149760   5.729   2.076  15.702 -0.0641 -1.8818  0.7336
 9423TIP3    H249761   5.595   2.010  15.676 -0.3282 -0.7397 -0.9513
 9424TIP3   OH249762   5.629   0.393   6.479 -0.3380 -0.7061 -0.3321
 9424TIP3    H149763   5.547   0.345   6.467  0.0968 -1.3554 -0.7881
 9424TIP3    H249764   5.666   0.400   6.391  1.1831 -2.4140  0.1251
 9425TIP3   OH249765   1.399   0.419   4.524 -0.0769  0.6835  0.1656
 9425TIP3    H149766   1.346   0.459   4.593  0.6136 -0.3646  1.3409
 9425TIP3    H249767   1.360   0.333   4.510 -0.2104  0.8844 -0.7743
 9426TIP3   OH249768   6.563   0.381  14.606  0.6062 -0.2769  0.7839
 9426TIP3    H149769   6.471   0.367  14.626  0.4047  0.0383  0.1155
 9426TIP3    H249770   6.568   0.471  14.572  0.5189 -1.3828 -2.5745
 9427TIP3   OH249771   4.077   6.743   4.289  0.4634 -0.1234 -0.1432
 9427TIP3    H149772   4.142   6.810   4.270  0.7756  0.2269  1.9341
 9427TIP3    H249773   4.122   6.660   4.274  1.3965  0.1159  1.2188
 9428TIP3   OH249774   2.582   0.557   1.718 -0.0464  0.4011 -0.2480
 9428TIP3    H149775   2.495   0.573   1.756  0.5136 -0.1687  1.3714
 9428TIP3    H249776   2.616   0.644   1.696 -0.7341  0.6822 -0.2169
 9429TIP3   OH249777   3.402   0.458  12.891 -0.1911  0.2223  0.1098
 9429TIP3    H149778   3.476   0.428  12.944  0.8488  1.2433 -0.7280
 9429TIP3    H249779   3.352   0.514  12.951 -1.1180 -1.5526  1.1057
 9430TIP3   OH249780   3.251   3.210   5.318 -0.1012  0.1624  0.5639
 9430TIP3    H149781   3.222   3.244   5.403 -1.2844  1.0100 -0.1526
 9430TIP3    H249782   3.268   3.288   5.266  2.7950 -0.2981  0.6660
 9431TIP3   OH249783   1.449   6.639   0.227  0.0318 -0.0971 -0.2511
 9431TIP3    H149784   1.404   6.698   0.287 -0.7450 -0.6451 -0.2718
 9431TIP3    H249785   1.406   6.554   0.239  2.7696 -1.3756  1.6652
 9432TIP3   OH249786   0.552   3.635   5.997 -0.2578 -0.0366  0.0136
 9432TIP3    H149787   0.534   3.614   6.089 -0.9705  0.1160 -0.0924
 9432TIP3    H249788   0.644   3.662   5.997 -0.1027 -0.5382  0.5951
 9433TIP3   OH249789   0.206   4.433  13.354  0.2204  0.3825  0.0311
 9433TIP3    H149790   0.173   4.360  13.303  0.3741  0.0461  0.4105
 9433TIP3    H249791   0.158   4.509  13.320 -1.3103 -0.1482  0.8674
 9434TIP3   OH249792   1.074   1.012  14.536  0.4085  0.4786  0.1988
 9434TIP3    H149793   1.124   1.053  14.607 -0.0445  1.9824 -0.3038
 9434TIP3    H249794   0.983   1.037  14.554  0.2029  0.2362 -0.4963
 9435TIP3   OH249795   3.685   4.417   3.584  0.4095 -0.4164 -0.2572
 9435TIP3    H149796   3.748   4.410   3.512  0.2633 -0.4956 -0.3761
 9435TIP3    H249797   3.611   4.363   3.557  0.3629 -0.4633 -0.0386
 9436TIP3   OH249798   1.698   6.337  13.721  0.2073  0.1344  0.2994
 9436TIP3    H149799   1.721   6.333  13.814  0.3560 -1.2442  0.2110
 9436TIP3    H249800   1.764   6.283  13.677  0.5541  1.3143 -0.7053
 9437TIP3   OH249801   4.974   0.277  12.437 -0.0665 -0.4449 -0.1951
 9437TIP3    H149802   4.973   0.189  12.475  0.1132 -0.3900 -0.0618
 9437TIP3    H249803   4.886   0.288  12.401 -0.0323 -0.7488 -0.3736
 9438TIP3   OH249804   3.405   5.850   5.269 -0.0410  0.7118 -0.0957
 9438TIP3    H149805   3.348   5.915   5.309 -0.0195 -0.0648  1.2445
 9438TIP3    H249806   3.370   5.766   5.297  0.9420  0.1897 -0.3727
 9439TIP3   OH249807   1.048   2.740  14.463  0.0254  0.1396  0.1871
 9439TIP3    H149808   0.987   2.790  14.409  0.5250  1.0445  0.4392
 9439TIP3    H249809   1.026   2.764  14.553 -0.6432 -1.1748  0.4022
 9440TIP3   OH249810   6.702   2.280   0.326  0.0598  0.0391 -0.1197
 9440TIP3    H149811   6.769   2.288   0.257 -0.3703 -0.2186 -0.5721
 9440TIP3    H249812   6.747   2.307   0.406  0.0531  2.2500 -0.7891
 9441TIP3   OH249813   3.204   1.066   4.072 -0.0160  0.3246 -0.1066
 9441TIP3    H149814   3.276   1.031   4.019 -0.0839 -0.6734  0.4442
 9441TIP3    H249815   3.246   1.098   4.151  0.0212  1.3543 -0.5217
 9442TIP3   OH249816   4.708   0.114  12.109  0.1112  0.2102  0.2105
 9442TIP3    H149817   4.657   0.046  12.066 -3.2782  3.1055 -0.8377
 9442TIP3    H249818   4.766   0.149  12.041 -0.6278  0.5667 -0.2512
 9443TIP3   OH249819   1.427   1.029  11.110  0.0894  0.0228  0.1731
 9443TIP3    H149820   1.458   1.022  11.200 -0.2670 -1.1331  0.2241
 9443TIP3    H249821   1.339   0.990  11.112  0.4566 -0.9000 -0.8625
 9444TIP3   OH249822   1.383   0.424  11.871  0.0809 -1.0301  0.1752
 9444TIP3    H149823   1.427   0.341  11.890  1.7896 -0.4160 -0.8258
 9444TIP3    H249824   1.375   0.425  11.776  0.7452  0.2329  0.1030
 9445TIP3   OH249825   4.649   6.560   0.213 -0.0193 -0.2423 -0.7500
 9445TIP3    H149826   4.585   6.606   0.267 -0.5858 -2.0746  0.2533
 9445TIP3    H249827   4.677   6.624   0.148  0.5531  2.0343  1.5740
 9446TIP3   OH249828   4.773   6.717   4.171  0.3390  0.7856  0.1249
 9446TIP3    H149829   4.757   6.789   4.233 -1.9680  1.2437 -0.9140
 9446TIP3    H249830   4.743   6.751   4.087  3.6097  0.2486 -1.3935
 9447TIP3   OH249831   0.996   2.051   1.986 -0.1436 -0.0202 -0.0696
 9447TIP3    H149832   0.988   2.143   1.960  2.1374  0.0650 -0.7035
 9447TIP3    H249833   1.065   2.017   1.929 -0.5497 -1.9755  0.5625
 9448TIP3   OH249834   1.036   1.749   3.347  0.0933 -0.0027  0.8797
 9448TIP3    H149835   0.956   1.793   3.375  1.4801  1.0248  3.5535
 9448TIP3    H249836   1.072   1.805   3.278 -1.9746 -1.1075 -1.2432
 9449TIP3   OH249837   2.406   3.850  13.591 -0.3317 -0.7296  0.0968
 9449TIP3    H149838   2.362   3.934  13.579 -2.5627 -1.9392 -0.7303
 9449TIP3    H249839   2.482   3.855  13.533 -0.5012  0.6219 -0.0596
 9450TIP3   OH249840   2.555   5.967   1.075 -0.6615 -0.9438 -0.2023
 9450TIP3    H149841   2.602   6.010   1.145  1.5357 -2.1170 -0.8687
 9450TIP3    H249842   2.607   5.984   0.996 -1.8763 -1.4864 -1.1667
 9451TIP3   OH249843   1.817   3.135   5.225 -0.5035 -0.0189 -0.0546
 9451TIP3    H149844   1.857   3.094   5.148 -0.1145 -0.3735  0.3354
 9451TIP3    H249845   1.828   3.071   5.295 -1.9563 -0.2221  0.0194
 9452TIP3   OH249846   5.388   6.180   5.537 -0.3097 -0.5330  0.0633
 9452TIP3    H149847   5.462   6.233   5.510 -1.1453  0.8753  0.4046
 9452TIP3    H249848   5.342   6.234   5.602 -0.4472 -2.2459  1.4723
 9453TIP3   OH249849   6.797   1.847  15.184 -0.1462 -0.4719  0.5176
 9453TIP3    H149850   6.827   1.840  15.093 -0.8220 -2.3510  0.3971
 9453TIP3    H249851   6.730   1.916  15.181  0.2669 -0.0793 -0.2687
 9454TIP3   OH249852   4.574   4.857   0.503 -0.4002 -0.3791 -0.7031
 9454TIP3    H149853   4.613   4.797   0.440  0.1698 -1.1051  0.3146
 9454TIP3    H249854   4.634   4.932   0.505 -0.5857 -0.2122 -1.2397
 9455TIP3   OH249855   1.706   0.497   3.290  0.3807 -0.5511  0.3082
 9455TIP3    H149856   1.626   0.462   3.328  0.1195 -0.8681 -0.4929
 9455TIP3    H249857   1.723   0.440   3.215  1.9435 -1.1369  1.0646
 9456TIP3   OH249858   5.940   0.946  11.843  0.1216  0.1391 -0.6022
 9456TIP3    H149859   6.030   0.975  11.857 -0.4631  2.2081 -0.8145
 9456TIP3    H249860   5.912   0.992  11.764 -1.4474  0.3753  0.0554
 9457TIP3   OH249861   6.608   4.149  14.237 -0.1640  0.2537  0.3463
 9457TIP3    H149862   6.677   4.131  14.301  0.8441 -0.6751 -0.9606
 9457TIP3    H249863   6.655   4.175  14.158 -1.4048  1.9397  0.1126
 9458TIP3   OH249864   2.295   1.890  12.487  0.4519 -0.1645  0.5384
 9458TIP3    H149865   2.267   1.862  12.574  1.4308 -0.1657  0.8673
 9458TIP3    H249866   2.264   1.822  12.428 -1.0104  0.2846  0.7563
 9459TIP3   OH249867   3.529   5.284  12.461 -0.4557 -0.0966 -0.1286
 9459TIP3    H149868   3.456   5.224  12.446  0.3241 -0.8963 -0.8391
 9459TIP3    H249869   3.542   5.328  12.377 -0.3037  0.2529  0.0753
 9460TIP3   OH249870   4.983   0.342   3.950  0.3977  0.0703  0.7903
 9460TIP3    H149871   5.055   0.282   3.927 -0.5368 -0.9771  0.5175
 9460TIP3    H249872   4.923   0.337   3.876 -0.1105  0.7032  1.1520
 9461TIP3   OH249873   1.176   0.707  15.036  0.3503  0.0251  0.0572
 9461TIP3    H149874   1.237   0.759  14.983  1.0903  0.8220  1.6114
 9461TIP3    H249875   1.230   0.673  15.107 -0.3609 -2.0027 -0.2912
 9462TIP3   OH249876   4.511   2.661   3.493  0.2448 -0.4133  0.2607
 9462TIP3    H149877   4.501   2.663   3.397  1.5585  0.8228  0.1105
 9462TIP3    H249878   4.589   2.607   3.507 -0.0811 -0.7811  0.6484
 9463TIP3   OH249879   5.345   2.669  12.185 -0.6637  0.2863 -0.3179
 9463TIP3    H149880   5.435   2.665  12.153 -0.2142  1.4055  0.7063
 9463TIP3    H249881   5.353   2.647  12.278 -1.5088  0.0263 -0.3039
 9464TIP3   OH249882   6.312   6.352  11.574  0.0478 -0.3575 -0.8000
 9464TIP3    H149883   6.244   6.411  11.609 -0.7532 -0.9587 -1.3076
 9464TIP3    H249884   6.360   6.323  11.652 -0.2325  0.1368 -0.4355
 9465TIP3   OH249885   3.882   3.362  11.711  1.0040 -0.5841  0.2529
 9465TIP3    H149886   3.837   3.412  11.778  0.7984 -0.2861 -0.1038
 9465TIP3    H249887   3.971   3.353  11.743  1.4684  1.3159 -0.3541
 9466TIP3   OH249888   2.102   1.484   3.640 -0.2581 -0.1193  0.2850
 9466TIP3    H149889   2.111   1.524   3.726  0.0989  1.1113 -0.3004
 9466TIP3    H249890   2.011   1.502   3.615  0.3481  1.8934 -0.6865
 9467TIP3   OH249891   6.392   1.640  15.579 -0.1787  0.0043 -0.6386
 9467TIP3    H149892   6.471   1.661  15.628 -0.6169 -1.2009  0.6346
 9467TIP3    H249893   6.424   1.618  15.491  0.7369  0.9704 -0.5663
 9468TIP3   OH249894   2.546   2.392  14.844 -0.0209 -0.2058 -0.2453
 9468TIP3    H149895   2.544   2.487  14.837 -0.5464 -0.1609  0.4245
 9468TIP3    H249896   2.550   2.375  14.938  1.3318 -0.8388 -0.3884
 9469TIP3   OH249897   2.779   6.179  16.750 -0.4428  0.0874  0.6989
 9469TIP3    H149898   2.742   6.135  16.674  0.3807  0.9619 -0.2378
 9469TIP3    H249899   2.748   6.128  16.825 -1.9307 -0.3308 -0.1578
 9470TIP3   OH249900   2.870   4.114  13.762 -0.3282 -0.3821  0.2994
 9470TIP3    H149901   2.793   4.065  13.735  0.3403 -1.0361 -0.4711
 9470TIP3    H249902   2.844   4.156  13.844 -1.2974 -1.0827  0.3715
 9471TIP3   OH249903   3.070   4.388  11.177  0.0597 -0.1411 -0.1670
 9471TIP3    H149904   3.036   4.443  11.247  1.7728  0.1664  0.4828
 9471TIP3    H249905   3.136   4.442  11.134 -0.6423 -0.4911 -1.7439
 9472TIP3   OH249906   1.524   0.522  12.290 -0.4564 -0.9914  0.4396
 9472TIP3    H149907   1.522   0.614  12.263 -0.0052 -1.4446 -1.2201
 9472TIP3    H249908   1.432   0.495  12.293 -0.5098 -1.0540 -1.1701
 9473TIP3   OH249909   5.523   4.872   3.597  0.7383  0.4809 -0.0492
 9473TIP3    H149910   5.527   4.788   3.641  0.6702  0.6246  0.2368
 9473TIP3    H249911   5.534   4.852   3.504 -0.4883  0.0347 -0.1097
 9474TIP3   OH249912   0.230   3.793  17.027  0.2446  0.1335 -0.1172
 9474TIP3    H149913   0.139   3.776  17.049 -0.3632 -0.8721 -3.0432
 9474TIP3    H249914   0.278   3.772  17.107 -2.0250  0.5170  1.4387
 9475TIP3   OH249915   4.902   4.672   4.143 -0.4583  0.0204 -0.3336
 9475TIP3    H149916   4.927   4.761   4.118 -1.2718  1.0414  2.1781
 9475TIP3    H249917   4.820   4.682   4.191  0.6696 -1.6981  2.2261
 9476TIP3   OH249918   0.665   0.400  13.977 -0.3097 -0.3661 -0.1949
 9476TIP3    H149919   0.749   0.426  13.939 -1.8759  0.4693 -3.5011
 9476TIP3    H249920   0.650   0.311  13.943 -1.0070 -0.2706 -0.1551
 9477TIP3   OH249921   0.837   0.538   0.132 -0.0106 -0.2017  0.2689
 9477TIP3    H149922   0.829   0.489   0.050 -2.8224  0.3428  0.1123
 9477TIP3    H249923   0.926   0.521   0.162  0.9551 -0.8378 -2.6279
 9478TIP3   OH249924   4.754   1.091  10.291  0.3720  0.0945  0.1658
 9478TIP3    H149925   4.829   1.150  10.293  0.1565  0.4359 -0.9663
 9478TIP3    H249926   4.791   1.004  10.301  0.8845  0.2912  0.0047
 9479TIP3   OH249927   2.065   3.661  15.379 -0.0819 -0.2439  0.1971
 9479TIP3    H149928   1.976   3.686  15.355 -0.9141 -2.5319  0.6956
 9479TIP3    H249929   2.056   3.617  15.464  1.5563 -0.3805  0.3343
 9480TIP3   OH249930   6.547   4.852  15.456 -0.0981 -0.2285 -0.2852
 9480TIP3    H149931   6.634   4.892  15.450  0.7931 -1.7868  1.3301
 9480TIP3    H249932   6.492   4.920  15.492  0.3380  0.8942 -1.6402
 9481TIP3   OH249933   0.057   3.448  12.419  0.6687 -0.4170 -0.6129
 9481TIP3    H149934  -0.023   3.493  12.391 -0.6240 -2.0002  0.3474
 9481TIP3    H249935   0.128   3.498  12.380 -0.8256  0.5260 -2.2435
 9482TIP3   OH249936   3.011   0.555  11.783 -0.7384  0.3565  0.1126
 9482TIP3    H149937   3.091   0.579  11.830 -0.5176 -0.8974  0.4335
 9482TIP3    H249938   2.964   0.498  11.845 -1.2038 -0.0422 -0.5978
 9483TIP3   OH249939   4.172   2.530  12.910 -0.3452  0.5523  0.0888
 9483TIP3    H149940   4.226   2.544  12.987 -0.2789  1.6020 -0.1208
 9483TIP3    H249941   4.172   2.436  12.896 -1.0937  0.2394  1.8816
 9484TIP3   OH249942   3.521   0.980  11.552  0.2012  0.1965  0.3482
 9484TIP3    H149943   3.443   1.022  11.590  1.7563  2.3501  1.4011
 9484TIP3    H249944   3.539   1.031  11.473  1.0841  0.3721  0.6501
 9485TIP3   OH249945   4.190   1.451  16.965  0.2403  0.2358 -0.1540
 9485TIP3    H149946   4.239   1.525  17.000  1.3807 -0.0989 -0.9867
 9485TIP3    H249947   4.099   1.472  16.982  0.6540  0.9795  1.2413
 9486TIP3   OH249948   2.084   0.404  13.838  0.1396  0.0552  0.0107
 9486TIP3    H149949   1.998   0.363  13.840  0.1333  0.0398 -0.5158
 9486TIP3    H249950   2.067   0.496  13.819 -0.1363  1.1374  4.3382
 9487TIP3   OH249951   6.682   0.817   4.263 -0.0409 -1.1476 -0.4264
 9487TIP3    H149952   6.600   0.861   4.287  0.9093  1.6699 -1.9202
 9487TIP3    H249953   6.729   0.807   4.346 -0.4847  0.3882  0.0419
 9488TIP3   OH249954   3.300   6.747  15.009  0.2888  0.3894 -0.3458
 9488TIP3    H149955   3.305   6.812  14.939 -0.4605  0.5596 -0.2595
 9488TIP3    H249956   3.207   6.721  15.010  0.5505 -0.5887 -0.2945
 9489TIP3   OH249957   0.554   2.714  12.347 -0.2882  0.1631  0.3728
 9489TIP3    H149958   0.541   2.670  12.431 -1.2812  1.4743  0.9478
 9489TIP3    H249959   0.556   2.808  12.369  1.6196  0.4486 -0.8230
 9490TIP3   OH249960   2.032   3.322  14.066 -0.1502  0.4367  0.5808
 9490TIP3    H149961   2.052   3.386  14.135  0.0315 -0.0269  0.9657
 9490TIP3    H249962   2.058   3.366  13.985  0.0561  0.8180  0.8469
 9491TIP3   OH249963   1.850   6.023   0.705  0.3180 -0.4669 -0.2860
 9491TIP3    H149964   1.886   6.025   0.617 -0.4655 -1.1660 -0.6442
 9491TIP3    H249965   1.819   5.933   0.716 -2.6258  0.4058 -0.5822
 9492TIP3   OH249966   0.789   5.712  12.759 -0.6032 -0.0731  0.2358
 9492TIP3    H149967   0.822   5.667  12.837  1.6020 -0.4674 -0.8487
 9492TIP3    H249968   0.832   5.797  12.759 -1.4592  0.3710  0.0294
 9493TIP3   OH249969   2.686   2.331   3.127 -0.6227  0.1220 -0.5284
 9493TIP3    H149970   2.691   2.402   3.191 -0.4462 -0.6312  0.3174
 9493TIP3    H249971   2.673   2.375   3.043  0.0849  1.1795 -0.1020
 9494TIP3   OH249972   0.208   4.456  16.882  0.6483  0.4540 -0.0865
 9494TIP3    H149973   0.170   4.466  16.794 -1.8526  1.9362  1.0776
 9494TIP3    H249974   0.142   4.406  16.930  0.9739  1.5528  1.5415
 9495TIP3   OH249975   1.837   5.086  15.810  0.1794 -0.0342 -0.2982
 9495TIP3    H149976   1.932   5.073  15.807  0.2080 -0.0437  0.4742
 9495TIP3    H249977   1.802   5.002  15.842 -0.0111  0.2479  0.2562
 9496TIP3   OH249978   1.483   2.375   3.052  0.3481 -0.2303 -0.0466
 9496TIP3    H149979   1.478   2.281   3.033 -1.2613 -0.5815  1.8205
 9496TIP3    H249980   1.414   2.414   2.998  0.8811 -0.1091 -0.6644
 9497TIP3   OH249981   3.004   3.724  16.438  0.3886 -0.3633  0.0723
 9497TIP3    H149982   2.938   3.781  16.397  0.4319  0.1899  0.7595
 9497TIP3    H249983   3.009   3.648  16.380 -0.3793 -0.1107 -0.3385
 9498TIP3   OH249984   6.115   3.552   6.005  0.2439  0.0632 -0.1842
 9498TIP3    H149985   6.182   3.542   6.073 -0.6811 -2.9706  0.4211
 9498TIP3    H249986   6.042   3.595   6.050  0.4046 -0.0419  0.1857
 9499TIP3   OH249987   0.742   0.982   3.274 -0.6321  0.3419  0.2012
 9499TIP3    H149988   0.804   0.920   3.234 -0.2627  0.4790  0.5501
 9499TIP3    H249989   0.675   0.996   3.207  0.0451  0.6730 -0.4306
 9500TIP3   OH249990   6.411   5.464  13.930  0.0651 -0.3897 -0.3491
 9500TIP3    H149991   6.365   5.546  13.911  0.6032 -0.0898 -0.3806
 9500TIP3    H249992   6.347   5.396  13.911 -0.5429  0.0396  0.1372
 9501TIP3   OH249993   3.655   5.406  14.325  0.6355  0.0409  0.3739
 9501TIP3    H149994   3.681   5.449  14.406  1.8508  0.3672 -0.1676
 9501TIP3    H249995   3.559   5.415  14.323  0.7065  1.1969  1.1081
 9502TIP3   OH249996   5.638   3.305   0.392 -0.6483  0.4800 -0.2115
 9502TIP3    H149997   5.552   3.299   0.433 -0.7446 -2.0219 -0.6285
 9502TIP3    H249998   5.644   3.227   0.337  1.4783  1.1413 -1.0215
 9503TIP3   OH249999   0.524   0.232  17.140  0.3117 -0.0101  0.4808
 9503TIP3    H150000   0.493   0.270  17.222  0.1936 -0.7537  0.7866
 9503TIP3    H250001   0.580   0.299  17.102 -0.9601  1.0244  0.3390
 9504TIP3   OH250002   4.827   5.623  13.992 -0.5825  0.9779 -0.4848
 9504TIP3    H150003   4.891   5.577  13.939 -0.6243 -0.1495  0.3934
 9504TIP3    H250004   4.879   5.686  14.042 -0.3111  0.8623 -0.6159
 9505TIP3   OH250005   2.594   3.614  14.228 -0.3398 -0.5338 -0.1015
 9505TIP3    H150006   2.513   3.593  14.182 -1.0241  0.6641  0.5065
 9505TIP3    H250007   2.655   3.642  14.160  0.1547 -2.9878 -0.7718
 9506TIP3   OH250008   6.268   4.730  12.605  0.1424 -0.3077 -0.2793
 9506TIP3    H150009   6.283   4.655  12.548 -1.6751 -1.0716  0.1783
 9506TIP3    H250010   6.341   4.729  12.667  0.1242 -1.7498 -0.2537
 9507TIP3   OH250011   4.321   1.179   0.394 -0.1303 -0.0731 -0.1017
 9507TIP3    H150012   4.302   1.273   0.394 -0.1739 -0.0763  0.4425
 9507TIP3    H250013   4.325   1.155   0.301  1.3929  0.7673 -0.2891
 9508TIP3   OH250014   4.381   5.984  11.408  0.7329 -0.1004  0.6226
 9508TIP3    H150015   4.311   6.050  11.404 -1.1676 -1.9470  1.4101
 9508TIP3    H250016   4.428   6.004  11.489  1.4334  1.3993 -0.1107
 9509TIP3   OH250017   0.092   3.150  14.504  0.0425  0.4158 -0.0488
 9509TIP3    H150018   0.122   3.111  14.586  0.1604  0.4697 -0.0661
 9509TIP3    H250019  -0.003   3.154  14.513  0.1749  3.6930  1.6027
 9510TIP3   OH250020   1.277   2.988   0.345  0.1906 -0.4006 -0.1341
 9510TIP3    H150021   1.274   2.906   0.296 -2.2439 -0.3742 -0.1418
 9510TIP3    H250022   1.318   3.050   0.285  1.8402 -1.4963 -0.2166
 9511TIP3   OH250023   6.616   3.231  16.585 -0.2688 -0.4578  0.4795
 9511TIP3    H150024   6.710   3.230  16.567 -0.0602  2.5225  0.9401
 9511TIP3    H250025   6.602   3.158  16.645  1.7417 -0.9697  0.3910
 9512TIP3   OH250026   3.354   6.027  15.424 -0.5331 -0.2050 -0.3750
 9512TIP3    H150027   3.447   6.003  15.418 -0.5823 -0.8290  1.1120
 9512TIP3    H250028   3.355   6.119  15.450 -0.2943 -0.6735  1.3766
 9513TIP3   OH250029   1.613   4.674   1.736  0.0236  0.4766  0.1228
 9513TIP3    H150030   1.636   4.668   1.644  1.0669  0.5375  0.3705
 9513TIP3    H250031   1.579   4.764   1.747 -1.4448  0.0283 -0.4699
 9514TIP3   OH250032   4.123   5.831   2.123  0.1049 -0.0581  0.5804
 9514TIP3    H150033   4.163   5.866   2.044 -0.3318 -1.3169 -0.2305
 9514TIP3    H250034   4.193   5.834   2.189  1.4152 -1.7022 -0.6552
 9515TIP3   OH250035   5.870   4.625   1.895 -0.1776 -0.7476 -0.1541
 9515TIP3    H150036   5.893   4.693   1.831  3.5927 -0.7665  0.9091
 9515TIP3    H250037   5.951   4.612   1.945 -2.2599 -2.4235  3.0662
 9516TIP3   OH250038   2.782   6.703  14.356 -0.3981  0.0854 -0.5251
 9516TIP3    H150039   2.845   6.715  14.285 -2.2113  1.4602 -1.9925
 9516TIP3    H250040   2.731   6.627  14.330 -0.1373 -0.3005  0.0665
 9517TIP3   OH250041   4.656   5.080   2.023  0.2348 -0.0662  0.2898
 9517TIP3    H150042   4.628   5.172   2.029 -0.0780 -0.2022  1.0191
 9517TIP3    H250043   4.636   5.055   1.933  0.8008  0.7320 -0.0679
 9518TIP3   OH250044   2.285   1.367  14.980 -1.0978  0.2091  0.7245
 9518TIP3    H150045   2.256   1.291  15.030  0.0151 -0.7701 -0.0745
 9518TIP3    H250046   2.347   1.332  14.916 -0.2147  1.8563  0.6297
 9519TIP3   OH250047   4.841   6.253   2.531 -0.5007  0.4985  0.0406
 9519TIP3    H150048   4.895   6.328   2.556 -0.1203  0.3650 -0.3653
 9519TIP3    H250049   4.894   6.177   2.555 -0.3330  0.3688 -0.7343
 9520TIP3   OH250050   1.901   6.233  14.506 -0.0107 -0.1375  0.8655
 9520TIP3    H150051   1.988   6.273  14.505 -0.3122  0.5229  0.5727
 9520TIP3    H250052   1.917   6.142  14.533  0.9239 -0.3941 -0.4486
 9521TIP3   OH250053   3.895   6.254  11.859  0.6570  0.1891 -0.8642
 9521TIP3    H150054   3.982   6.279  11.891  0.5370 -0.3247 -0.0933
 9521TIP3    H250055   3.854   6.210  11.934 -0.3325  0.5657 -1.1663
 9522TIP3   OH250056   0.346   6.765   4.372 -0.2043  0.0924 -0.7331
 9522TIP3    H150057   0.413   6.731   4.431  2.0104  0.6514 -2.7689
 9522TIP3    H250058   0.328   6.853   4.404 -3.8170 -1.5789  2.7843
 9523TIP3   OH250059   1.120   1.002  15.881  0.1126  0.2399 -0.0028
 9523TIP3    H150060   1.133   1.046  15.797 -1.8216  0.3832 -0.2651
 9523TIP3    H250061   1.034   0.960  15.873 -0.0773  0.2009  1.8669
 9524TIP3   OH250062   1.496   2.559  12.575  0.1746 -0.5373  0.5548
 9524TIP3    H150063   1.507   2.610  12.495  1.8101 -0.2558  0.9104
 9524TIP3    H250064   1.417   2.593  12.615 -0.3493 -0.2930 -0.6512
 9525TIP3   OH250065   2.694   2.867  10.441 -0.0434 -0.2042  0.2987
 9525TIP3    H150066   2.722   2.822  10.362  0.4004  0.0798  0.2873
 9525TIP3    H250067   2.680   2.957  10.414 -1.8533 -0.5160  0.1192
 9526TIP3   OH250068   5.162   3.227   3.069 -0.3300 -0.3194  0.7892
 9526TIP3    H150069   5.227   3.159   3.088  0.5189  0.5289  1.0349
 9526TIP3    H250070   5.133   3.258   3.154 -1.2296 -0.8451  0.6779
 9527TIP3   OH250071   4.297   5.132   4.830 -0.0456  0.1204  0.0549
 9527TIP3    H150072   4.215   5.179   4.842 -0.5099  0.2090 -2.7600
 9527TIP3    H250073   4.286   5.050   4.879 -1.7173  0.2459 -0.0783
 9528TIP3   OH250074   2.451   4.031  14.079 -0.1675 -0.0768 -0.1394
 9528TIP3    H150075   2.373   4.068  14.038 -1.3700 -1.5674  0.6894
 9528TIP3    H250076   2.495   3.983  14.009  0.5402  1.5188 -0.8297
 9529TIP3   OH250077   6.270   5.817  12.590  0.1816 -0.0699  0.2594
 9529TIP3    H150078   6.206   5.864  12.536  0.2031 -0.6957 -0.3239
 9529TIP3    H250079   6.289   5.738  12.541  1.4120  0.1018  0.4250
 9530TIP3   OH250080   0.633   6.578  11.089  0.0782  0.5785  0.2335
 9530TIP3    H150081   0.718   6.538  11.110 -0.1907  0.5768  1.3896
 9530TIP3    H250082   0.585   6.510  11.042 -0.2806 -0.4085  1.9631
 9531TIP3   OH250083   5.969   6.009   1.347 -0.0978  0.0412 -0.1574
 9531TIP3    H150084   5.934   5.948   1.413 -3.1991 -0.2198 -1.8549
 9531TIP3    H250085   5.903   6.078   1.342  1.3745  1.4490 -1.1954
 9532TIP3   OH250086   6.494   3.949  11.442  0.0090  0.0464  0.2766
 9532TIP3    H150087   6.508   4.030  11.393  2.6269 -0.3883  0.1553
 9532TIP3    H250088   6.408   3.960  11.484  0.0006  2.5661 -0.2717
 9533TIP3   OH250089   3.557   6.177   1.288  0.0177 -0.2741  0.1292
 9533TIP3    H150090   3.543   6.250   1.229  1.8495 -0.8388 -1.1187
 9533TIP3    H250091   3.550   6.214   1.376 -2.6808  0.6054 -0.3708
 9534TIP3   OH250092   5.881   5.671   4.825  0.0435 -0.4920  0.0963
 9534TIP3    H150093   5.832   5.681   4.743  0.2778 -1.3574 -0.1569
 9534TIP3    H250094   5.856   5.585   4.858 -0.7903  0.2403  1.4460
 9535TIP3   OH250095   4.847   0.381  13.200 -0.3853 -0.4994  0.1748
 9535TIP3    H150096   4.901   0.389  13.122  1.8548  1.5937  1.7833
 9535TIP3    H250097   4.816   0.291  13.199  2.8328 -1.7407 -1.1064
 9536TIP3   OH250098   5.531   0.423   3.562 -0.2372 -0.0311  0.4519
 9536TIP3    H150099   5.490   0.504   3.592  0.5684  0.9575 -1.0093
 9536TIP3    H250100   5.489   0.354   3.614 -1.8746  1.1826  0.8088
 9537TIP3   OH250101   6.434   4.685  12.818 -0.5032  0.2535 -0.0566
 9537TIP3    H150102   6.446   4.676  12.913 -0.8737  3.4722  0.4130
 9537TIP3    H250103   6.469   4.604  12.782 -0.7569 -1.2995  2.8425
 9538TIP3   OH250104   3.073   4.644   3.048  0.2589  0.4423  0.1919
 9538TIP3    H150105   3.132   4.605   3.113  0.1139  0.8557  0.5777
 9538TIP3    H250106   2.990   4.599   3.062  0.7956 -1.1143 -1.2564
 9539TIP3   OH250107   6.278   1.838   3.775 -0.2696  0.1290 -0.1012
 9539TIP3    H150108   6.326   1.768   3.731 -1.9885 -0.1711 -1.6208
 9539TIP3    H250109   6.202   1.854   3.719 -0.7532  2.1477  1.0184
 9540TIP3   OH250110   6.232   2.432  12.667  0.5582 -0.3586  0.0004
 9540TIP3    H150111   6.141   2.452  12.689  1.3439  2.2463  1.3700
 9540TIP3    H250112   6.247   2.479  12.585  0.8100 -0.2551  0.1041
 9541TIP3   OH250113   2.429   5.272  13.738  0.4281 -0.0099 -0.1771
 9541TIP3    H150114   2.490   5.339  13.707 -0.9481  0.4441 -2.0752
 9541TIP3    H250115   2.371   5.318  13.798  1.2234 -0.1901  0.7555
 9542TIP3   OH250116   3.995   4.874   1.524  0.7955  0.7331  0.3471
 9542TIP3    H150117   3.904   4.847   1.513  0.3050  1.5919  1.8829
 9542TIP3    H250118   3.992   4.938   1.596  2.7840 -0.1500  1.2848
 9543TIP3   OH250119   0.189   6.654  16.590  0.1108 -0.3745  0.8450
 9543TIP3    H150120   0.247   6.582  16.565  0.2965  0.1466 -0.3191
 9543TIP3    H250121   0.113   6.643  16.533  0.7784  1.1693 -0.4368
 9544TIP3   OH250122   1.127   0.712   0.617 -0.7502  0.4484  0.0907
 9544TIP3    H150123   1.103   0.771   0.545 -0.9688 -0.1589 -0.3453
 9544TIP3    H250124   1.043   0.689   0.658 -0.9771 -1.6035 -1.3739
 9545TIP3   OH250125   5.526   0.899  11.878 -0.4320  0.4218 -0.4662
 9545TIP3    H150126   5.572   0.831  11.830 -0.3292 -0.5804  0.9971
 9545TIP3    H250127   5.469   0.940  11.813  0.9048  0.2496 -1.8150
 9546TIP3   OH250128   2.948   0.023   3.414  0.1353  0.4171 -0.5848
 9546TIP3    H150129   2.978  -0.054   3.461  0.2199 -0.1298 -1.5103
 9546TIP3    H250130   2.861   0.041   3.450 -0.2073 -0.5817 -0.8888
 9547TIP3   OH250131   2.212   4.432   1.932  0.3216  0.7517  0.6429
 9547TIP3    H150132   2.233   4.349   1.976  0.8526 -0.1322 -1.1888
 9547TIP3    H250133   2.127   4.416   1.891  1.7123 -0.0385 -2.2185
 9548TIP3   OH250134   1.098   5.421   5.798 -0.1420  1.0501  0.4276
 9548TIP3    H150135   1.163   5.490   5.790  0.3504  0.5653  0.1775
 9548TIP3    H250136   1.104   5.393   5.890  0.6656  0.3769  0.1814
 9549TIP3   OH250137   6.410   2.287  16.964  0.5713  0.3273  0.0820
 9549TIP3    H150138   6.329   2.237  16.958  0.2153  1.0128 -1.1270
 9549TIP3    H250139   6.461   2.242  17.030 -0.4535 -0.6097  0.2570
 9550TIP3   OH250140   3.413   3.042  13.059 -0.7494  0.0262 -0.2961
 9550TIP3    H150141   3.427   2.948  13.050  3.3662  0.4178  0.0990
 9550TIP3    H250142   3.346   3.050  13.127 -1.4955 -2.5538 -0.6176
 9551TIP3   OH250143   3.253   3.581  11.937  0.3785  0.3311  0.7433
 9551TIP3    H150144   3.297   3.657  11.900  0.3579  0.2090  0.4689
 9551TIP3    H250145   3.164   3.612  11.956 -0.2033 -0.1022 -1.0454
 9552TIP3   OH250146   5.434   5.535  12.076  0.1936 -0.1293 -0.3189
 9552TIP3    H150147   5.432   5.517  12.170  0.4094  0.8659 -0.1076
 9552TIP3    H250148   5.510   5.487  12.044 -0.6195 -1.5219 -0.2332
 9553TIP3   OH250149   4.677   3.973   0.936  0.1495  0.2231  0.2071
 9553TIP3    H150150   4.728   4.036   0.885  1.1607  0.1911  1.1295
 9553TIP3    H250151   4.610   4.025   0.979 -0.7872  0.2353 -1.2116
 9554TIP3   OH250152   0.401   3.822  15.539 -0.1033  0.0998  0.3734
 9554TIP3    H150153   0.341   3.893  15.564  0.1483  0.3837  0.1844
 9554TIP3    H250154   0.488   3.861  15.548 -0.0020  0.9437 -2.9607
 9555TIP3   OH250155   6.081   4.521  16.209  0.3360  0.8610  0.0053
 9555TIP3    H150156   5.991   4.526  16.176 -0.4185  3.2746  2.0833
 9555TIP3    H250157   6.114   4.437  16.176 -2.7987 -0.3058 -0.5212
 9556TIP3   OH250158   4.080   3.587   4.982  0.8623 -0.3576 -0.6210
 9556TIP3    H150159   4.030   3.512   5.013 -1.7165  1.0193 -1.1419
 9556TIP3    H250160   4.115   3.559   4.897  1.3504 -1.4888 -0.0612
 9557TIP3   OH250161   2.617   6.183   5.322 -0.3176  0.0281  0.2527
 9557TIP3    H150162   2.594   6.092   5.310  0.0643  0.0616 -0.7984
 9557TIP3    H250163   2.594   6.202   5.413 -0.2638 -1.1457  0.5179
 9558TIP3   OH250164   0.156   5.981   3.609 -0.4256 -0.5102  0.3215
 9558TIP3    H150165   0.126   5.949   3.523  0.2440 -0.8997  0.2256
 9558TIP3    H250166   0.215   6.053   3.588  1.6221 -2.0920  0.3040
 9559TIP3   OH250167   5.731   3.934  16.271 -0.2167 -0.0942 -0.0465
 9559TIP3    H150168   5.715   4.028  16.258  1.5289 -0.0368 -2.5634
 9559TIP3    H250169   5.656   3.904  16.323 -1.0623  2.5812  0.4546
 9560TIP3   OH250170   3.688   2.558   1.978  0.0224  0.7061 -1.0751
 9560TIP3    H150171   3.599   2.557   2.014 -0.0535  1.6705 -1.2013
 9560TIP3    H250172   3.678   2.519   1.891 -0.5508  1.9826 -1.6222
 9561TIP3   OH250173   3.491   1.873  16.395  0.0950 -0.3874 -0.2851
 9561TIP3    H150174   3.411   1.925  16.384  0.2155  0.0335  0.6805
 9561TIP3    H250175   3.562   1.933  16.371  0.1614 -0.4957 -0.3563
 9562TIP3   OH250176   6.321   5.534  14.581 -0.0231  0.1888 -0.0522
 9562TIP3    H150177   6.404   5.515  14.537 -0.0886  0.4406 -0.2821
 9562TIP3    H250178   6.310   5.629  14.573 -0.5211  0.1093 -0.3489
 9563TIP3   OH250179   1.978   3.748   4.623 -0.0856  0.0965 -0.1151
 9563TIP3    H150180   2.028   3.802   4.562  1.2651 -0.2125  0.6682
 9563TIP3    H250181   1.887   3.777   4.613  0.5156  2.0804 -0.1447
 9564TIP3   OH250182   6.051   0.502   0.868 -0.1467 -0.4702 -0.7619
 9564TIP3    H150183   6.110   0.499   0.943  0.5296  0.2493 -1.2428
 9564TIP3    H250184   6.060   0.416   0.826 -0.2676 -0.7487 -0.2147
 9565TIP3   OH250185   2.032   5.993  11.710  0.2963  0.5802  0.2991
 9565TIP3    H150186   2.027   5.999  11.805  1.3740  0.8525  0.3585
 9565TIP3    H250187   2.015   5.901  11.690  1.9062  0.1110  0.9273
 9566TIP3   OH250188   5.852   5.905  15.780  0.2272 -0.1936  0.0689
 9566TIP3    H150189   5.942   5.872  15.779  0.9907  1.7058  0.8795
 9566TIP3    H250190   5.801   5.834  15.817  1.4590 -1.1778 -0.0453
 9567TIP3   OH250191   2.928   5.827   4.159 -0.3112  0.5078  0.5334
 9567TIP3    H150192   3.004   5.787   4.202  0.5127  1.3426 -0.1095
 9567TIP3    H250193   2.935   5.920   4.177 -1.4703  0.5485  0.8701
 9568TIP3   OH250194   6.711   3.855  13.203 -0.3522 -0.2903  0.7309
 9568TIP3    H150195   6.795   3.872  13.245  0.0457  0.9931 -0.4856
 9568TIP3    H250196   6.646   3.890  13.263  0.2007  1.5339  0.3331
 9569TIP3   OH250197   2.937   0.390  15.585 -0.3370 -0.2769 -0.2702
 9569TIP3    H150198   2.880   0.443  15.528  1.0751  1.9810  0.2970
 9569TIP3    H250199   2.883   0.370  15.661 -1.0365  0.0243 -0.6760
 9570TIP3   OH250200   4.385   4.761   3.770 -0.3986  0.1100  0.0447
 9570TIP3    H150201   4.439   4.826   3.727 -2.2703  1.3067 -0.6186
 9570TIP3    H250202   4.338   4.810   3.838 -1.2065 -0.7056  0.0971
 9571TIP3   OH250203   0.043   5.916   3.355  0.0705 -0.2606  0.8128
 9571TIP3    H150204   0.046   5.883   3.265 -3.9860 -0.5212  0.5675
 9571TIP3    H250205   0.009   6.005   3.346  3.0125  1.1050  2.0004
 9572TIP3   OH250206   2.493   3.800  17.020 -0.1478  0.1349 -0.1029
 9572TIP3    H150207   2.465   3.836  17.104 -1.2588  2.1536 -1.2635
 9572TIP3    H250208   2.566   3.855  16.993  0.2116 -0.5105 -0.4831
 9573TIP3   OH250209   0.948   4.387   2.151 -0.2191 -0.7895 -0.0280
 9573TIP3    H150210   0.964   4.299   2.116 -0.0466 -0.3966 -0.9632
 9573TIP3    H250211   1.008   4.443   2.102 -0.4655 -0.1170  0.4305
 9574TIP3   OH250212   4.350   5.345  11.947 -0.1285 -0.2111 -0.4027
 9574TIP3    H150213   4.260   5.313  11.957 -0.6421  1.7784  2.6088
 9574TIP3    H250214   4.389   5.334  12.034  2.2704 -0.1269 -1.3916
 9575TIP3   OH250215   4.134   2.648   5.123  0.3796  0.0590 -0.1337
 9575TIP3    H150216   4.210   2.639   5.181 -0.0461  0.7766  0.5496
 9575TIP3    H250217   4.162   2.712   5.057  0.7858 -0.5961 -0.6229
 9576TIP3   OH250218   5.626   5.888  16.582  0.1435 -0.1936  0.2145
 9576TIP3    H150219   5.537   5.862  16.561 -0.8890  2.1902  1.2181
 9576TIP3    H250220   5.678   5.809  16.571 -2.2041 -1.8368  0.2692
 9577TIP3   OH250221   5.400   1.441   0.215  0.7445 -0.4957  0.0196
 9577TIP3    H150222   5.460   1.474   0.147  2.1396 -1.6814  0.6049
 9577TIP3    H250223   5.390   1.348   0.193  0.8362 -0.7812  1.1496
 9578TIP3   OH250224   5.488   6.477  17.152 -0.7087  0.0404 -0.4410
 9578TIP3    H150225   5.451   6.440  17.233  2.0101 -1.0007  0.4650
 9578TIP3    H250226   5.510   6.567  17.175 -0.3469 -0.1200 -0.1379
 9579TIP3   OH250227   6.777   1.435   2.897  0.5564 -0.1841  0.0987
 9579TIP3    H150228   6.747   1.369   2.959  1.0167 -0.1809  0.3289
 9579TIP3    H250229   6.846   1.482   2.944 -0.4840  1.1821  0.3604
 9580TIP3   OH250230   2.432   6.670  13.151 -0.2600 -0.3122  0.4554
 9580TIP3    H150231   2.422   6.764  13.139  0.9605 -0.0329  1.4138
 9580TIP3    H250232   2.527   6.655  13.148 -0.4879 -1.8610 -1.9522
 9581TIP3   OH250233   1.201   3.822  12.576 -0.1134  0.2862 -0.4750
 9581TIP3    H150234   1.120   3.873  12.576  0.8256  1.8654  0.3689
 9581TIP3    H250235   1.226   3.817  12.484  0.8202  3.2589 -0.5188
 9582TIP3   OH250236   3.385   0.082  12.633 -0.6584 -0.5414 -0.1633
 9582TIP3    H150237   3.474   0.109  12.655  0.5250 -2.1991 -2.4927
 9582TIP3    H250238   3.351   0.153  12.579 -0.9925  0.3202  1.1231
 9583TIP3   OH250239   6.782   2.069   1.814 -0.4953  0.2478  0.3466
 9583TIP3    H150240   6.687   2.086   1.811 -0.1592  2.7252  1.1693
 9583TIP3    H250241   6.815   2.133   1.876  2.0217  0.9922 -1.6179
 9584TIP3   OH250242   6.721   4.686  12.412  0.4088 -0.0429  0.2299
 9584TIP3    H150243   6.638   4.693  12.366  0.9013  0.4857 -0.5897
 9584TIP3    H250244   6.705   4.619  12.479 -0.3647 -0.6943 -0.5825
 9585TIP3   OH250245   6.031   2.518  13.480  0.0274 -0.0335  0.6372
 9585TIP3    H150246   6.072   2.460  13.544  2.0582 -0.5795 -1.0350
 9585TIP3    H250247   5.938   2.497  13.483  0.3889 -1.5718  1.8521
 9586TIP3   OH250248   1.147   1.025   1.127  0.2749  0.1801 -0.1927
 9586TIP3    H150249   1.068   1.072   1.100  0.9629  1.7475  0.3922
 9586TIP3    H250250   1.126   0.933   1.113 -1.2211  0.6261 -1.1706
 9587TIP3   OH250251   2.787   6.495   0.135 -0.6954  0.0516 -0.3037
 9587TIP3    H150252   2.703   6.528   0.103 -0.0819  2.0411 -0.0116
 9587TIP3    H250253   2.851   6.561   0.108  0.3474  0.1070  2.0176
 9588TIP3   OH250254   5.263   4.292  15.305 -0.8863 -0.2057 -0.1604
 9588TIP3    H150255   5.339   4.333  15.346 -0.6440  0.0030 -0.7929
 9588TIP3    H250256   5.189   4.346  15.332 -0.8039 -0.3623  0.3932
 9589TIP3   OH250257   4.170   1.229  14.356 -0.7689  0.4643  0.1602
 9589TIP3    H150258   4.194   1.279  14.278 -1.2904  1.5344  0.6583
 9589TIP3    H250259   4.252   1.190  14.387 -0.5384  0.1360 -0.8397
 9590TIP3   OH250260   4.797   0.040  16.287 -0.2215  0.3876 -0.3944
 9590TIP3    H150261   4.774   0.119  16.237  1.0767  0.2469 -1.2435
 9590TIP3    H250262   4.801   0.070  16.378  0.4034  1.3481 -0.7249
 9591TIP3   OH250263   2.283   4.394  12.259  0.1565 -0.3034 -0.0605
 9591TIP3    H150264   2.266   4.390  12.165 -3.2421  2.0318  0.2725
 9591TIP3    H250265   2.368   4.439  12.266  1.0030 -1.4777 -1.9333
 9592TIP3   OH250266   2.317   0.038  14.002  0.1742  0.1559  0.5744
 9592TIP3    H150267   2.331  -0.050  14.037  0.0129 -0.9428 -1.9518
 9592TIP3    H250268   2.222   0.051  14.007 -0.2836 -1.3899 -2.3857
 9593TIP3   OH250269   2.749   0.112   2.181  0.0152  0.3572  0.6596
 9593TIP3    H150270   2.842   0.133   2.180 -0.0468  0.6257 -0.1232
 9593TIP3    H250271   2.717   0.144   2.266  0.1710  2.3321 -0.0007
 9594TIP3   OH250272   5.683   1.914  14.472  0.1143  0.7858  0.0042
 9594TIP3    H150273   5.721   1.853  14.409  0.3485  1.0358 -0.0962
 9594TIP3    H250274   5.608   1.866  14.509 -1.4447  1.4451 -2.1029
 9595TIP3   OH250275   2.853   1.490  13.919  0.2759 -0.2631 -0.2837
 9595TIP3    H150276   2.947   1.502  13.923  0.0958  0.9781  1.1538
 9595TIP3    H250277   2.824   1.549  13.849  0.3828  0.7316  0.5032
 9596TIP3   OH250278   6.695   2.019  11.523 -0.2429  0.3255  0.7017
 9596TIP3    H150279   6.733   2.031  11.610  0.7826 -1.2538  0.5270
 9596TIP3    H250280   6.771   2.013  11.465 -0.8729  0.2416 -0.1303
 9597TIP3   OH250281   4.164   2.240   1.179 -0.4647  0.7899  0.3591
 9597TIP3    H150282   4.169   2.330   1.213  1.0338  0.6322  0.6377
 9597TIP3    H250283   4.170   2.185   1.257  2.4853  0.4288  0.0003
 9598TIP3   OH250284   5.880   1.430   1.782  0.2732  0.0010  0.4425
 9598TIP3    H150285   5.860   1.521   1.807 -0.0235 -0.4081  1.7937
 9598TIP3    H250286   5.862   1.379   1.861 -1.3910 -1.5123 -0.8435
 9599TIP3   OH250287   1.399   0.807   4.670  0.2172 -0.1096  0.0021
 9599TIP3    H150288   1.450   0.767   4.741 -1.3415  1.0499  1.8924
 9599TIP3    H250289   1.307   0.790   4.694 -0.3531  0.0778 -1.9040
 9600TIP3   OH250290   4.000   0.988  16.880 -0.8221  0.5210 -0.0890
 9600TIP3    H150291   3.911   0.962  16.856 -0.6751  0.8608 -1.0565
 9600TIP3    H250292   4.006   0.971  16.974 -1.8884  0.4481 -0.0283
 9601TIP3   OH250293   1.876   1.213   0.474  0.2316  0.3834  0.1089
 9601TIP3    H150294   1.969   1.221   0.496 -0.3198  1.2154  2.3995
 9601TIP3    H250295   1.857   1.120   0.487  0.9842 -0.0783 -1.7015
 9602TIP3   OH250296   1.590   1.947  14.896 -0.3254  0.1973  0.2031
 9602TIP3    H150297   1.604   1.966  14.989 -0.5570 -0.1593  0.3129
 9602TIP3    H250298   1.496   1.929  14.889 -0.1452 -0.7679  0.0880
 9603TIP3   OH250299   3.385   2.668  11.625 -0.6807 -0.3350 -0.5153
 9603TIP3    H150300   3.309   2.719  11.654 -0.4096 -0.6372  0.8041
 9603TIP3    H250301   3.380   2.587  11.676 -0.3333 -1.0288 -1.5632
 9604TIP3   OH250302   5.521   4.335  13.463  0.2663 -0.1922  0.3086
 9604TIP3    H150303   5.532   4.366  13.553 -1.4263 -0.5016  0.6473
 9604TIP3    H250304   5.459   4.263  13.469 -1.1346  0.8007 -1.2864
 9605TIP3   OH250305   6.534   4.025   2.323  0.0734 -0.1504  0.1414
 9605TIP3    H150306   6.596   4.015   2.251  0.9337  0.2958  0.8108
 9605TIP3    H250307   6.449   4.005   2.283  0.1698  2.4338 -1.6727
 9606TIP3   OH250308   5.849   3.391  15.735 -0.1968 -0.9798 -0.9805
 9606TIP3    H150309   5.894   3.435  15.662  1.3625 -0.5667  0.1902
 9606TIP3    H250310   5.888   3.304  15.739 -0.0396 -0.8886 -0.4420
 9607TIP3   OH250311   2.887   1.492   0.982 -0.1942 -0.2249  0.2279
 9607TIP3    H150312   2.948   1.563   0.962 -2.7067  1.3984 -2.3691
 9607TIP3    H250313   2.853   1.513   1.069 -0.9886  1.8734 -0.5553
 9608TIP3   OH250314   2.653   1.775  15.422 -0.0654  0.1104  0.0509
 9608TIP3    H150315   2.727   1.739  15.374 -0.2137  0.4648 -0.4457
 9608TIP3    H250316   2.575   1.743  15.376 -0.1943  1.7595 -0.9419
 9609TIP3   OH250317   0.489   6.649  13.246  0.6586  0.5734 -0.0352
 9609TIP3    H150318   0.444   6.582  13.297  1.9958  0.2572  0.7770
 9609TIP3    H250319   0.535   6.702  13.311 -1.3831  3.1583 -0.5214
 9610TIP3   OH250320   5.334   4.531  11.999 -0.0990 -0.8607  0.0656
 9610TIP3    H150321   5.428   4.515  12.005  0.6995  2.9751  0.6323
 9610TIP3    H250322   5.302   4.518  12.088 -0.0053 -1.5643  0.0014
 9611TIP3   OH250323   2.727   2.284  12.746  0.7452  0.5053  0.6751
 9611TIP3    H150324   2.733   2.379  12.745 -3.6774  0.9710  0.8605
 9611TIP3    H250325   2.718   2.261  12.838  2.7207 -0.2727  0.7209
 9612TIP3   OH250326   5.372   2.676  17.059  0.2844  0.1966 -0.2306
 9612TIP3    H150327   5.327   2.718  16.986  0.8357 -0.4053 -0.9310
 9612TIP3    H250328   5.397   2.749  17.117 -0.0237  0.6913 -0.7142
 9613TIP3   OH250329   6.096   2.610   5.806  0.0390  0.5031 -0.0417
 9613TIP3    H150330   6.088   2.593   5.712  0.8977  1.3372 -0.2815
 9613TIP3    H250331   6.113   2.523   5.844 -0.5235  0.1279 -0.6253
 9614TIP3   OH250332   2.225   4.003  10.918 -0.5903  0.2877 -0.3783
 9614TIP3    H150333   2.241   4.089  10.879 -0.6169 -0.1444 -1.3781
 9614TIP3    H250334   2.231   3.942  10.844  1.3978 -0.8089  0.6105
 9615TIP3   OH250335   4.106   6.069  15.745 -0.4135 -0.2837 -0.3343
 9615TIP3    H150336   4.142   6.089  15.659 -1.6195 -1.2561 -1.1030
 9615TIP3    H250337   4.178   6.028  15.793  0.3903  0.6413 -0.7127
 9616TIP3   OH250338   1.146   5.397   3.810 -0.0763  0.1452 -0.1921
 9616TIP3    H150339   1.066   5.394   3.861 -0.5078  0.1906 -0.8513
 9616TIP3    H250340   1.174   5.306   3.803  0.6340  0.2415  1.1071
 9617TIP3   OH250341   0.279   3.475   4.965  0.0350 -0.1259 -0.2893
 9617TIP3    H150342   0.183   3.473   4.960 -0.0509  0.0426  0.9891
 9617TIP3    H250343   0.302   3.560   4.928 -0.2852 -0.2406 -0.7760
 9618TIP3   OH250344   1.320   2.762   6.535 -0.3505  0.2780 -1.1032
 9618TIP3    H150345   1.373   2.787   6.460 -1.1142 -0.1575 -1.7962
 9618TIP3    H250346   1.288   2.674   6.514 -0.1012 -0.0921 -0.0132
 9619TIP3   OH250347   4.230   6.147   6.349  0.6876 -0.3283  0.5571
 9619TIP3    H150348   4.293   6.209   6.313 -0.7128 -0.7326 -3.0865
 9619TIP3    H250349   4.150   6.199   6.361  0.8389 -0.4439  2.2780
 9620TIP3   OH250350   6.015   3.776  12.244  0.1940 -0.3192 -0.3555
 9620TIP3    H150351   5.962   3.855  12.233 -0.2340 -0.3451  1.2109
 9620TIP3    H250352   6.057   3.763  12.159 -1.7082  0.1302 -1.4190
 9621TIP3   OH250353   4.496   5.025   2.353  0.2562  0.2334  0.0143
 9621TIP3    H150354   4.464   4.953   2.408  2.8735 -2.9391 -2.2365
 9621TIP3    H250355   4.480   4.996   2.264 -0.0105  3.2822 -1.0325
 9622TIP3   OH250356   1.986   1.983   3.846  0.2215 -0.1058 -0.0016
 9622TIP3    H150357   1.981   1.910   3.784  0.1226 -0.1935  0.1111
 9622TIP3    H250358   1.896   2.015   3.853  0.2983  0.1682 -0.2190
 9623TIP3   OH250359   1.879   0.272   1.382  0.4454 -0.5980 -0.3162
 9623TIP3    H150360   1.919   0.323   1.312 -3.2822  0.5016 -1.9001
 9623TIP3    H250361   1.895   0.181   1.358  2.0121 -0.2243 -0.7755
 9624TIP3   OH250362   3.165   1.799   3.386 -0.2567  0.3201 -0.2833
 9624TIP3    H150363   3.182   1.888   3.355 -2.5265  0.5004 -1.1725
 9624TIP3    H250364   3.122   1.755   3.312  0.4006 -1.3846  0.2998
 9625TIP3   OH250365   6.157   1.497  11.331 -0.2518  0.0899 -0.2526
 9625TIP3    H150366   6.219   1.545  11.385 -0.9106 -0.2017  0.7923
 9625TIP3    H250367   6.173   1.528  11.242 -0.1321  1.6634  0.2958
 9626TIP3   OH250368   6.624   2.626  14.186 -0.5735 -0.2570  0.8179
 9626TIP3    H150369   6.631   2.656  14.276  0.3884 -1.0036  1.0141
 9626TIP3    H250370   6.532   2.638  14.163 -0.5693  1.1548  1.4557
 9627TIP3   OH250371   0.107   5.167  16.652 -0.2248  0.2335 -0.0722
 9627TIP3    H150372   0.100   5.167  16.747 -1.8291 -0.7959 -0.1395
 9627TIP3    H250373   0.201   5.167  16.634  0.1047  0.1500  1.5054
 9628TIP3   OH250374   0.819   5.755   4.965  0.4179  0.5846  0.3231
 9628TIP3    H150375   0.874   5.711   4.900 -0.3003 -0.3064  0.2905
 9628TIP3    H250376   0.747   5.792   4.914  0.1159  0.3099  0.5430
 9629TIP3   OH250377   3.826   6.530   5.294 -0.1788 -0.1436 -0.7604
 9629TIP3    H150378   3.909   6.559   5.333 -0.5472 -1.6181  1.3446
 9629TIP3    H250379   3.846   6.443   5.258 -0.8701 -0.7644  0.2665
 9630TIP3   OH250380   0.010   1.360   6.664  0.1000 -0.1019 -0.2015
 9630TIP3    H150381   0.066   1.425   6.707 -2.2520  1.6063  0.4973
 9630TIP3    H250382  -0.035   1.316   6.737 -1.2592  0.2886 -0.7866
 9631TIP3   OH250383   2.538   4.943   5.006  0.4864 -0.2888  0.2488
 9631TIP3    H150384   2.457   4.910   4.969 -0.1451  0.9446  0.4710
 9631TIP3    H250385   2.514   4.975   5.093  1.0660  0.6525  0.0821
 9632TIP3   OH250386   3.494   6.291   5.628  0.1423  0.4905 -0.5781
 9632TIP3    H150387   3.565   6.328   5.575 -0.0186  1.1514 -0.3374
 9632TIP3    H250388   3.505   6.331   5.714  1.1584 -1.4891  0.2887
 9633TIP3   OH250389   5.098   5.180   2.032  0.1057 -0.8356  0.2608
 9633TIP3    H150390   5.088   5.192   2.127 -1.4970  0.2851 -0.0222
 9633TIP3    H250391   5.161   5.247   2.006  0.4371 -1.0507  0.5004
 9634TIP3   OH250392   3.680   1.208  16.452  0.3225  0.2744 -0.8545
 9634TIP3    H150393   3.773   1.217  16.435  0.3221  0.4720 -0.7603
 9634TIP3    H250394   3.647   1.298  16.455  0.5291  0.3318  1.3093
 9635TIP3   OH250395   1.240   1.470  12.206  0.7647 -0.0205 -0.0765
 9635TIP3    H150396   1.331   1.487  12.230 -0.3294  3.3921  2.4446
 9635TIP3    H250397   1.203   1.423  12.281  0.0541  0.1399 -0.3197
 9636TIP3   OH250398   2.573   2.065  16.784  0.1452 -0.3909  0.0310
 9636TIP3    H150399   2.536   1.990  16.738 -0.4901  0.0044 -0.1128
 9636TIP3    H250400   2.580   2.133  16.717  0.1329 -0.1211  0.3011
 9637TIP3   OH250401   4.576   0.378  13.627  0.0711 -0.2804 -0.0827
 9637TIP3    H150402   4.572   0.448  13.561 -0.6134  0.0501  0.3022
 9637TIP3    H250403   4.670   0.367  13.643  0.1762  1.4387  0.7595
 9638TIP3   OH250404   6.745   6.757  11.723 -0.2495 -0.3908 -0.2319
 9638TIP3    H150405   6.824   6.792  11.764 -0.8788  0.4971  0.2626
 9638TIP3    H250406   6.736   6.805  11.641 -0.7628  0.1651  0.1427
 9639TIP3   OH250407   3.599   5.052  16.242 -0.7510 -0.0930 -0.1541
 9639TIP3    H150408   3.541   5.070  16.315  0.4725 -0.3315  0.9176
 9639TIP3    H250409   3.687   5.072  16.276 -0.0681 -1.0975 -1.2461
 9640TIP3   OH250410   1.805   1.378  13.533  0.1821  0.9735 -0.5043
 9640TIP3    H150411   1.793   1.337  13.618  0.2047  0.9069 -0.5323
 9640TIP3    H250412   1.832   1.467  13.552 -1.2771  1.4218 -0.4342
 9641TIP3   OH250413   3.378   0.111  14.807 -0.2001 -0.1655 -0.0839
 9641TIP3    H150414   3.467   0.076  14.804  0.0792  0.3459  1.4916
 9641TIP3    H250415   3.382   0.182  14.871 -0.8639  2.4703 -2.7186
 9642TIP3   OH250416   5.300   3.404  15.212 -0.0346 -0.0297  0.2099
 9642TIP3    H150417   5.390   3.381  15.186 -0.3723 -0.7399 -0.3599
 9642TIP3    H250418   5.266   3.454  15.137  0.3026  1.3983  0.9609
 9643TIP3   OH250419   6.030   2.062  17.128  0.2025  0.6151  0.5938
 9643TIP3    H150420   6.012   2.156  17.140 -2.0321  0.2605  0.4606
 9643TIP3    H250421   6.087   2.058  17.052 -1.8852  1.7665 -1.1327
 9644TIP3   OH250422   3.053   1.604  14.993 -0.0706  0.0920  0.3504
 9644TIP3    H150423   2.999   1.546  14.939  0.2730  0.8141 -0.8044
 9644TIP3    H250424   3.070   1.680  14.937 -0.6963  1.4359  1.8997
 9645TIP3   OH250425   2.679   6.058  13.357  0.1496 -0.6208  0.4757
 9645TIP3    H150426   2.700   6.065  13.264 -0.1867 -1.2925  0.3403
 9645TIP3    H250427   2.706   6.142  13.395 -1.6479  0.5090 -0.6075
 9646TIP3   OH250428   1.916   4.237  13.461  0.6516 -0.2705  0.6330
 9646TIP3    H150429   1.970   4.256  13.538  3.4135 -0.5393 -1.1054
 9646TIP3    H250430   1.926   4.143  13.448  0.6036 -0.1433 -0.3422
 9647TIP3   OH250431   1.390   3.497   2.805 -0.4402  0.2589  0.4934
 9647TIP3    H150432   1.377   3.470   2.896 -2.0615 -2.8564 -0.5275
 9647TIP3    H250433   1.306   3.533   2.778 -0.5242 -0.4803 -0.2528
 9648TIP3   OH250434   2.810   3.017   6.053 -0.0304  0.3565 -0.1327
 9648TIP3    H150435   2.752   3.080   6.011 -0.8096  1.0857  1.9161
 9648TIP3    H250436   2.873   3.070   6.102  0.0819 -0.4421  0.6218
 9649TIP3   OH250437   4.720   6.154  11.700 -0.2495  0.1304  0.7235
 9649TIP3    H150438   4.803   6.196  11.720 -1.1716  2.5475 -0.1577
 9649TIP3    H250439   4.655   6.201  11.752 -1.4755  0.5149 -1.0483
 9650TIP3   OH250440   4.798   5.107  13.956  0.1479 -0.4617  0.2113
 9650TIP3    H150441   4.756   5.058  14.027 -3.0117  0.6122 -0.7597
 9650TIP3    H250442   4.853   5.172  14.001  1.3553 -2.2786  1.5322
 9651TIP3   OH250443   2.924   3.279  14.230  0.2942 -0.1603 -0.3939
 9651TIP3    H150444   2.879   3.323  14.301  0.3403  1.9447 -1.5741
 9651TIP3    H250445   3.003   3.331  14.215  0.6633 -0.9779 -1.4868
 9652TIP3   OH250446   3.764   3.247  11.971  0.3813 -0.2726  0.3298
 9652TIP3    H150447   3.707   3.296  11.912 -0.5423 -1.3174  0.3166
 9652TIP3    H250448   3.706   3.220  12.043  1.4315  0.8151  1.6539
 9653TIP3   OH250449   0.513   3.727  11.514  0.0355  0.1562  0.2757
 9653TIP3    H150450   0.522   3.732  11.419  0.5603  1.2716  0.3631
 9653TIP3    H250451   0.502   3.818  11.541 -2.3402 -0.2994  1.0858
 9654TIP3   OH250452   4.193   0.363  14.011  0.0511 -0.2550  0.3960
 9654TIP3    H150453   4.283   0.331  14.003  1.0767  0.9273  4.7877
 9654TIP3    H250454   4.157   0.315  14.085 -2.4892  0.3720 -0.3322
 9655TIP3   OH250455   0.621   5.124  15.627  0.1026 -0.1702  0.1385
 9655TIP3    H150456   0.650   5.128  15.536  0.0152 -1.3139  0.0473
 9655TIP3    H250457   0.690   5.170  15.676  0.0107  0.6980 -0.5260
 9656TIP3   OH250458   0.533   1.652  13.003 -0.2077  0.1598 -0.3660
 9656TIP3    H150459   0.629   1.653  12.993  0.0276  0.7620  1.6595
 9656TIP3    H250460   0.501   1.688  12.920  1.3346  0.2110 -0.9809
 9657TIP3   OH250461   0.612   6.188  16.556  0.3796 -0.0112 -0.5037
 9657TIP3    H150462   0.688   6.240  16.532  1.2643 -1.3654 -0.7521
 9657TIP3    H250463   0.566   6.241  16.621  0.9701  1.2713 -1.1032
 9658TIP3   OH250464   3.758   4.684  10.816  0.2627 -0.1143 -0.0460
 9658TIP3    H150465   3.744   4.597  10.778 -0.9542  0.5960 -1.3588
 9658TIP3    H250466   3.670   4.713  10.842  0.5094  1.0772 -0.4876
 9659TIP3   OH250467   2.277   6.197  15.255 -0.1801  0.3759 -0.2576
 9659TIP3    H150468   2.350   6.218  15.313 -1.1720  0.6752  0.9455
 9659TIP3    H250469   2.284   6.102  15.243  1.5875  0.6502 -1.8901
 9660TIP3   OH250470   3.423   3.615  16.970 -0.2341  0.0866 -0.1362
 9660TIP3    H150471   3.413   3.576  17.057  0.2706 -1.4326 -0.7306
 9660TIP3    H250472   3.333   3.626  16.939 -0.4062  0.1793  0.3723
 9661TIP3   OH250473   1.203   4.179   2.757 -0.1890 -0.0392 -0.2758
 9661TIP3    H150474   1.278   4.188   2.816  0.3405 -0.6466 -0.8489
 9661TIP3    H250475   1.130   4.155   2.816 -0.6695  3.3287  0.6988
 9662TIP3   OH250476   0.732   3.066  10.655  0.1231  0.6031  0.5207
 9662TIP3    H150477   0.702   3.092  10.743 -1.2889  2.4372 -0.4284
 9662TIP3    H250478   0.770   3.146  10.618  2.1693 -0.5424 -0.0155
 9663TIP3   OH250479   4.442   3.915  17.003  0.3537 -0.3672 -0.6522
 9663TIP3    H150480   4.536   3.918  17.018  0.1880  1.5737  0.3266
 9663TIP3    H250481   4.408   3.993  17.048 -1.5919 -0.4944 -1.7861
 9664TIP3   OH250482   1.091   1.864  14.642 -0.4371 -0.3672 -0.2159
 9664TIP3    H150483   1.091   1.777  14.682  1.1914 -0.0817  0.4845
 9664TIP3    H250484   1.176   1.871  14.599 -0.6592  0.7704 -0.4959
 9665TIP3   OH250485   5.042   1.062   2.541 -0.0837  0.3066 -0.0384
 9665TIP3    H150486   4.960   1.012   2.545  0.1096  0.0639  2.5010
 9665TIP3    H250487   5.013   1.153   2.533 -0.5477  0.1117 -0.6826
 9666TIP3   OH250488   1.989   1.253  16.232 -0.0494 -0.1204 -0.2067
 9666TIP3    H150489   1.922   1.305  16.188 -0.0197  0.0090 -0.1031
 9666TIP3    H250490   2.052   1.232  16.164 -0.0408  0.0169 -0.2429
 9667TIP3   OH250491   6.432   0.358  16.213  0.2172 -0.5043 -0.4881
 9667TIP3    H150492   6.484   0.422  16.163 -1.7040  1.1982 -0.4252
 9667TIP3    H250493   6.348   0.401  16.227 -0.5849 -2.4272  1.0379
 9668TIP3   OH250494   6.299   1.117   0.578  0.3154  0.2273 -0.1714
 9668TIP3    H150495   6.255   1.085   0.499 -1.0022  0.1037  0.5801
 9668TIP3    H250496   6.315   1.038   0.630  0.7121  0.3571 -0.0967
 9669TIP3   OH250497   4.693   2.984   0.230  0.0734  0.4965  0.6548
 9669TIP3    H150498   4.760   2.955   0.168  0.5119 -0.2981  1.4777
 9669TIP3    H250499   4.737   2.981   0.315 -1.0605 -0.2019  1.2372
 9670TIP3   OH250500   0.270   6.650  13.681  0.2783  0.0505  0.4923
 9670TIP3    H150501   0.268   6.674  13.774  1.0186  0.5709  0.3787
 9670TIP3    H250502   0.355   6.680  13.650 -0.3573  0.7712 -0.5982
 9671TIP3   OH250503   2.010   3.946   1.541 -0.1635 -0.5743 -0.4013
 9671TIP3    H150504   2.014   4.016   1.476  0.2796  0.7508  0.9992
 9671TIP3    H250505   2.043   3.869   1.494  1.6450  0.6764 -1.3217
 9672TIP3   OH250506   4.282   0.597   4.373 -0.2194  0.3498 -0.4656
 9672TIP3    H150507   4.231   0.659   4.425  1.5664  1.6566 -0.1970
 9672TIP3    H250508   4.369   0.599   4.411 -0.0259 -2.1746 -0.6287
 9673TIP3   OH250509   1.858   2.114  15.270 -0.0200 -0.1337  0.6383
 9673TIP3    H150510   1.869   2.145  15.360  1.9322 -0.1896  0.4678
 9673TIP3    H250511   1.946   2.119  15.232 -0.4588 -1.8066 -0.7251
 9674TIP3   OH250512   1.600   3.372   5.384  0.1390 -0.4920 -0.0527
 9674TIP3    H150513   1.585   3.360   5.478 -0.0559 -1.0913 -0.1525
 9674TIP3    H250514   1.651   3.295   5.358 -2.9527 -2.3327 -1.1445
 9675TIP3   OH250515   0.553   6.794  15.671 -0.0163  0.5384  0.2193
 9675TIP3    H150516   0.523   6.884  15.665  0.9138  0.9991  1.8194
 9675TIP3    H250517   0.540   6.770  15.763 -2.2193 -1.7226 -0.5616
 9676TIP3   OH250518   2.169   2.878   5.485  0.1244  0.4977 -0.6655
 9676TIP3    H150519   2.226   2.956   5.486  1.3064 -0.3222  0.9050
 9676TIP3    H250520   2.094   2.904   5.431  0.3675  2.8096 -0.0107
 9677TIP3   OH250521   2.494   5.685   2.278 -0.2118 -0.5362  0.3300
 9677TIP3    H150522   2.469   5.642   2.360 -1.9087  1.2122  0.7968
 9677TIP3    H250523   2.586   5.708   2.290 -0.0088 -1.6664  1.1013
 9678TIP3   OH250524   0.428   5.759   1.997 -0.0626 -0.5559  0.1733
 9678TIP3    H150525   0.418   5.763   1.902 -0.9717 -0.0585  0.2765
 9678TIP3    H250526   0.399   5.670   2.020 -0.2709 -0.5263  0.0295
 9679TIP3   OH250527   3.228   1.783   1.496  0.1333  0.1365 -0.2062
 9679TIP3    H150528   3.257   1.694   1.513  0.1572 -0.2353 -1.9404
 9679TIP3    H250529   3.132   1.778   1.499 -0.0364 -0.7328 -3.3219
 9680TIP3   OH250530   0.293   0.917   3.991 -0.0690 -0.2036  0.2758
 9680TIP3    H150531   0.281   1.010   4.013 -0.2321 -0.2348  0.3232
 9680TIP3    H250532   0.224   0.899   3.927 -0.9441 -0.6493  1.3150
 9681TIP3   OH250533   6.428   4.888   6.521 -0.1146  0.2285  0.2596
 9681TIP3    H150534   6.339   4.924   6.529  0.2657  0.9166  1.8780
 9681TIP3    H250535   6.484   4.964   6.512  0.3449 -0.1912 -0.4704
 9682TIP3   OH250536   2.415   1.399  14.534 -0.3663  0.3481  0.1517
 9682TIP3    H150537   2.385   1.327  14.479  1.4292 -0.6949  0.4647
 9682TIP3    H250538   2.442   1.467  14.472  2.2227 -1.0479 -0.3865
 9683TIP3   OH250539   1.893   3.422  10.894 -0.3641 -0.3229  0.5317
 9683TIP3    H150540   1.887   3.494  10.957  1.0424  0.0391  0.2865
 9683TIP3    H250541   1.949   3.357  10.936  3.0254  1.1266 -1.3219
 9684TIP3   OH250542   1.125   4.215   1.314  0.4766  0.4674 -0.0518
 9684TIP3    H150543   1.119   4.304   1.278 -0.9729  0.3721 -0.1280
 9684TIP3    H250544   1.041   4.175   1.292  0.4880 -0.3935  1.3709
 9685TIP3   OH250545   5.831   1.461   5.526  0.4999 -0.9132  0.1968
 9685TIP3    H150546   5.783   1.465   5.444 -0.0012  1.8056  0.4980
 9685TIP3    H250547   5.914   1.506   5.508  0.2737 -0.0415  1.1931
 9686TIP3   OH250548   5.929   2.440   6.087  0.1021 -0.5855 -0.8361
 9686TIP3    H150549   5.923   2.378   6.160  1.3286 -1.6966 -1.6209
 9686TIP3    H250550   6.013   2.419   6.045 -0.0832  0.7321 -1.9274
 9687TIP3   OH250551   1.421   4.116   6.029  0.1407  0.4312 -0.5687
 9687TIP3    H150552   1.461   4.191   6.073  1.1894  0.2997 -1.2653
 9687TIP3    H250553   1.408   4.052   6.099 -1.7578  1.5980  0.2539
 9688TIP3   OH250554   0.947   0.496   5.632 -0.3035  0.1188 -0.0353
 9688TIP3    H150555   1.034   0.483   5.597 -0.0403  2.5394 -0.4534
 9688TIP3    H250556   0.931   0.590   5.623 -1.8283  0.2234  2.6311
 9689TIP3   OH250557   4.980   0.544  10.667  0.2788  0.4905  0.2082
 9689TIP3    H150558   4.988   0.523  10.574  1.8471  0.0259  0.4205
 9689TIP3    H250559   4.926   0.624  10.669 -1.0538 -0.3219 -0.9771
 9690TIP3   OH250560   5.821   1.598   4.711 -0.5829 -0.1829 -0.8357
 9690TIP3    H150561   5.870   1.619   4.631  0.0277  1.0146 -0.1699
 9690TIP3    H250562   5.882   1.547   4.764 -1.0152 -1.0461 -1.1536
 9691TIP3   OH250563   4.252   3.118  11.225  0.4608 -0.0225  0.1827
 9691TIP3    H150564   4.331   3.082  11.265 -0.4703 -1.1118  1.1000
 9691TIP3    H250565   4.285   3.179  11.159  2.0665 -0.5684  0.4259
 9692TIP3   OH250566   0.981   2.691  10.366  0.0033 -0.3439 -0.4082
 9692TIP3    H150567   0.924   2.758  10.403  1.2442  0.1644  0.6645
 9692TIP3    H250568   0.977   2.705  10.272 -2.3815 -0.9657 -0.4620
 9693TIP3   OH250569   0.223   1.541  15.563 -0.1928 -0.2523 -0.3184
 9693TIP3    H150570   0.238   1.629  15.598 -0.5936 -0.5549  0.6464
 9693TIP3    H250571   0.311   1.510  15.540 -0.0432  0.3740 -0.6107
 9694TIP3   OH250572   1.821   1.589  12.039 -1.0941 -0.8446  0.7067
 9694TIP3    H150573   1.761   1.572  11.967  0.1553 -0.5350 -0.4649
 9694TIP3    H250574   1.818   1.684  12.050 -0.1381 -0.7121 -0.0189
 9695TIP3   OH250575   0.372   5.004  11.612  0.6331 -0.7554 -0.5939
 9695TIP3    H150576   0.426   5.072  11.650  0.2935 -1.4466  1.2161
 9695TIP3    H250577   0.286   5.044  11.601  0.3080 -0.9737  0.8998
 9696TIP3   OH250578   2.456   3.102   5.242 -0.2224 -0.0307 -0.3593
 9696TIP3    H150579   2.401   3.030   5.211  0.3764 -0.8907  0.5106
 9696TIP3    H250580   2.501   3.133   5.163 -0.3120 -0.7625 -0.7076
 9697TIP3   OH250581   6.001   3.242   6.073 -0.0795 -0.5855 -0.5604
 9697TIP3    H150582   5.937   3.309   6.050  1.0901  0.1800 -1.6958
 9697TIP3    H250583   6.067   3.289   6.125  0.3793 -1.0163 -0.7493
 9698TIP3   OH250584   1.856   1.231  13.789 -0.4479  0.0767 -0.0068
 9698TIP3    H150585   1.807   1.273  13.859 -0.4993 -1.1175  0.7003
 9698TIP3    H250586   1.824   1.141  13.788  0.7076 -0.3465 -0.4810
 9699TIP3   OH250587   1.413   4.567  12.287  0.0036  0.3337 -0.0388
 9699TIP3    H150588   1.423   4.525  12.372  1.3864  0.0274 -0.3291
 9699TIP3    H250589   1.430   4.497  12.224  1.5474  1.1202 -0.5378
 9700TIP3   OH250590   2.060   6.484   5.593 -0.2781 -0.4540 -0.3854
 9700TIP3    H150591   2.006   6.517   5.664  0.0833  1.8360 -1.0778
 9700TIP3    H250592   1.998   6.457   5.525 -0.6212  1.1244 -0.7396
 9701TIP3   OH250593   2.489   6.338   1.181 -0.8310 -0.3491  0.2717
 9701TIP3    H150594   2.406   6.291   1.189 -1.1975  0.2344 -0.0044
 9701TIP3    H250595   2.519   6.350   1.271 -2.0903  1.2411  0.5392
 9702TIP3   OH250596   3.473   4.861  12.177  0.2235  0.2980 -0.2498
 9702TIP3    H150597   3.537   4.865  12.106  0.8656 -1.8682  0.1222
 9702TIP3    H250598   3.505   4.924  12.241  0.6568  0.9545 -1.0825
 9703TIP3   OH250599   4.022   0.077   0.842  0.2228 -0.0162 -0.3123
 9703TIP3    H150600   3.946   0.081   0.784 -0.9991 -1.6749  1.0723
 9703TIP3    H250601   4.029   0.165   0.879 -1.4148  0.0236 -0.0263
 9704TIP3   OH250602   1.785   2.853   6.006 -0.1824 -0.0629 -0.2569
 9704TIP3    H150603   1.786   2.891   6.094 -0.7230 -1.3000  0.3020
 9704TIP3    H250604   1.836   2.915   5.953  1.4945 -0.0602  1.2542
 9705TIP3   OH250605   3.707   4.125   2.579  0.0544  0.2552  0.1497
 9705TIP3    H150606   3.756   4.185   2.634  0.6115  0.3938 -0.4975
 9705TIP3    H250607   3.635   4.095   2.635  1.6134 -1.0224  1.5968
 9706TIP3   OH250608   0.221   4.988  13.056 -0.2861 -0.2120 -0.1194
 9706TIP3    H150609   0.171   4.909  13.035  1.1263 -1.5373  1.2598
 9706TIP3    H250610   0.296   4.986  12.997 -1.6095  1.6863 -2.0644
 9707TIP3   OH250611   4.895   5.150   3.882  0.5423  0.1337 -0.4847
 9707TIP3    H150612   4.944   5.211   3.936  1.3783  0.0675 -1.1555
 9707TIP3    H250613   4.856   5.204   3.813 -0.4106  0.1969  0.0754
 9708TIP3   OH250614   5.439   0.596  16.582 -0.1470  0.3542  0.0694
 9708TIP3    H150615   5.373   0.645  16.532 -0.4016 -1.1998 -1.2152
 9708TIP3    H250616   5.395   0.514  16.605 -0.5085  1.4641  4.1212
 9709TIP3   OH250617   4.046   4.058  13.005 -0.1275 -0.2734  0.3943
 9709TIP3    H150618   3.950   4.067  13.005 -0.1222  0.4170 -1.7168
 9709TIP3    H250619   4.064   3.994  12.936  0.9562 -0.3659  0.7403
 9710TIP3   OH250620   0.412   2.607   3.112  0.8282 -0.0507  0.5498
 9710TIP3    H150621   0.468   2.674   3.152  0.2226  0.1170  1.1324
 9710TIP3    H250622   0.434   2.527   3.159 -1.3805  0.5233  2.7978
 9711TIP3   OH250623   6.023   6.004  15.233  0.3546 -0.4398  0.0201
 9711TIP3    H150624   6.027   5.960  15.318  0.7327 -1.1921 -0.3779
 9711TIP3    H250625   6.018   5.933  15.170 -2.1814  0.1205 -0.5034
 9712TIP3   OH250626   1.878   2.694   2.849  0.0281  0.5628 -0.1179
 9712TIP3    H150627   1.917   2.608   2.835 -0.8515  0.2664 -0.8675
 9712TIP3    H250628   1.953   2.754   2.853  0.6661 -0.2580  0.7074
 9713TIP3   OH250629   2.443   6.529  13.582 -0.2081  0.2546  0.2604
 9713TIP3    H150630   2.410   6.443  13.558  0.3369  0.0893  0.0778
 9713TIP3    H250631   2.375   6.567  13.638 -1.1726  0.3617 -0.9559
 9714TIP3   OH250632   6.562   0.814  17.148  0.7782  0.0326 -0.1269
 9714TIP3    H150633   6.481   0.837  17.193  0.4197 -1.0866 -0.1909
 9714TIP3    H250634   6.623   0.884  17.173  0.0393  0.4463  0.5689
 9715TIP3   OH250635   6.611   4.599   1.121 -0.1336 -0.2143  0.9567
 9715TIP3    H150636   6.679   4.532   1.125 -0.1425 -0.2891  0.0233
 9715TIP3    H250637   6.561   4.588   1.202  0.0474 -1.1381  0.9496
 9716TIP3   OH250638   0.140   0.492  16.527 -0.0033  0.1341  0.2196
 9716TIP3    H150639   0.165   0.482  16.619 -0.7589 -0.1852  0.4014
 9716TIP3    H250640   0.045   0.507  16.530 -0.3004 -1.3496 -0.5770
 9717TIP3   OH250641   3.640   0.896  12.699 -0.2342 -0.2235 -0.6268
 9717TIP3    H150642   3.642   0.833  12.626 -0.6266 -1.3641  0.3280
 9717TIP3    H250643   3.600   0.848  12.771  3.6066 -0.4814  1.6058
 9718TIP3   OH250644   5.257   5.485   3.334 -0.6821 -0.7542  0.6542
 9718TIP3    H150645   5.222   5.400   3.362 -1.5673 -0.8553 -0.6850
 9718TIP3    H250646   5.301   5.519   3.412 -0.7765 -2.1915  1.3806
 9719TIP3   OH250647   1.008   0.991  14.117  0.6288  0.7581  0.2863
 9719TIP3    H150648   0.967   0.963  14.035  0.9687  1.4906 -0.1396
 9719TIP3    H250649   0.944   1.049  14.158  0.6760  0.8132  0.2822
 9720TIP3   OH250650   2.988   1.284   3.465  0.3362 -0.1223 -0.0753
 9720TIP3    H150651   2.987   1.208   3.524 -0.4966  1.2566  1.8164
 9720TIP3    H250652   3.024   1.355   3.518 -1.9895  1.5965 -0.6056
 9721TIP3   OH250653   2.515   4.766  16.269 -0.2306  0.0474  0.5957
 9721TIP3    H150654   2.479   4.694  16.320  0.9510 -0.1684  1.1567
 9721TIP3    H250655   2.598   4.786  16.311  0.0541  0.8935 -0.3304
 9722TIP3   OH250656   5.605   0.997   1.235 -0.3193 -0.2463  0.4413
 9722TIP3    H150657   5.625   0.999   1.328  1.3412  0.7319  0.0945
 9722TIP3    H250658   5.644   1.077   1.200 -0.8736 -0.6183 -1.1034
 9723TIP3   OH250659   0.943   2.903   6.125  0.3893  0.3740 -0.2138
 9723TIP3    H150660   0.854   2.900   6.159 -0.8372  0.4501 -3.1338
 9723TIP3    H250661   0.993   2.846   6.182 -1.6240 -0.0186  1.2414
 9724TIP3   OH250662   6.686   6.574   3.745  0.1131  0.0555 -0.1722
 9724TIP3    H150663   6.659   6.651   3.795  1.1568  0.2697  0.0713
 9724TIP3    H250664   6.767   6.545   3.786  0.4553 -0.3659 -1.1097
 9725TIP3   OH250665   1.399   1.316   4.975  0.5635  0.3498 -0.3336
 9725TIP3    H150666   1.397   1.390   4.915  1.5280  1.2989  0.7582
 9725TIP3    H250667   1.422   1.241   4.920 -1.0338  0.7101 -1.5666
 9726TIP3   OH250668   5.901   2.272  14.926  0.1693 -0.6597 -0.2987
 9726TIP3    H150669   5.929   2.210  14.859  0.5467  0.4775 -1.2139
 9726TIP3    H250670   5.959   2.347  14.916 -1.7600  0.8423 -0.8047
 9727TIP3   OH250671   1.694   2.262  13.985  0.3577 -0.0359  0.7775
 9727TIP3    H150672   1.719   2.232  13.898  1.8045 -1.2163  1.5410
 9727TIP3    H250673   1.739   2.345  13.996 -0.0147  0.2283  0.3210
 9728TIP3   OH250674   3.972   3.443  13.684  0.6895 -0.1523 -0.0819
 9728TIP3    H150675   3.916   3.483  13.751  0.9208  0.6608 -0.3710
 9728TIP3    H250676   3.945   3.484  13.602  3.8754  2.7990  0.1109
 9729TIP3   OH250677   4.675   4.385  17.101  0.0083  0.1050 -0.0247
 9729TIP3    H150678   4.630   4.330  17.037 -0.8027  1.7105 -0.9025
 9729TIP3    H250679   4.707   4.460  17.051 -0.4411  1.3032  1.3850
 9730TIP3   OH250680   1.783   6.446  13.097 -0.5953 -0.3885 -0.0439
 9730TIP3    H150681   1.835   6.376  13.136  1.2699  0.8764 -0.1567
 9730TIP3    H250682   1.730   6.480  13.170 -1.4153 -1.7541  0.0454
 9731TIP3   OH250683   1.167   0.994   1.423 -0.5059  0.7972  0.0579
 9731TIP3    H150684   1.184   0.910   1.379 -0.7086  0.3419  0.8304
 9731TIP3    H250685   1.168   1.059   1.353 -1.2462  0.0273 -0.6811
 9732TIP3   OH250686   0.927   3.072   2.697  0.1838 -0.5849 -0.5621
 9732TIP3    H150687   0.900   3.100   2.785  1.1799 -1.8826  0.1938
 9732TIP3    H250688   0.847   3.076   2.645 -0.3813  0.4227  0.3449
 9733TIP3   OH250689   5.514   3.808  14.971 -0.0151 -0.4877  0.4258
 9733TIP3    H150690   5.420   3.797  14.958  0.0875 -1.5235  0.4642
 9733TIP3    H250691   5.554   3.777  14.889  0.3556 -1.5860  0.9990
 9734TIP3   OH250692   5.330   1.901   3.418 -0.1727  0.8981  0.1044
 9734TIP3    H150693   5.311   1.809   3.400 -1.2538  1.1289 -0.0175
 9734TIP3    H250694   5.425   1.906   3.421 -0.1077 -0.2990  0.5188
 9735TIP3   OH250695   3.165   1.727  10.674 -0.0635  0.2514  0.0061
 9735TIP3    H150696   3.170   1.634  10.651  0.7031 -0.0866  1.3993
 9735TIP3    H250697   3.211   1.771  10.603  0.3944 -0.5362 -0.2074
 9736TIP3   OH250698   4.761   4.444   0.158  0.8330  0.4380 -0.1655
 9736TIP3    H150699   4.749   4.398   0.075  1.0771 -1.6830  0.9035
 9736TIP3    H250700   4.855   4.464   0.160  0.8886  0.1912 -0.2453
 9737TIP3   OH250701   3.612   3.814  11.961  0.2197  0.0202  0.4673
 9737TIP3    H150702   3.666   3.887  11.931  1.3030  0.1083  2.5006
 9737TIP3    H250703   3.528   3.826  11.915  0.4941  2.2985  0.4534
 9738TIP3   OH250704   4.195   3.503  14.607  0.4419  0.0914  0.5151
 9738TIP3    H150705   4.287   3.526  14.595  0.5106 -0.5491 -0.2569
 9738TIP3    H250706   4.149   3.586  14.604  0.5826  0.1598 -2.9981
 9739TIP3   OH250707   5.042   0.443   5.456 -0.3678 -0.0661 -0.2519
 9739TIP3    H150708   4.966   0.412   5.505 -0.3725 -0.1685 -0.3233
 9739TIP3    H250709   5.023   0.419   5.365  0.5884 -1.8170 -0.0451
 9740TIP3   OH250710   5.726   1.431  12.105  0.5762  0.3386 -0.2061
 9740TIP3    H150711   5.794   1.474  12.052  0.9657  0.6896  0.5458
 9740TIP3    H250712   5.715   1.345  12.065  1.1000  0.4681 -0.6503
 9741TIP3   OH250713   5.586   3.319   4.369 -0.6028  0.2278 -0.1837
 9741TIP3    H150714   5.591   3.411   4.344 -0.5079  0.2601 -0.0504
 9741TIP3    H250715   5.493   3.304   4.387 -0.9346 -0.2161 -2.0944
 9742TIP3   OH250716   3.603   3.230   5.985 -0.0423 -0.0432 -0.2802
 9742TIP3    H150717   3.644   3.228   5.899 -0.1852 -0.7177 -0.3394
 9742TIP3    H250718   3.664   3.280   6.040  1.0166 -1.2574 -0.2952
 9743TIP3   OH250719   0.905   1.463  13.774 -0.2551 -0.3437  0.2241
 9743TIP3    H150720   0.927   1.463  13.867  0.3966  0.4088  0.0791
 9743TIP3    H250721   0.988   1.480  13.730 -0.5720 -0.6355 -0.4979
 9744TIP3   OH250722   1.134   4.961   3.941 -0.3388 -0.2045  0.0941
 9744TIP3    H150723   1.043   4.990   3.931 -0.1689  0.0691 -0.7072
 9744TIP3    H250724   1.128   4.866   3.953 -0.8564  0.0412  2.1286
 9745TIP3   OH250725   5.253   3.329  13.407  0.6706  0.1851 -0.6896
 9745TIP3    H150726   5.168   3.372  13.416  0.2591 -0.6409 -0.5447
 9745TIP3    H250727   5.289   3.363  13.325  1.7841  3.2225  0.9172
 9746TIP3   OH250728   2.283   2.803  12.355 -0.4536 -0.7026  0.5503
 9746TIP3    H150729   2.331   2.798  12.438  0.7847  0.5557 -0.0590
 9746TIP3    H250730   2.350   2.800  12.287 -0.9544  2.7910 -0.3025
 9747TIP3   OH250731   6.355   0.526   6.071 -0.1626 -0.5802  0.4249
 9747TIP3    H150732   6.349   0.598   6.134 -0.5513  1.9664 -2.3559
 9747TIP3    H250733   6.272   0.528   6.024  0.1902 -2.3082 -0.3510
 9748TIP3   OH250734   6.655   5.623  16.335 -0.5410 -0.0312  0.4384
 9748TIP3    H150735   6.716   5.555  16.364  2.1292  2.9975  2.8359
 9748TIP3    H250736   6.684   5.645  16.246 -0.0870 -0.6304  0.4329
 9749TIP3   OH250737   2.004   5.895  14.446 -0.6491 -0.4106 -0.0139
 9749TIP3    H150738   2.004   5.913  14.352  0.3672 -1.4370 -0.2363
 9749TIP3    H250739   2.049   5.811  14.454  1.1452  0.6300  1.5628
 9750TIP3   OH250740   3.169   6.616  13.989  0.0660  0.5192  0.8959
 9750TIP3    H150741   3.245   6.565  13.960 -1.3193 -0.2345 -1.7316
 9750TIP3    H250742   3.203   6.705  13.999  0.8998  0.7789 -2.8351
 9751TIP3   OH250743   1.602   4.829  16.514 -0.5142 -0.6424 -0.0078
 9751TIP3    H150744   1.545   4.797  16.444 -1.0319  1.6879 -0.7241
 9751TIP3    H250745   1.564   4.791  16.594 -1.3772 -1.3804 -0.7360
 9752TIP3   OH250746   3.718   2.178   3.231  0.1106  0.7436  0.1042
 9752TIP3    H150747   3.746   2.190   3.321  1.3483 -0.7978 -0.0313
 9752TIP3    H250748   3.672   2.259   3.209  1.0405  1.7335  1.6417
 9753TIP3   OH250749   6.150   0.804   2.427  0.1942 -0.0306 -0.3258
 9753TIP3    H150750   6.170   0.799   2.520  2.4372 -1.1776 -0.8159
 9753TIP3    H250751   6.054   0.798   2.423  0.0681 -0.1325  1.8812
 9754TIP3   OH250752   0.970   3.379   3.664  0.1265  0.5658  0.3120
 9754TIP3    H150753   1.036   3.352   3.601 -2.0050 -0.3311 -1.7088
 9754TIP3    H250754   1.006   3.458   3.705  3.3712 -1.1141  1.0401
 9755TIP3   OH250755   3.297   3.660  13.213 -0.0174 -0.0797  0.6890
 9755TIP3    H150756   3.233   3.596  13.244  0.5661 -0.1128  1.8735
 9755TIP3    H250757   3.330   3.624  13.131  0.8600 -1.6877  1.7074
 9756TIP3   OH250758   3.971   2.564  13.415 -0.1092  0.5323  0.2640
 9756TIP3    H150759   3.958   2.471  13.394  0.5035  0.3764  0.5525
 9756TIP3    H250760   3.990   2.565  13.509 -2.2659  1.1647  0.7562
 9757TIP3   OH250761   2.763   5.692  16.311  0.1920 -0.1487 -0.0133
 9757TIP3    H150762   2.722   5.606  16.309 -0.5228  0.1652  0.5925
 9757TIP3    H250763   2.719   5.741  16.240  0.4307 -0.2135 -0.2045
 9758TIP3   OH250764   0.225   5.965  14.402  0.2268  0.1307  0.2115
 9758TIP3    H150765   0.197   5.911  14.328  0.5095  0.1159  0.1143
 9758TIP3    H250766   0.316   5.940  14.416  0.5635  1.0439 -0.2514
 9759TIP3   OH250767   3.330   3.382   3.006  0.3894 -0.0193 -0.3369
 9759TIP3    H150768   3.372   3.296   3.011 -0.3859 -0.3485  0.7550
 9759TIP3    H250769   3.249   3.367   2.959  0.7080  0.3130 -1.0090
 9760TIP3   OH250770   1.132   5.281  11.650 -0.1112  0.7611 -0.0904
 9760TIP3    H150771   1.191   5.228  11.596 -1.6686 -0.3898 -0.7425
 9760TIP3    H250772   1.148   5.251  11.739  0.1774  0.3469 -0.2777
 9761TIP3   OH250773   3.096   1.273  13.355  0.1862 -0.7089 -0.1694
 9761TIP3    H150774   3.056   1.281  13.441  0.2382 -0.7287 -0.1437
 9761TIP3    H250775   3.033   1.221  13.304 -1.1002  1.4742 -0.9352
 9762TIP3   OH250776   1.740   2.799   1.549  0.0357 -0.4511 -0.3525
 9762TIP3    H150777   1.789   2.880   1.565  1.5041 -1.4123  0.2517
 9762TIP3    H250778   1.791   2.753   1.483 -0.3236 -1.2667 -0.0656
 9763TIP3   OH250779   3.472   1.834   2.626 -0.2439 -0.0758  0.4654
 9763TIP3    H150780   3.557   1.872   2.604  0.5368 -1.2825  1.3034
 9763TIP3    H250781   3.492   1.767   2.691 -1.6174 -1.6770 -0.6879
 9764TIP3   OH250782   2.034   4.741   6.261  0.2469 -0.1681  0.0133
 9764TIP3    H150783   1.991   4.712   6.342 -0.7474 -0.0881 -0.4703
 9764TIP3    H250784   1.966   4.790   6.214  0.8532 -0.0968 -0.8107
 9765TIP3   OH250785   4.807   5.508   1.949 -0.2219 -0.0537  1.0572
 9765TIP3    H150786   4.862   5.484   2.023  0.8585 -0.1443  0.2469
 9765TIP3    H250787   4.798   5.603   1.955 -0.3860 -0.0924  1.4611
 9766TIP3   OH250788   4.481   3.309  15.600 -0.7833  0.4442  0.2957
 9766TIP3    H150789   4.518   3.354  15.676  0.7426 -1.8316  0.9900
 9766TIP3    H250790   4.416   3.249  15.637 -0.1743 -0.5350 -0.2126
 9767TIP3   OH250791   6.522   2.764  13.755 -0.3881 -0.3679 -0.0992
 9767TIP3    H150792   6.570   2.807  13.825 -3.2791 -3.1978  4.1358
 9767TIP3    H250793   6.566   2.680  13.744 -1.0099 -0.6729 -0.3375
 9768TIP3   OH250794   3.639   2.561  14.272  0.1135 -0.0984  0.0300
 9768TIP3    H150795   3.688   2.495  14.223 -0.3392 -0.4124  0.0032
 9768TIP3    H250796   3.639   2.638  14.215  2.3987  0.6405  0.8745
 9769TIP3   OH250797   1.618   2.544  12.907 -0.4384 -0.2784  0.6053
 9769TIP3    H150798   1.592   2.618  12.962  1.3917  0.1093  1.0162
 9769TIP3    H250799   1.587   2.568  12.819  0.9041  1.4771  0.5345
 9770TIP3   OH250800   0.009   6.109  16.176 -0.4786 -0.9636  0.1668
 9770TIP3    H150801   0.003   6.135  16.084  0.4905  0.1027  0.3834
 9770TIP3    H250802   0.103   6.115  16.197 -0.8510  0.5184  1.6812
 9771TIP3   OH250803   6.493   0.208  12.585 -0.7716  0.5083 -0.1911
 9771TIP3    H150804   6.429   0.138  12.587 -0.4633  0.1253 -1.9754
 9771TIP3    H250805   6.572   0.168  12.548 -0.2105  1.4992 -0.1079
 9772TIP3   OH250806   3.253   3.737   0.004  0.0445 -0.0337 -0.6212
 9772TIP3    H150807   3.225   3.764  -0.083  0.7782 -1.4737 -1.3362
 9772TIP3    H250808   3.341   3.774   0.014 -0.6045  1.3978  0.1522
 9773TIP3   OH250809   5.891   5.508  15.635  0.0408 -0.0759  0.2661
 9773TIP3    H150810   5.884   5.534  15.543  0.0352 -0.2738  0.2099
 9773TIP3    H250811   5.978   5.537  15.662 -0.4951  1.3225  0.6258
 9774TIP3   OH250812   6.683   3.736   5.257  0.7519  0.1136 -0.5927
 9774TIP3    H150813   6.595   3.762   5.284  0.4893 -1.2668 -0.0008
 9774TIP3    H250814   6.672   3.647   5.224  2.1956 -0.8415  1.3006
 9775TIP3   OH250815   1.572   3.688   1.103 -0.2466  0.3164 -0.2915
 9775TIP3    H150816   1.617   3.647   1.177 -2.5289 -1.2599  0.3165
 9775TIP3    H250817   1.491   3.722   1.140 -0.4725  1.3943 -1.6978
 9776TIP3   OH250818   1.486   5.190   1.509 -0.0604 -0.1210 -0.5637
 9776TIP3    H150819   1.525   5.244   1.578 -0.0336  0.6841 -1.2014
 9776TIP3    H250820   1.538   5.110   1.509  1.6078  0.9267 -1.3987
 9777TIP3   OH250821   5.597   0.099   2.953 -0.2535 -0.3493 -0.5938
 9777TIP3    H150822   5.661   0.149   3.004  0.5918 -0.1971 -1.7557
 9777TIP3    H250823   5.636   0.012   2.944 -0.1991 -0.2572 -1.3047
 9778TIP3   OH250824   3.790   5.488  10.925  0.3188  0.5918 -0.1652
 9778TIP3    H150825   3.866   5.464  10.872  0.3530 -0.8065  0.4657
 9778TIP3    H250826   3.717   5.445  10.882  0.3068 -0.3266  0.7158
 9779TIP3   OH250827   5.309   5.281  11.809 -0.1409  0.3927  0.3724
 9779TIP3    H150828   5.233   5.336  11.789 -0.1302 -0.1444 -1.2907
 9779TIP3    H250829   5.306   5.211  11.744  0.8561 -0.5802  1.3255
 9780TIP3   OH250830   4.101   0.052   1.890  0.1819  0.1059  0.2886
 9780TIP3    H150831   4.166   0.041   1.821 -0.2744 -1.0027  0.0070
 9780TIP3    H250832   4.091  -0.036   1.928 -1.0103  0.2757  0.4316
 9781TIP3   OH250833   3.243   2.403  15.322 -0.4406  0.2849  0.0624
 9781TIP3    H150834   3.312   2.390  15.387 -0.3454  1.3193  0.1904
 9781TIP3    H250835   3.169   2.438  15.372 -1.4141 -1.6527  0.0829
 9782TIP3   OH250836   3.141   1.896   2.463 -0.1133 -0.2353 -0.3497
 9782TIP3    H150837   3.154   1.839   2.387 -1.5817 -0.9301 -0.1011
 9782TIP3    H250838   3.160   1.840   2.538  1.4772  0.4874 -0.1650
 9783TIP3   OH250839   3.897   2.156  11.067  0.2101  0.2886 -0.0562
 9783TIP3    H150840   3.893   2.099  10.990 -2.3622 -0.6451  0.6496
 9783TIP3    H250841   3.874   2.243  11.033 -0.4768 -0.0304 -0.4294
 9784TIP3   OH250842   5.360   4.942   4.682  0.8501  0.7465 -0.3158
 9784TIP3    H150843   5.346   4.934   4.587  0.3454  1.1089 -0.2729
 9784TIP3    H250844   5.272   4.946   4.719  1.0481  0.9413  0.1411
 9785TIP3   OH250845   0.913   2.787  12.865  0.0204  0.3869  0.1661
 9785TIP3    H150846   0.869   2.705  12.845  1.3636 -0.2731 -0.2090
 9785TIP3    H250847   1.006   2.769  12.851  0.5185  1.4682  1.7296
 9786TIP3   OH250848   0.429   0.274   1.395  0.3657 -0.6299 -0.1329
 9786TIP3    H150849   0.457   0.344   1.454 -2.8835  0.3639  0.4361
 9786TIP3    H250850   0.480   0.198   1.422  2.4127  0.9402  0.7135
 9787TIP3   OH250851   2.652   1.074   0.712 -0.5002 -0.1385  0.1168
 9787TIP3    H150852   2.694   1.009   0.767 -0.9523  0.3158  1.0235
 9787TIP3    H250853   2.564   1.083   0.748 -1.6457 -1.5194 -2.1089
 9788TIP3   OH250854   4.688   0.984  11.215 -0.0516  0.1921  0.4841
 9788TIP3    H150855   4.600   0.982  11.251 -0.3206 -1.3245 -0.1649
 9788TIP3    H250856   4.695   1.070  11.173 -0.1092  1.5632  3.0883
 9789TIP3   OH250857   5.360   2.274  12.233  0.2964 -0.0253 -0.1514
 9789TIP3    H150858   5.384   2.182  12.217 -0.0292 -0.0351 -0.5929
 9789TIP3    H250859   5.440   2.323  12.213  0.6857 -0.2727  0.7807
 9790TIP3   OH250860   0.655   5.201  11.449 -0.0268  0.0823  0.2415
 9790TIP3    H150861   0.738   5.226  11.488 -0.8674  2.0070  0.8764
 9790TIP3    H250862   0.589   5.227  11.512 -1.2325  0.3324 -1.0682
 9791TIP3   OH250863   3.620   0.662   0.215 -0.6050  0.4538 -0.3351
 9791TIP3    H150864   3.598   0.579   0.258 -0.5446 -0.1449 -1.4127
 9791TIP3    H250865   3.537   0.709   0.211 -0.2766  1.3895  2.1398
 9792TIP3   OH250866   5.896   5.206  15.633 -0.0956 -0.4370  0.2771
 9792TIP3    H150867   5.832   5.276  15.621 -1.1584 -1.7311 -2.1940
 9792TIP3    H250868   5.978   5.241  15.597 -0.6201 -0.4296 -0.9514
 9793TIP3   OH250869   0.382   2.410   1.620  0.1633 -0.1625  0.0508
 9793TIP3    H150870   0.350   2.448   1.702 -2.5164  0.4399 -1.1608
 9793TIP3    H250871   0.433   2.481   1.580 -0.5185  0.3834  0.1284
 9794TIP3   OH250872   5.691   5.571   0.767 -0.8675 -0.0939 -0.2769
 9794TIP3    H150873   5.691   5.599   0.675  1.2436 -0.9488 -0.6200
 9794TIP3    H250874   5.782   5.544   0.782 -0.4240  2.6052  2.8865
 9795TIP3   OH250875   1.366   3.538  11.763  0.1086  0.4224  0.2282
 9795TIP3    H150876   1.458   3.518  11.746 -0.0861  1.1552 -2.1553
 9795TIP3    H250877   1.326   3.540  11.675 -2.0589  0.6878  1.1565
 9796TIP3   OH250878   5.838   5.149   6.800 -0.0379  0.5111  0.0338
 9796TIP3    H150879   5.754   5.104   6.803  0.6829 -1.0258 -1.3376
 9796TIP3    H250880   5.899   5.084   6.765  1.8669  1.3966  1.5257
 9797TIP3   OH250881   1.721   2.691  16.855 -0.1807 -0.0046 -0.0139
 9797TIP3    H150882   1.756   2.663  16.770 -0.3719  0.6669 -0.3251
 9797TIP3    H250883   1.705   2.610  16.902 -0.8816 -0.4419 -0.9572
 9798TIP3   OH250884   3.356   6.651   5.061  0.4883 -0.1369  0.0534
 9798TIP3    H150885   3.320   6.712   4.996  1.4957 -0.6399 -1.0333
 9798TIP3    H250886   3.280   6.605   5.096 -0.0529 -0.3120 -1.2746
 9799TIP3   OH250887   6.533   2.790  15.055  0.0073 -0.5362 -0.1183
 9799TIP3    H150888   6.611   2.837  15.024  0.3964 -0.3053  1.1572
 9799TIP3    H250889   6.566   2.734  15.126 -1.0447 -0.1317  0.7155
 9800TIP3   OH250890   3.354   4.975  11.537  0.0446  0.5161  0.0729
 9800TIP3    H150891   3.424   4.934  11.487  0.8121 -0.3609  1.7668
 9800TIP3    H250892   3.298   4.902  11.564 -0.2950  0.9461  0.5506
 9801TIP3   OH250893   0.848   2.439   0.050  0.3909  0.2906 -0.3316
 9801TIP3    H150894   0.846   2.363   0.107  1.3692  0.3612 -0.1784
 9801TIP3    H250895   0.812   2.510   0.103  1.4448  0.3948  0.2846
 9802TIP3   OH250896   5.986   5.536   6.395 -0.2257 -0.0796 -0.1517
 9802TIP3    H150897   5.920   5.471   6.420  0.6879 -0.6636  0.8203
 9802TIP3    H250898   6.046   5.539   6.470 -1.2024  3.1915  0.6392
 9803TIP3   OH250899   2.456   4.023  13.227 -0.3098  0.1818 -0.7944
 9803TIP3    H150900   2.399   3.969  13.173 -0.8087  1.0680 -1.1704
 9803TIP3    H250901   2.544   3.986  13.215 -1.0941 -3.2701  2.2550
 9804TIP3   OH250902   0.258   6.822   5.700  0.4145  0.6265 -0.0627
 9804TIP3    H150903   0.232   6.909   5.732 -0.7027  0.5966 -0.8601
 9804TIP3    H250904   0.229   6.762   5.769  0.4960  0.8082  0.1347
 9805TIP3   OH250905   4.978   0.710   5.462 -0.4384  0.8650 -0.3436
 9805TIP3    H150906   5.009   0.620   5.453 -0.2617  1.0491 -1.9310
 9805TIP3    H250907   4.884   0.703   5.474 -0.0927  0.3692  2.8118
 9806TIP3   OH250908   1.928   5.285  12.165 -0.3902 -0.2408  0.0292
 9806TIP3    H150909   1.926   5.315  12.074  0.8034 -0.8677 -0.2202
 9806TIP3    H250910   1.878   5.351  12.213  1.9519  2.0718 -0.5114
 9807TIP3   OH250911   6.780   6.813   4.921 -0.2359  0.0838 -0.5072
 9807TIP3    H150912   6.720   6.817   4.846  0.7381 -0.3203 -1.3441
 9807TIP3    H250913   6.726   6.783   4.994 -1.4961  1.6812 -0.7159
 9808TIP3   OH250914   5.822   0.172  11.123 -0.2744  0.1651  0.2509
 9808TIP3    H150915   5.885   0.122  11.073 -0.6480  0.2221 -0.2844
 9808TIP3    H250916   5.867   0.254  11.144 -0.4438  0.5444 -0.8220
 9809TIP3   OH250917   3.967   2.064   1.648  0.4291 -0.0403  0.1722
 9809TIP3    H150918   3.887   2.085   1.695  0.0833  0.6889 -0.7170
 9809TIP3    H250919   4.037   2.104   1.701  0.1078  0.2626  0.3727
 9810TIP3   OH250920   5.773   3.785   4.229 -0.1376  0.4380  0.0023
 9810TIP3    H150921   5.814   3.769   4.314  1.1349  0.0416 -0.6549
 9810TIP3    H250922   5.838   3.754   4.165 -1.6987 -0.7647 -1.0861
 9811TIP3   OH250923   4.332   6.608   3.937  0.2757  0.6361  0.1766
 9811TIP3    H150924   4.238   6.603   3.952  0.2011  1.0369 -0.1194
 9811TIP3    H250925   4.340   6.659   3.856  0.7713  1.3414  0.6558
 9812TIP3   OH250926   6.484   0.474  14.960 -0.5083 -0.3798  0.4833
 9812TIP3    H150927   6.491   0.524  14.879 -0.2469 -1.8375 -0.4362
 9812TIP3    H250928   6.574   0.443  14.976 -0.7368 -0.8861  0.8018
 9813TIP3   OH250929   5.487   0.489  12.642  0.3935  0.2369 -0.0692
 9813TIP3    H150930   5.427   0.512  12.570  0.9855 -0.3748 -0.7722
 9813TIP3    H250931   5.453   0.407  12.677  2.3522 -1.7323 -2.3636
 9814TIP3   OH250932   2.268   4.686  16.675  0.0853 -0.0224  0.1366
 9814TIP3    H150933   2.328   4.611  16.677  1.4547  1.0262  1.8312
 9814TIP3    H250934   2.315   4.753  16.625 -0.3590  0.2923  0.1358
 9815TIP3   OH250935   6.210   0.859   3.599  0.2407  0.2017 -0.4502
 9815TIP3    H150936   6.141   0.914   3.562 -1.0279 -1.7736 -1.1937
 9815TIP3    H250937   6.267   0.838   3.525 -0.5139 -1.1865 -0.6755
 9816TIP3   OH250938   2.885   3.026  15.830  0.1904 -0.0122  0.7714
 9816TIP3    H150939   2.907   3.118  15.844  0.3165 -0.0016  0.5057
 9816TIP3    H250940   2.914   2.983  15.911  2.1035 -0.1415  0.0668
 9817TIP3   OH250941   6.359   0.741  16.204 -0.3288 -0.1975 -0.0762
 9817TIP3    H150942   6.397   0.661  16.242 -3.6145 -1.1543  1.5919
 9817TIP3    H250943   6.363   0.806  16.274  1.0595  0.7110 -0.9648
 9818TIP3   OH250944   0.227   1.032  16.235  0.3934  0.0112  0.4408
 9818TIP3    H150945   0.236   0.936  16.239  0.0948 -0.0059  0.7841
 9818TIP3    H250946   0.227   1.059  16.327 -0.3581  0.2577  0.3717
 9819TIP3   OH250947   1.727   5.444  13.834  0.1628  0.0417  0.0332
 9819TIP3    H150948   1.671   5.443  13.912  1.2986 -0.3428  0.8543
 9819TIP3    H250949   1.775   5.527  13.840  3.1449 -1.6500  1.8901
 9820TIP3   OH250950   5.869   1.728  11.892  0.2362  0.3969 -0.8533
 9820TIP3    H150951   5.963   1.739  11.907 -0.0941  0.8891  1.3168
 9820TIP3    H250952   5.862   1.653  11.833  1.9808  0.3741 -1.0809
 9821TIP3   OH250953   0.031   1.492   0.266 -0.3363  0.0436 -0.0601
 9821TIP3    H150954  -0.051   1.485   0.217 -0.5497 -1.7524  0.4959
 9821TIP3    H250955   0.100   1.487   0.200 -0.6267  1.6092 -0.5374
 9822TIP3   OH250956   6.754   6.640   5.784 -0.3653 -0.6325 -0.0824
 9822TIP3    H150957   6.808   6.694   5.842 -0.9416 -0.0845 -0.0469
 9822TIP3    H250958   6.814   6.614   5.714 -0.4739  1.5489 -1.0834
 9823TIP3   OH250959   3.745   6.577   3.833 -0.0916  0.4541 -0.3738
 9823TIP3    H150960   3.757   6.578   3.928  0.2467  0.6025 -0.4194
 9823TIP3    H250961   3.783   6.660   3.803 -1.9625  1.3574 -0.4221
 9824TIP3   OH250962   4.885   0.679   3.940  0.2644 -0.3063 -0.6768
 9824TIP3    H150963   4.841   0.660   4.023  1.0571 -0.6633 -0.3350
 9824TIP3    H250964   4.842   0.622   3.877  0.2036 -0.6168 -0.3563
 9825TIP3   OH250965   0.008   6.546   1.380 -0.1072 -0.4419 -0.2401
 9825TIP3    H150966  -0.080   6.508   1.377  0.0872 -0.8652 -0.6376
 9825TIP3    H250967   0.044   6.529   1.293  0.0062  0.6109 -0.4153
 9826TIP3   OH250968   1.142   0.053  16.105 -0.1971  0.3994  0.1718
 9826TIP3    H150969   1.222   0.011  16.075  0.7466  0.7908  2.0074
 9826TIP3    H250970   1.152   0.060  16.200 -2.8912 -0.5239  0.6010
 9827TIP3   OH250971   6.824   3.744   2.554  0.4167 -0.5419  0.2947
 9827TIP3    H150972   6.868   3.660   2.565  1.2325 -0.0797  0.6923
 9827TIP3    H250973   6.881   3.807   2.598 -0.5137  0.1256  0.5870
 9828TIP3   OH250974   4.191   3.790  13.163  0.1812 -0.1508 -0.6002
 9828TIP3    H150975   4.144   3.724  13.112  1.5274 -2.4649  0.9435
 9828TIP3    H250976   4.248   3.833  13.100 -1.7853  0.6711 -1.9286
 9829TIP3   OH250977   5.252   3.355  13.985  0.3457  0.2803 -0.6208
 9829TIP3    H150978   5.339   3.392  14.001  0.4266 -0.1818  0.0399
 9829TIP3    H250979   5.202   3.427  13.947  1.9474 -0.3352 -4.2700
 9830TIP3   OH250980   4.906   5.207  15.483 -0.4060 -0.2074  0.0606
 9830TIP3    H150981   4.936   5.116  15.476 -0.0534 -0.0111 -1.1946
 9830TIP3    H250982   4.874   5.214  15.573  0.4118 -1.3161  0.4740
 9831TIP3   OH250983   4.873   2.795   5.234  0.0287 -0.6171 -0.0142
 9831TIP3    H150984   4.810   2.724   5.223 -2.6574  1.5509  0.1941
 9831TIP3    H250985   4.891   2.825   5.145 -1.3567  0.3995  0.0123
 9832TIP3   OH250986   4.260   6.224   3.010 -0.4160  0.2785 -0.0494
 9832TIP3    H150987   4.351   6.251   3.006 -0.0451 -0.7144  1.0805
 9832TIP3    H250988   4.215   6.298   3.053  0.1596  0.1185  0.8593
 9833TIP3   OH250989   1.549   5.851  12.235  0.1871 -0.1560 -0.2603
 9833TIP3    H150990   1.536   5.773  12.181  0.5354 -0.4141  0.0274
 9833TIP3    H250991   1.531   5.924  12.175  0.7287 -0.4361 -0.7849
 9834TIP3   OH250992   5.709   0.109  12.711  0.3353  0.5312 -0.3181
 9834TIP3    H150993   5.769   0.071  12.647 -0.4949 -1.2696 -0.0818
 9834TIP3    H250994   5.632   0.134  12.660  0.1045  0.0958 -0.1839
 9835TIP3   OH250995   0.941   3.866   0.236  0.7858  0.4780  0.2904
 9835TIP3    H150996   1.012   3.927   0.216 -0.6436  2.2945  0.5872
 9835TIP3    H250997   0.942   3.858   0.331  1.0802 -0.1435  0.2446
 9836TIP3   OH250998   0.224   4.592  15.646 -0.3573  0.0084 -0.3194
 9836TIP3    H150999   0.196   4.563  15.560  0.5533  0.5845 -0.8262
 9836TIP3    H251000   0.208   4.686  15.647  3.1067  0.7719 -1.3596
 9837TIP3   OH251001   1.472   0.771   0.775  0.4063  0.2731  0.2941
 9837TIP3    H151002   1.438   0.718   0.703  0.2115 -0.4489  0.9056
 9837TIP3    H251003   1.489   0.857   0.736  1.2532 -0.3851 -0.8360
 9838TIP3   OH251004   5.965   1.855  13.316 -0.0244  0.0907  0.1220
 9838TIP3    H151005   5.885   1.906  13.308  0.5534  0.8002 -1.8639
 9838TIP3    H251006   6.032   1.919  13.342 -0.0159 -0.4393  1.4880
 9839TIP3   OH251007   3.698   1.158   6.193  0.1218 -0.4546  0.7907
 9839TIP3    H151008   3.782   1.195   6.221 -0.3344  1.8130 -0.5586
 9839TIP3    H251009   3.648   1.148   6.275  1.8368 -2.4264  1.6826
 9840TIP3   OH251010   3.349   0.133   2.190 -0.5754  0.4171  0.0005
 9840TIP3    H151011   3.323   0.055   2.240  0.1207 -0.7444 -1.3939
 9840TIP3    H251012   3.428   0.164   2.234 -0.3168 -0.2337  0.0073
 9841TIP3   OH251013   4.170   1.209   5.516 -0.4005 -0.0887 -0.3276
 9841TIP3    H151014   4.177   1.154   5.438 -0.1926 -0.7049  0.1180
 9841TIP3    H251015   4.247   1.266   5.511  0.1136 -0.7492 -0.1029
 9842TIP3   OH251016   5.411   4.638  14.354 -0.2152 -0.4563  0.1953
 9842TIP3    H151017   5.457   4.558  14.330 -0.4713 -0.1908 -1.2765
 9842TIP3    H251018   5.320   4.611  14.365 -0.2483 -0.4224  0.0026
 9843TIP3   OH251019   6.829   3.454  16.830 -0.2221 -0.7189 -0.5586
 9843TIP3    H151020   6.848   3.538  16.788 -1.6312 -0.3868 -0.5871
 9843TIP3    H251021   6.829   3.474  16.924  0.7671 -0.9929 -0.4895
 9844TIP3   OH251022   1.027   2.421   4.273 -0.3521  0.2415  0.6409
 9844TIP3    H151023   0.932   2.410   4.268 -0.0362 -2.4565 -2.1860
 9844TIP3    H251024   1.062   2.332   4.269  2.3313  1.2165  0.2613
 9845TIP3   OH251025   6.642   5.965  16.329 -0.3064  0.2321 -0.0852
 9845TIP3    H151026   6.724   5.922  16.305 -0.2045 -0.1964  0.9706
 9845TIP3    H251027   6.628   6.031  16.262  1.0661  0.5170 -0.1063
 9846TIP3   OH251028   6.519   6.182  16.193 -0.2377 -0.0452 -0.2593
 9846TIP3    H151029   6.446   6.228  16.151 -1.8655 -1.3577  0.9613
 9846TIP3    H251030   6.581   6.250  16.216 -2.3130  1.5267  1.0498
 9847TIP3   OH251031   4.522   3.615  10.944  0.2952 -0.7793  0.0352
 9847TIP3    H151032   4.573   3.564  10.882  0.8623 -0.1519 -0.0262
 9847TIP3    H251033   4.439   3.568  10.951  0.3766 -1.0804 -0.8855
 9848TIP3   OH251034   3.684   3.755  12.219 -0.5491 -0.0627  0.1343
 9848TIP3    H151035   3.639   3.678  12.255  1.2050 -0.9293  0.5815
 9848TIP3    H251036   3.677   3.744  12.124 -0.7565 -0.5013  0.1961
 9849TIP3   OH251037   2.772   4.936   0.057  0.0713 -0.2260 -0.3031
 9849TIP3    H151038   2.841   4.870   0.069 -0.2118 -0.4263  0.2352
 9849TIP3    H251039   2.714   4.897  -0.009 -0.6206 -0.9631  0.7045
 9850TIP3   OH251040   4.998   4.494  13.072 -0.1520 -0.3494  0.2144
 9850TIP3    H151041   5.020   4.418  13.125 -0.2138 -0.5539 -0.0489
 9850TIP3    H251042   4.903   4.486  13.057 -0.3480  0.3338  1.0466
 9851TIP3   OH251043   4.912   1.318   4.153  0.2326 -0.2947  0.3210
 9851TIP3    H151044   4.984   1.332   4.091 -0.2107 -1.5141 -0.5224
 9851TIP3    H251045   4.936   1.238   4.200 -1.3078 -1.7040 -1.1652
 9852TIP3   OH251046   5.242   4.489   4.972  0.9145 -0.5094  0.4384
 9852TIP3    H151047   5.316   4.429   4.965  0.3169 -1.2562  0.3753
 9852TIP3    H251048   5.205   4.471   5.058  0.8396 -0.1017  0.4918
 9853TIP3   OH251049   4.664   1.778  13.240  0.3828 -0.0570  0.7171
 9853TIP3    H151050   4.582   1.733  13.259 -0.6447  1.5359  0.2014
 9853TIP3    H251051   4.731   1.710  13.252 -0.9011 -1.1833  1.9816
 9854TIP3   OH251052   3.248   6.352   5.146  0.2835 -0.0080  0.1586
 9854TIP3    H151053   3.173   6.410   5.147  1.5909  1.7463  0.9419
 9854TIP3    H251054   3.261   6.327   5.237  1.7236  1.2209  0.3298
 9855TIP3   OH251055   1.697   6.057  14.007  0.1090 -0.4700 -0.1016
 9855TIP3    H151056   1.714   5.963  13.999  0.3712 -0.4749  0.4679
 9855TIP3    H251057   1.715   6.076  14.099 -1.8748 -0.2347  0.2624
 9856TIP3   OH251058   5.541   3.487  12.612  0.1971  0.1715 -0.3958
 9856TIP3    H151059   5.490   3.499  12.533 -0.0644 -1.2121 -0.4654
 9856TIP3    H251060   5.493   3.421  12.662  2.1980 -1.6920 -0.7601
 9857TIP3   OH251061   5.416   4.435   2.302  0.0238  0.2875  0.0373
 9857TIP3    H151062   5.352   4.364   2.290  1.2117 -1.2558  2.0648
 9857TIP3    H251063   5.385   4.481   2.380  0.2841  0.8573 -0.1930
 9858TIP3   OH251064   1.257   2.792   2.698 -0.3888 -0.3428 -0.2649
 9858TIP3    H151065   1.282   2.877   2.735 -1.4882 -0.6678  1.3009
 9858TIP3    H251066   1.189   2.813   2.634 -0.3954 -0.0040 -0.1509
 9859TIP3   OH251067   3.134   1.078   0.190  0.0960 -0.1590  0.3983
 9859TIP3    H151068   3.217   1.058   0.234 -0.4813 -0.7304  1.2452
 9859TIP3    H251069   3.160   1.128   0.112  1.1300  0.8637  1.3691
 9860TIP3   OH251070   5.761   0.749  13.180 -0.0575  0.1271 -0.3791
 9860TIP3    H151071   5.716   0.670  13.151  0.7869 -0.9725  1.1468
 9860TIP3    H251072   5.694   0.800  13.227 -0.6054  0.3464 -1.3791
 9861TIP3   OH251073   5.745   0.477  11.105  0.6712  0.0277 -0.4646
 9861TIP3    H151074   5.839   0.471  11.121  0.9093 -0.5854 -1.9029
 9861TIP3    H251075   5.738   0.514  11.017 -0.3824 -1.3511 -1.0001
 9862TIP3   OH251076   4.178   5.765  14.363  0.5888 -0.3832  0.2539
 9862TIP3    H151077   4.154   5.769  14.456  0.8365  1.1601  0.2739
 9862TIP3    H251078   4.202   5.855  14.341  3.3015 -1.2220 -0.5909
 9863TIP3   OH251079   1.011   0.163  13.227 -0.1973 -0.9133 -0.4363
 9863TIP3    H151080   0.982   0.235  13.171  1.4417 -0.7738 -1.1697
 9863TIP3    H251081   1.101   0.146  13.200 -0.2393 -2.6558  0.3357
 9864TIP3   OH251082   1.333   0.342  15.525  0.1525 -0.3019 -0.3120
 9864TIP3    H151083   1.393   0.416  15.533 -0.4909  0.0768  1.4496
 9864TIP3    H251084   1.255   0.379  15.483 -0.5625  0.3359  1.4534
 9865TIP3   OH251085   6.358   5.113   3.703  0.2526 -0.0226  0.4387
 9865TIP3    H151086   6.347   5.200   3.664 -3.3239 -0.8914 -0.8791
 9865TIP3    H251087   6.422   5.070   3.646 -0.0364  0.8654 -0.6054
 9866TIP3   OH251088   3.936   1.214   0.099  0.2236 -0.1825  0.1327
 9866TIP3    H151089   4.005   1.279   0.108  0.7890 -0.8941  1.0419
 9866TIP3    H251090   3.976   1.132   0.128  0.7604 -1.8140 -4.3694
 9867TIP3   OH251091   6.159   3.901  12.481  0.5833 -0.0416 -0.1931
 9867TIP3    H151092   6.194   3.988  12.460 -1.1494  1.0372  1.1175
 9867TIP3    H251093   6.098   3.882  12.410  0.1457  0.3133  0.0866
 9868TIP3   OH251094   5.725   0.791  13.959  0.1728 -0.1034  0.1193
 9868TIP3    H151095   5.795   0.750  13.908  1.5161  0.7934  1.1765
 9868TIP3    H251096   5.768   0.822  14.039 -1.5897 -0.1982  1.1716
 9869TIP3   OH251097   6.680   2.832  16.899 -0.1035  0.0240  0.3264
 9869TIP3    H151098   6.639   2.759  16.945 -0.2960  0.7465  1.3349
 9869TIP3    H251099   6.764   2.798  16.870  0.3160 -0.2679  1.8059
 9870TIP3   OH251100   6.636   2.762  15.389  0.1026 -0.0802 -0.5550
 9870TIP3    H151101   6.680   2.758  15.474  0.8697  3.1229 -0.6678
 9870TIP3    H251102   6.705   2.750  15.325 -0.2076 -0.8281 -0.7649
 9871TIP3   OH251103   2.124   5.081   0.675  0.3059  0.3281 -0.0933
 9871TIP3    H151104   2.108   5.067   0.582 -2.4823  0.4567  0.2853
 9871TIP3    H251105   2.181   5.158   0.679  2.5722 -1.1334 -1.6931
 9872TIP3   OH251106   6.094   0.267  16.975 -0.1565  0.4481 -0.3554
 9872TIP3    H151107   6.083   0.360  16.997 -0.1635  0.0191  1.6019
 9872TIP3    H251108   6.015   0.225  17.008  0.0248 -0.3339 -0.8738
 9873TIP3   OH251109   1.318   2.993   1.557 -0.2834 -0.5756 -0.4100
 9873TIP3    H151110   1.268   3.016   1.635 -0.3037  1.4240 -0.9630
 9873TIP3    H251111   1.266   3.026   1.484  0.6565 -0.6594 -1.1464
 9874TIP3   OH251112   4.984   6.542  13.391  0.4758  0.3670  0.3213
 9874TIP3    H151113   4.991   6.448  13.404 -1.2544  0.1660 -0.0064
 9874TIP3    H251114   4.988   6.554  13.296 -0.3209  0.5061  0.2978
 9875TIP3   OH251115   1.716   5.534   3.337 -0.0193  0.5021 -0.5069
 9875TIP3    H151116   1.785   5.581   3.383  0.2107  0.1639 -0.5066
 9875TIP3    H251117   1.762   5.472   3.281 -0.3200  0.2924 -0.5246
 9876TIP3   OH251118   1.263   5.637   3.895 -0.0504  0.4021  0.4444
 9876TIP3    H151119   1.229   5.552   3.866  1.5643  0.5932 -2.4346
 9876TIP3    H251120   1.247   5.638   3.990 -0.3884 -2.9763  0.5644
 9877TIP3   OH251121   3.172   6.752   4.038  0.2662 -0.0714 -0.5844
 9877TIP3    H151122   3.221   6.684   4.084  2.0020  0.5120 -1.4913
 9877TIP3    H251123   3.239   6.810   4.002 -1.0800  0.4971 -2.3287
 9878TIP3   OH251124   4.731   0.824   3.522  0.1090 -0.5662 -0.1203
 9878TIP3    H151125   4.656   0.764   3.521 -2.0789  1.9863 -0.9572
 9878TIP3    H251126   4.758   0.826   3.614 -0.8030 -1.5764  0.1985
 9879TIP3   OH251127   2.841   3.369  11.726  0.1152 -0.2320 -0.5085
 9879TIP3    H151128   2.747   3.355  11.714  0.1720 -0.7505 -0.3707
 9879TIP3    H251129   2.849   3.462  11.748 -0.1139  0.4998 -3.2280
 9880TIP3   OH251130   5.123   5.445  14.938  0.6896 -0.3657 -0.5612
 9880TIP3    H151131   5.047   5.480  14.984  1.1118 -0.1231 -0.0493
 9880TIP3    H251132   5.086   5.382  14.875  0.2272 -2.3680  1.5821
 9881TIP3   OH251133   3.467   1.107   5.736 -0.5498  0.4033 -0.4540
 9881TIP3    H151134   3.548   1.104   5.788 -1.3741 -0.9603  0.8356
 9881TIP3    H251135   3.397   1.109   5.801 -1.5911  0.9311 -1.5541
 9882TIP3   OH251136   1.411   5.241   1.254 -0.0329  0.1642 -0.0986
 9882TIP3    H151137   1.423   5.227   1.348 -2.3271  1.9211  0.5531
 9882TIP3    H251138   1.490   5.287   1.226  0.0874  0.8418  1.2777
 9883TIP3   OH251139   6.341   3.065   3.741 -0.0201  0.5441 -0.0528
 9883TIP3    H151140   6.428   3.104   3.742  0.7784 -1.1354 -0.3665
 9883TIP3    H251141   6.331   3.026   3.828 -0.4966  0.8008  0.0112
 9884TIP3   OH251142   6.131   1.987  12.516 -0.2947 -0.5304  0.1385
 9884TIP3    H151143   6.143   1.908  12.569 -1.2262 -1.7161 -1.3254
 9884TIP3    H251144   6.189   1.974  12.441 -0.7467 -0.0090 -0.3067
 9885TIP3   OH251145   5.315   2.991   4.686 -0.5106  0.4022 -0.2683
 9885TIP3    H151146   5.256   2.977   4.613  0.0159 -0.7386 -0.5007
 9885TIP3    H251147   5.293   3.078   4.719 -2.4806 -0.0931 -0.1752
 9886TIP3   OH251148   4.258   5.473  12.551  0.0455  0.5984 -0.5989
 9886TIP3    H151149   4.190   5.472  12.618  1.0401 -0.5056  0.4463
 9886TIP3    H251150   4.282   5.565  12.541  0.1624  0.7480  0.8827
 9887TIP3   OH251151   1.686   5.009  11.100 -0.2337 -0.4368 -0.1415
 9887TIP3    H151152   1.768   5.014  11.052 -0.1439  0.7992  0.1210
 9887TIP3    H251153   1.708   4.962  11.181  0.0307 -0.7964 -0.4170
 9888TIP3   OH251154   5.269   0.362  16.610 -0.0900 -0.1653  0.0024
 9888TIP3    H151155   5.319   0.289  16.645  0.8391  0.3116 -0.3007
 9888TIP3    H251156   5.180   0.328  16.601  0.4027 -1.3831 -0.5041
 9889TIP3   OH251157   5.061   4.862  13.689 -0.2039 -0.6486  0.2245
 9889TIP3    H151158   5.014   4.945  13.688  0.9810  0.0418 -0.2415
 9889TIP3    H251159   5.114   4.863  13.609  0.0839 -1.6929  0.3865
 9890TIP3   OH251160   3.713   3.765   3.703 -0.2578  0.6006 -0.0468
 9890TIP3    H151161   3.636   3.714   3.677 -0.5816  0.3492  1.3257
 9890TIP3    H251162   3.785   3.726   3.653 -1.1100  1.3984 -2.0276
 9891TIP3   OH251163   6.014   0.206   1.190  0.1291  0.3058 -0.3062
 9891TIP3    H151164   6.040   0.147   1.260  0.1099  0.3624 -0.2517
 9891TIP3    H251165   6.045   0.292   1.218 -0.2114  0.3923 -0.1908
 9892TIP3   OH251166   5.789   5.111  11.043  0.4865  0.7538  0.1877
 9892TIP3    H151167   5.717   5.139  10.986  0.4364  1.0686  0.3995
 9892TIP3    H251168   5.836   5.192  11.063  0.2812  0.7046  0.8993
 9893TIP3   OH251169   4.459   4.094  16.608 -0.4666  0.5597 -0.1438
 9893TIP3    H151170   4.433   4.002  16.620 -0.1967  0.5662  0.5286
 9893TIP3    H251171   4.378   4.139  16.583 -0.7440  0.2641  0.2138
 9894TIP3   OH251172   1.795   0.035   6.234 -0.4403  0.1362  0.2345
 9894TIP3    H151173   1.872   0.091   6.238 -0.8144  0.5921  1.4197
 9894TIP3    H251174   1.830  -0.053   6.222  0.3088  0.2677  1.3213
 9895TIP3   OH251175   0.011   2.422  12.642  0.4469 -0.0719  0.3327
 9895TIP3    H151176  -0.028   2.349  12.690 -0.1119  0.0403  0.0536
 9895TIP3    H251177  -0.060   2.458  12.589  1.0121 -0.1120 -0.4845
 9896TIP3   OH251178   2.907   5.958  15.608 -0.0167  0.2703  0.2719
 9896TIP3    H151179   2.893   6.052  15.597 -0.1184  0.3118  0.7522
 9896TIP3    H251180   2.916   5.924  15.519 -1.3662  0.5254  0.0238
 9897TIP3   OH251181   4.926   6.528   1.607 -0.0229  0.4240 -0.1860
 9897TIP3    H151182   5.014   6.506   1.638  0.8593  1.6566 -1.6592
 9897TIP3    H251183   4.920   6.623   1.617  0.0605  0.8174 -2.9470
 9898TIP3   OH251184   1.850   6.711  12.534  0.1160  0.1849 -0.1290
 9898TIP3    H151185   1.870   6.770  12.461 -4.0136 -1.2709 -2.8482
 9898TIP3    H251186   1.814   6.769  12.602  1.4503  1.2956 -0.3276
 9899TIP3   OH251187   0.192   2.757  14.618  0.4077  0.6604  0.5330
 9899TIP3    H151188   0.202   2.678  14.671 -0.4367 -0.4733 -0.9016
 9899TIP3    H251189   0.193   2.725  14.527  0.5396  2.3654 -0.1019
 9900TIP3   OH251190   4.779   4.734  13.665 -0.0063 -0.4277  0.0782
 9900TIP3    H151191   4.871   4.751  13.647  0.6301 -1.2487  2.2114
 9900TIP3    H251192   4.755   4.797  13.732 -0.2151 -1.8571  1.4136
 9901TIP3   OH251193   0.967   4.946   1.423 -0.5012 -0.3938  0.1739
 9901TIP3    H151194   0.889   4.977   1.377 -0.2322 -1.0659 -0.7844
 9901TIP3    H251195   1.039   4.995   1.385 -0.0104 -2.3932 -1.7013
 9902TIP3   OH251196   6.486   2.512   3.041 -0.1583 -0.4294  0.0525
 9902TIP3    H151197   6.428   2.533   2.968 -0.4096  0.1436  0.4108
 9902TIP3    H251198   6.442   2.441   3.087 -0.3269 -0.3448  0.0236
 9903TIP3   OH251199   0.753   1.518  10.595  0.3106 -0.0637  0.4357
 9903TIP3    H151200   0.763   1.465  10.516  1.9201 -0.7995  1.0888
 9903TIP3    H251201   0.780   1.606  10.568  0.4880 -0.2259  0.0719
 9904TIP3   OH251202   5.864   4.256  13.485  0.3337  0.1103  1.2739
 9904TIP3    H151203   5.774   4.288  13.483  0.3944  0.2619 -0.6364
 9904TIP3    H251204   5.916   4.325  13.444  1.3747  0.1056  2.5199
 9905TIP3   OH251205   1.311   6.638  16.005 -0.5365  0.2788 -0.3723
 9905TIP3    H151206   1.303   6.678  15.918 -0.3060  1.7389  0.2406
 9905TIP3    H251207   1.292   6.545  15.991 -0.6256  0.5082 -1.9527
 9906TIP3   OH251208   5.376   3.107   4.979 -0.1849 -0.3567 -0.4373
 9906TIP3    H151209   5.439   3.035   4.982  0.4239  0.1183 -1.3540
 9906TIP3    H251210   5.416   3.172   4.921  1.1129  2.5038  3.2579
 9907TIP3   OH251211   0.005   3.249  15.480 -0.5544  0.6781 -0.1556
 9907TIP3    H151212   0.083   3.205  15.514 -0.7187  1.2112  0.9507
 9907TIP3    H251213   0.021   3.257  15.386 -0.2341 -1.1319 -0.2852
 9908TIP3   OH251214   4.416   1.296  13.654  0.2406 -0.0649  0.7359
 9908TIP3    H151215   4.352   1.238  13.694  0.1110  0.0218  0.6577
 9908TIP3    H251216   4.490   1.296  13.714  1.0914 -1.8988 -0.2203
 9909TIP3   OH251217   2.349   2.068  13.977 -0.0465  0.1710 -0.1010
 9909TIP3    H151218   2.424   2.111  14.020  0.7459 -1.6624  0.4719
 9909TIP3    H251219   2.290   2.046  14.049  0.2283 -0.9114 -0.1852
 9910TIP3   OH251220   5.128   0.606   3.770 -0.0868 -0.4516 -0.0902
 9910TIP3    H151221   5.090   0.663   3.837  0.5413  0.1087 -0.2071
 9910TIP3    H251222   5.059   0.598   3.704 -0.1794  0.1790 -0.0733
 9911TIP3   OH251223   3.251   0.353  16.567  0.1900 -0.4447 -0.7517
 9911TIP3    H151224   3.192   0.280  16.588  0.3614 -0.4858 -0.4158
 9911TIP3    H251225   3.309   0.318  16.499  0.5076 -0.7397 -0.3330
 9912TIP3   OH251226   3.894   0.321  12.908 -0.3194  0.3551  0.2035
 9912TIP3    H151227   3.935   0.300  12.992  0.1053  1.0523  0.1755
 9912TIP3    H251228   3.964   0.313  12.845 -1.0496 -2.1396 -0.4190
 9913TIP3   OH251229   4.168   3.443   2.667  0.0491 -0.3369 -0.0932
 9913TIP3    H151230   4.233   3.375   2.685  2.1692  1.3199 -0.9897
 9913TIP3    H251231   4.164   3.448   2.572 -0.0169  0.7936 -0.0478
 9914TIP3   OH251232   0.368   0.089  16.077  1.1319  0.6796 -0.2020
 9914TIP3    H151233   0.401   0.089  15.987 -0.2654  2.7667 -0.7785
 9914TIP3    H251234   0.391   0.002  16.111  0.0953 -0.8963 -3.1962
 9915TIP3   OH251235   1.325   0.723  16.905 -0.3068 -0.2640 -0.1191
 9915TIP3    H151236   1.281   0.639  16.916  1.2688 -1.2251 -0.8743
 9915TIP3    H251237   1.281   0.764  16.831 -0.1870 -1.0603 -0.6453
 9916TIP3   OH251238   2.441   1.718   1.899  0.0250 -0.3223 -0.4088
 9916TIP3    H151239   2.451   1.785   1.966 -1.0700  0.0893 -0.6396
 9916TIP3    H251240   2.411   1.641   1.947 -1.7526  0.2563 -0.5100
 9917TIP3   OH251241   5.975   4.555   3.534 -0.6817 -0.3169 -0.7221
 9917TIP3    H151242   5.910   4.600   3.480 -1.4537 -1.0718 -0.4383
 9917TIP3    H251243   6.018   4.625   3.583 -1.6564  0.1522 -0.5070
 9918TIP3   OH251244   0.194   3.615   0.188  0.0142  0.0936 -0.0814
 9918TIP3    H151245   0.276   3.641   0.230 -0.1765  1.1204 -0.3059
 9918TIP3    H251246   0.136   3.690   0.202 -1.2404 -1.0241  0.9931
 9919TIP3   OH251247   2.343   5.636   1.063 -0.2519  0.3977  0.0895
 9919TIP3    H151248   2.297   5.561   1.025  0.4818 -0.8201  1.5649
 9919TIP3    H251249   2.272   5.696   1.087 -0.8269  0.4126 -1.4633
 9920TIP3   OH251250   1.030   5.513   3.029 -0.1251 -0.0183 -0.1798
 9920TIP3    H151251   0.971   5.451   2.985 -1.8284 -0.0051  1.9021
 9920TIP3    H251252   1.076   5.459   3.094 -0.7481  0.6480  0.8379
 9921TIP3   OH251253   5.034   5.725   1.125 -0.6461  0.0789 -0.0711
 9921TIP3    H151254   5.014   5.819   1.119  1.7519  0.8838  2.3808
 9921TIP3    H251255   5.129   5.721   1.136 -0.5752 -2.7451 -0.9240
 9922TIP3   OH251256   4.574   2.471  11.523 -0.4988  0.4337  0.2390
 9922TIP3    H151257   4.569   2.560  11.558  2.1665  1.3291 -1.4238
 9922TIP3    H251258   4.590   2.482  11.430  1.0326 -1.7642  0.1693
 9923TIP3   OH251259   3.419   5.662  11.906  0.1010 -0.1878  0.2468
 9923TIP3    H151260   3.505   5.631  11.932  1.0411  1.3938 -0.7870
 9923TIP3    H251261   3.426   5.674  11.811 -0.8331  1.1641  0.3212
 9924TIP3   OH251262   0.149   1.126  13.474  0.8135  0.3594  0.0222
 9924TIP3    H151263   0.076   1.187  13.466  0.7540  0.1341 -1.3131
 9924TIP3    H251264   0.184   1.143  13.562 -1.8321 -0.6815  1.3920
 9925TIP3   OH251265   4.798   1.077   0.475 -0.8279  0.8134 -0.3431
 9925TIP3    H151266   4.787   1.141   0.406  0.1866 -1.2720 -2.6093
 9925TIP3    H251267   4.727   1.014   0.462  1.2295 -1.4170 -1.7856
 9926TIP3   OH251268   0.759   6.105  17.182  0.6980  0.6876 -0.3669
 9926TIP3    H151269   0.799   6.108  17.268  1.3543  1.0249 -0.6776
 9926TIP3    H251270   0.701   6.029  17.185 -0.4349  1.5612  0.8448
 9927TIP3   OH251271   0.483   4.214   0.465  0.5147 -0.2168 -0.3483
 9927TIP3    H151272   0.550   4.204   0.398  1.6474  0.3510  0.6620
 9927TIP3    H251273   0.490   4.305   0.492  0.1759 -0.4745  0.6327
 9928TIP3   OH251274   4.464   4.043   5.657  0.3452  0.7602 -0.7559
 9928TIP3    H151275   4.372   4.059   5.678  1.1809  2.1509  2.5428
 9928TIP3    H251276   4.467   3.952   5.629 -1.8446  0.2007  0.5867
 9929TIP3   OH251277   1.008   3.345   2.662 -0.2737 -0.2580 -0.3182
 9929TIP3    H151278   0.923   3.372   2.698  0.0946  1.2539 -0.5477
 9929TIP3    H251279   1.001   3.250   2.655 -1.6953 -0.2290  0.3169
 9930TIP3   OH251280   6.014   5.222   1.357  0.1285  0.1702  0.4748
 9930TIP3    H151281   6.062   5.258   1.282 -3.2902 -0.6998 -2.4062
 9930TIP3    H251282   6.016   5.127   1.344 -3.5860  0.1102 -0.8686
 9931TIP3   OH251283   2.269   5.935  15.304  0.4568  0.2612  0.6048
 9931TIP3    H151284   2.193   5.877  15.308 -1.1531  1.8402 -2.7188
 9931TIP3    H251285   2.343   5.876  15.290 -0.7974 -1.1536 -0.4861
 9932TIP3   OH251286   5.862   4.005  12.210  0.8316 -0.2488 -0.2119
 9932TIP3    H151287   5.858   4.100  12.205  1.2820 -0.2366 -0.3772
 9932TIP3    H251288   5.786   3.980  12.262  0.2842  0.1533 -0.7982
 9933TIP3   OH251289   3.408   4.404   2.380 -0.2903  0.3284  0.2438
 9933TIP3    H151290   3.482   4.463   2.364  1.9126 -2.4521 -0.6869
 9933TIP3    H251291   3.369   4.391   2.293 -0.7096  0.3268  0.4293
 9934TIP3   OH251292   4.935   2.559  14.383 -0.8157  0.8251  0.4179
 9934TIP3    H151293   4.964   2.641  14.422 -2.3300  0.7355  1.8813
 9934TIP3    H251294   4.914   2.503  14.459 -0.3848 -0.6953 -0.5452
 9935TIP3   OH251295   0.285   3.886   1.962 -0.1243  0.4603  0.1247
 9935TIP3    H151296   0.363   3.878   1.907 -0.1810 -0.3649  0.1473
 9935TIP3    H251297   0.275   3.799   2.002 -0.5936  0.7909  0.7499
 9936TIP3   OH251298   4.585   3.558   6.109  0.3351  0.1112  0.4487
 9936TIP3    H151299   4.611   3.539   6.018 -0.1586  0.3927  0.2433
 9936TIP3    H251300   4.640   3.501   6.162  0.7444  0.0594 -0.0227
 9937TIP3   OH251301   2.634   6.378  11.314 -0.2632 -0.2383  0.5268
 9937TIP3    H151302   2.545   6.376  11.280 -0.8145 -1.6380  1.9131
 9937TIP3    H251303   2.669   6.291  11.296  0.3539 -0.1332  1.1628
 9938TIP3   OH251304   2.079   1.879   5.300  0.1753  0.0050  0.3967
 9938TIP3    H151305   2.104   1.972   5.303 -1.0739  0.3386  0.8296
 9938TIP3    H251306   2.103   1.851   5.211 -0.5623  1.0785 -0.1628
 9939TIP3   OH251307   5.891   3.332  12.171  0.5394  0.3505 -0.6895
 9939TIP3    H151308   5.816   3.366  12.122 -0.2684  1.0201  0.9388
 9939TIP3    H251309   5.898   3.390  12.247 -0.7151 -2.7816  2.0703
 9940TIP3   OH251310   3.891   0.815   1.054  0.0080 -0.3149  0.0439
 9940TIP3    H151311   3.918   0.906   1.048  0.9777 -0.5625  0.4820
 9940TIP3    H251312   3.941   0.780   1.128 -0.0705 -1.2986 -0.3527
 9941TIP3   OH251313   1.568   1.399  16.919 -0.2899  0.0913  0.1312
 9941TIP3    H151314   1.485   1.407  16.967 -0.4240  1.4357 -0.2766
 9941TIP3    H251315   1.575   1.481  16.869  0.2315 -0.9067 -1.5228
 9942TIP3   OH251316   1.744   3.482   1.640  0.0898  0.4224 -0.4151
 9942TIP3    H151317   1.703   3.513   1.560 -1.7693 -2.9148 -0.9211
 9942TIP3    H251318   1.787   3.400   1.615  1.7450  0.6179  1.4888
 9943TIP3   OH251319   5.543   2.496  16.689  0.0825 -0.5376  0.1951
 9943TIP3    H151320   5.533   2.401  16.688  0.7164 -0.6222 -1.6338
 9943TIP3    H251321   5.492   2.527  16.615  0.3095  0.5093  0.4517
 9944TIP3   OH251322   2.923   2.347  11.147 -0.5470 -0.2394  0.0348
 9944TIP3    H151323   2.877   2.428  11.125  1.5233  0.4245 -2.4233
 9944TIP3    H251324   2.915   2.293  11.068  1.7230 -0.5725 -0.0449
 9945TIP3   OH251325   1.310   6.292  13.905  0.4062 -0.1890 -0.4138
 9945TIP3    H151326   1.360   6.211  13.920  0.6439  0.1185  0.5191
 9945TIP3    H251327   1.246   6.268  13.838 -0.5403 -1.6066  0.9055
 9946TIP3   OH251328   1.975   4.039   5.703  0.0790 -0.0282 -0.3791
 9946TIP3    H151329   1.926   3.962   5.674  1.7403 -1.2291 -0.0930
 9946TIP3    H251330   1.929   4.068   5.782 -0.4571 -0.8286 -0.3894
 9947TIP3   OH251331   1.888   5.273   2.092 -0.0524 -0.1162  0.2386
 9947TIP3    H151332   1.903   5.353   2.042 -0.2679  0.1660  0.6175
 9947TIP3    H251333   1.845   5.303   2.173 -2.5433 -0.8665 -0.7144
 9948TIP3   OH251334   0.505   6.406  10.924 -0.9494 -0.2814  0.1884
 9948TIP3    H151335   0.455   6.407  10.842  0.0332  0.0066 -0.4316
 9948TIP3    H251336   0.559   6.327  10.917 -1.7107 -0.8992  1.1078
 9949TIP3   OH251337   0.703   3.463   0.277 -0.1198 -0.3447 -0.1492
 9949TIP3    H151338   0.762   3.500   0.342 -0.1523  0.5013 -0.5978
 9949TIP3    H251339   0.691   3.372   0.305 -1.1252  0.3291  1.7348
 9950TIP3   OH251340   2.756   3.813  13.722 -0.3099  0.1440  0.1073
 9950TIP3    H151341   2.704   3.743  13.761 -1.2026  1.0948  0.6561
 9950TIP3    H251342   2.693   3.882  13.702  0.7794  1.5361  1.2531
 9951TIP3   OH251343   5.463   1.444  15.745 -0.0230  0.0688 -0.5629
 9951TIP3    H151344   5.480   1.509  15.677 -0.4797 -0.5102 -1.2501
 9951TIP3    H251345   5.464   1.493  15.826 -1.0554  1.0651 -1.1255
 9952TIP3   OH251346   3.292   6.773   2.391 -0.5122 -0.3348  0.2652
 9952TIP3    H151347   3.262   6.818   2.470  0.4668  0.8203  0.0008
 9952TIP3    H251348   3.360   6.712   2.422 -0.2325  0.0096  0.3268
 9953TIP3   OH251349   6.739   4.212  15.789  0.1588  0.3284  0.2986
 9953TIP3    H151350   6.676   4.165  15.844  1.3629 -0.4301  1.0759
 9953TIP3    H251351   6.726   4.176  15.701 -1.1512  0.8954  0.2296
 9954TIP3   OH251352   4.186   3.200  13.469  0.0454  0.3471 -0.2715
 9954TIP3    H151353   4.113   3.138  13.461 -1.4203  1.3691  3.2230
 9954TIP3    H251354   4.172   3.263  13.398 -0.8163 -0.9883 -1.3448
 9955TIP3   OH251355   5.300   2.036  11.731  0.2863 -0.2105 -0.5541
 9955TIP3    H151356   5.234   1.994  11.785 -2.6138  1.5658 -2.4331
 9955TIP3    H251357   5.331   1.967  11.672 -2.1858 -0.5176 -1.6164
 9956TIP3   OH251358   1.859   3.947   0.686 -0.2965  0.1782 -0.0966
 9956TIP3    H151359   1.778   3.930   0.637  0.2010 -1.0830 -0.5281
 9956TIP3    H251360   1.847   3.900   0.768 -0.3560  0.7337  0.2179
 9957TIP3   OH251361   1.721   2.699  11.840  0.1407 -0.1469 -0.0038
 9957TIP3    H151362   1.679   2.711  11.925 -0.0218 -1.6116  0.1573
 9957TIP3    H251363   1.681   2.765  11.783  0.2875  0.8775  1.0627
 9958TIP3   OH251364   6.165   5.725   4.773 -0.1962 -0.1387  0.4240
 9958TIP3    H151365   6.075   5.720   4.806 -0.1267 -0.0226  0.6354
 9958TIP3    H251366   6.165   5.671   4.694 -0.6457  0.4690 -0.0082
 9959TIP3   OH251367   4.497   1.013  15.953  0.2582  0.0159  0.0491
 9959TIP3    H151368   4.522   0.925  15.925  1.0738  0.1789  0.2241
 9959TIP3    H251369   4.576   1.048  15.994 -0.7221 -0.0303  2.1185
 9960TIP3   OH251370   4.510   0.582   1.712  0.1091  0.4157 -0.4682
 9960TIP3    H151371   4.458   0.581   1.632 -0.7054 -0.3241  0.0501
 9960TIP3    H251372   4.487   0.665   1.754 -1.2769 -0.2452  0.1344
 9961TIP3   OH251373   0.287   0.636  12.642  0.1398 -0.3097  0.3621
 9961TIP3    H151374   0.360   0.660  12.700 -0.5703 -1.1231  1.6427
 9961TIP3    H251375   0.242   0.565  12.689 -0.7071 -0.7153 -1.0133
 9962TIP3   OH251376   2.034   1.497   3.941 -0.2385  0.3692  0.1660
 9962TIP3    H151377   1.977   1.572   3.960  0.4716  0.9609  0.0083
 9962TIP3    H251378   2.119   1.522   3.976  0.9387  1.1669 -2.9206
 9963TIP3   OH251379   2.287   3.367  11.532  0.4660  0.2062 -0.2480
 9963TIP3    H151380   2.252   3.450  11.501 -0.2711  0.0450  0.1227
 9963TIP3    H251381   2.233   3.345  11.608  1.1542 -0.2296  0.1311
 9964TIP3   OH251382   5.048   1.437   1.645  0.0862 -0.3547  0.7962
 9964TIP3    H151383   5.043   1.393   1.729  0.2776  0.9924  1.5405
 9964TIP3    H251384   4.976   1.400   1.594 -1.5067  0.4594  2.3680
 9965TIP3   OH251385   6.622   5.743  12.534 -0.0008  0.6901 -0.2932
 9965TIP3    H151386   6.640   5.829  12.495 -1.6209  2.1205  1.8923
 9965TIP3    H251387   6.587   5.763  12.621 -1.3537 -2.1719 -0.0719
 9966TIP3   OH251388   6.501   3.716   3.370  0.4702  0.3702  0.0222
 9966TIP3    H151389   6.499   3.726   3.465  0.6434  0.5889  0.0029
 9966TIP3    H251390   6.594   3.703   3.350  0.5063  0.9399 -0.1806
 9967TIP3   OH251391   3.798   2.199   0.204 -0.1834  0.4998 -0.2562
 9967TIP3    H151392   3.805   2.281   0.253  0.0565  1.1716 -1.3759
 9967TIP3    H251393   3.709   2.169   0.221 -0.4029  1.1969 -0.1355
 9968TIP3   OH251394   0.075   3.392  15.009 -0.0959 -0.6972 -0.0873
 9968TIP3    H151395   0.156   3.361  14.968  0.2471 -1.2740  0.9799
 9968TIP3    H251396   0.052   3.323  15.071 -0.0924  0.5415  1.3414
 9969TIP3   OH251397   5.007   6.587   4.887 -0.3654 -0.0592 -0.3663
 9969TIP3    H151398   4.996   6.508   4.835  0.6203 -0.6581  0.2907
 9969TIP3    H251399   4.938   6.646   4.857 -1.3186 -1.2862 -0.6499
 9970TIP3   OH251400   4.981   5.389  16.730  0.2322 -0.2085 -0.2862
 9970TIP3    H151401   5.001   5.319  16.792 -1.5647  0.2743  0.9306
 9970TIP3    H251402   5.015   5.358  16.646  0.6493 -1.9338  0.4890
 9971TIP3   OH251403   4.149   0.782  16.124  0.3390  0.3613 -0.2788
 9971TIP3    H151404   4.238   0.809  16.102  0.0801  1.3422 -0.1775
 9971TIP3    H251405   4.102   0.864  16.141 -0.1656 -0.2092  1.2732
 9972TIP3   OH251406   5.734   2.470   4.499 -0.1666 -0.3528  0.3367
 9972TIP3    H151407   5.752   2.395   4.556  1.6186 -0.1147  0.1547
 9972TIP3    H251408   5.703   2.539   4.557 -2.0774 -1.2663  0.4746
 9973TIP3   OH251409   4.808   3.458  14.654 -0.0954 -0.0086 -0.2425
 9973TIP3    H151410   4.801   3.408  14.573  1.7463  0.4602 -0.7194
 9973TIP3    H251411   4.850   3.399  14.716  1.6621  0.7429 -0.6721
 9974TIP3   OH251412   5.404   6.107   1.190  0.5703  0.2716 -0.1336
 9974TIP3    H151413   5.334   6.061   1.144  2.1159  1.3369 -3.8645
 9974TIP3    H251414   5.452   6.038   1.235 -0.2661 -1.0596 -1.2031
 9975TIP3   OH251415   1.006   2.925  13.841  0.0481 -0.0709 -0.3671
 9975TIP3    H151416   1.057   2.898  13.764 -1.3237  0.7821 -1.6216
 9975TIP3    H251417   0.940   2.985  13.806  0.8242  2.2012  1.8136
 9976TIP3   OH251418   5.558   3.100  14.171 -0.0168 -0.1414 -0.1276
 9976TIP3    H151419   5.620   3.163  14.206 -0.7152  0.6204 -0.2513
 9976TIP3    H251420   5.569   3.105  14.076 -1.1219  0.8930 -0.2147
 9977TIP3   OH251421   6.760   4.627  16.551  0.0679 -0.0911 -0.0504
 9977TIP3    H151422   6.851   4.632  16.581 -0.4022 -2.2651  2.1046
 9977TIP3    H251423   6.709   4.660  16.625 -0.9256  0.6543 -1.0502
 9978TIP3   OH251424   6.306   0.517  14.088  0.0832 -0.5917  0.9121
 9978TIP3    H151425   6.311   0.598  14.038  0.8534 -0.6122  0.9433
 9978TIP3    H251426   6.316   0.448  14.022  1.7195 -0.6088  1.1397
 9979TIP3   OH251427   5.960   2.355   3.317 -0.0025  0.4834  0.1906
 9979TIP3    H151428   5.934   2.348   3.409  1.0609 -0.0263  0.4639
 9979TIP3    H251429   6.047   2.316   3.313 -0.6546 -0.9442 -1.3319
 9980TIP3   OH251430   4.383   1.320  11.405  0.4958 -0.3748 -0.1873
 9980TIP3    H151431   4.391   1.303  11.499 -1.5184 -1.5769 -0.1847
 9980TIP3    H251432   4.292   1.343  11.391  1.0719  1.2717 -1.6763
 9981TIP3   OH251433   5.578   5.069  14.498 -0.1522  0.8737  0.0141
 9981TIP3    H151434   5.524   5.065  14.419 -0.5359  1.5339  0.2356
 9981TIP3    H251435   5.550   4.994  14.550  2.7631 -1.9489 -2.1102
 9982TIP3   OH251436   4.508   0.933  16.533  0.0987  0.2562 -0.1154
 9982TIP3    H151437   4.593   0.949  16.573  0.6989 -0.0819 -1.2092
 9982TIP3    H251438   4.485   0.844  16.560 -0.1237  0.5060  0.5362
 9983TIP3   OH251439   5.654   5.896  12.235 -0.3534  0.5115  0.3621
 9983TIP3    H151440   5.693   5.823  12.283  0.8776  0.2570 -0.9281
 9983TIP3    H251441   5.566   5.866  12.213 -0.3862  0.0290  1.1355
 9984TIP3   OH251442   1.924   0.372  15.021 -0.4165 -0.5794 -0.2037
 9984TIP3    H151443   2.011   0.377  14.983 -0.7208 -0.1647 -0.8771
 9984TIP3    H251444   1.921   0.445  15.084 -0.0058 -1.1009  0.4376
 9985TIP3   OH251445   1.892   5.393   3.833  0.5160 -0.1292 -0.0120
 9985TIP3    H151446   1.898   5.447   3.913  2.8137  0.6838 -0.6439
 9985TIP3    H251447   1.981   5.394   3.798 -0.2738 -1.1310 -2.1771
 9986TIP3   OH251448   3.568   5.222   0.753  0.5240 -0.0179  0.0327
 9986TIP3    H151449   3.648   5.210   0.703  0.3087  0.8673 -0.5622
 9986TIP3    H251450   3.587   5.294   0.813  0.3275 -0.1155  0.2138
 9987TIP3   OH251451   2.027   0.623  15.968 -0.0633 -0.0036  0.2529
 9987TIP3    H151452   1.935   0.605  15.947  0.0495 -0.7214  0.3596
 9987TIP3    H251453   2.053   0.689  15.904  0.2481 -2.0621 -1.8686
 9988TIP3   OH251454   1.639   0.550   4.591 -0.3347  0.0730 -0.2456
 9988TIP3    H151455   1.551   0.531   4.557 -0.2702  2.1908 -1.8314
 9988TIP3    H251456   1.696   0.488   4.545 -0.8189 -0.2047 -0.4824
 9989TIP3   OH251457   4.861   1.171  14.156 -0.2932 -0.0135  0.5436
 9989TIP3    H151458   4.776   1.168  14.200 -1.1499 -2.0388 -1.0863
 9989TIP3    H251459   4.844   1.221  14.076  0.9453  2.5224  1.7379
 9990TIP3   OH251460   5.817   4.022  11.888  0.0365  0.2146  0.7742
 9990TIP3    H151461   5.888   4.072  11.929  0.4319 -0.4366  0.8873
 9990TIP3    H251462   5.796   3.953  11.951 -0.7701  0.4539  0.7875
 9991TIP3   OH251463   5.029   3.816  16.604 -0.2415 -0.0199  0.0944
 9991TIP3    H151464   5.063   3.735  16.565 -0.4899 -0.2494  0.3478
 9991TIP3    H251465   4.955   3.840  16.548  0.2820  0.4402 -0.4140
 9992TIP3   OH251466   1.661   3.922   1.583 -1.0754  0.0386 -0.3741
 9992TIP3    H151467   1.694   4.009   1.560  0.5715  0.0625  1.7512
 9992TIP3    H251468   1.566   3.934   1.592 -0.9076  1.5552 -0.3341
 9993TIP3   OH251469   1.914   6.549  16.894  0.0766 -0.8013  0.2462
 9993TIP3    H151470   1.922   6.566  16.800 -0.1832 -1.4337  0.1055
 9993TIP3    H251471   1.875   6.462  16.899 -0.5779 -0.4769  0.9419
 9994TIP3   OH251472   5.652   0.152   2.321  0.7165  0.1278 -0.0248
 9994TIP3    H151473   5.574   0.178   2.369  1.6350  1.7317  0.6777
 9994TIP3    H251474   5.655   0.057   2.328 -1.5375 -0.0370 -0.6809
 9995TIP3   OH251475   3.651   2.120  12.605  0.4530  0.0300 -0.0955
 9995TIP3    H151476   3.598   2.161  12.537 -1.6461 -0.1112  1.3665
 9995TIP3    H251477   3.722   2.183  12.621  0.5546  0.4123 -1.8262
 9996TIP3   OH251478   5.859   5.983   5.862 -0.2295 -0.5325  0.6042
 9996TIP3    H151479   5.793   6.007   5.797 -0.3543 -2.7036 -0.1475
 9996TIP3    H251480   5.815   5.997   5.946 -1.7686 -2.0823  0.1138
 9997TIP3   OH251481   3.491   3.636   3.565 -0.2848  0.2773  0.0407
 9997TIP3    H151482   3.551   3.596   3.501 -0.3871 -0.7390  0.5491
 9997TIP3    H251483   3.419   3.670   3.513 -0.0781 -0.0016 -0.4378
 9998TIP3   OH251484   2.561   3.207   2.052 -0.6512  0.0134  0.1562
 9998TIP3    H151485   2.534   3.123   2.086  1.0202 -1.0903 -1.0803
 9998TIP3    H251486   2.640   3.229   2.101 -1.1818  0.9883  0.6087
 9999TIP3   OH251487   6.767   5.573  15.726 -0.3033  0.6715 -0.0414
 9999TIP3    H151488   6.755   5.479  15.720  2.0857  0.3448 -0.5205
 9999TIP3    H251489   6.768   5.592  15.820 -0.4854  0.1913  0.0600
10000TIP3   OH251490   0.668   4.111   0.251  0.0380  0.0668 -0.1883
10000TIP3    H151491   0.656   4.028   0.298  1.5988 -0.9185 -1.4063
10000TIP3    H251492   0.599   4.111   0.185  1.8212 -1.8754 -2.2360
10001TIP3   OH251493   6.767   3.496  11.369 -0.0137  0.1534  0.1392
10001TIP3    H151494   6.785   3.436  11.296  0.1099 -0.7538  0.8871
10001TIP3    H251495   6.835   3.476  11.433  1.0347  2.2610 -0.2433
10002TIP3   OH251496   4.094   1.690   3.396  0.6833 -0.0603  0.4372
10002TIP3    H151497   4.122   1.739   3.473 -0.2664 -0.9820  1.4117
10002TIP3    H251498   3.998   1.695   3.398  0.6480  0.4349 -1.0600
10003TIP3   OH251499   4.510   6.018  17.089  0.2729 -0.1528  0.2702
10003TIP3    H151500   4.591   5.982  17.124  0.8077 -1.5973 -2.1574
10003TIP3    H251501   4.533   6.106  17.060  0.5642 -0.0019  0.9536
10004TIP3   OH251502   1.802   4.071   0.136  0.2741 -0.0953 -0.3880
10004TIP3    H151503   1.737   4.060   0.066 -0.3085  0.7295  0.0035
10004TIP3    H251504   1.770   4.147   0.186  2.3564  1.3302 -1.0970
10005TIP3   OH251505   1.652   3.432  12.672  0.0273  0.4277 -0.5516
10005TIP3    H151506   1.646   3.384  12.590  0.3970 -0.6629  0.0447
10005TIP3    H251507   1.734   3.401  12.711 -0.3613  0.6270  0.4275
10006TIP3   OH251508   3.039   0.565  12.239 -0.4459  0.4764 -0.2022
10006TIP3    H151509   2.953   0.533  12.264  0.2972  0.2427  2.3545
10006TIP3    H251510   3.023   0.649  12.195 -1.9372  0.8561  1.0138
10007TIP3   OH251511   4.516   1.334   1.493 -0.5636  0.2965  0.1651
10007TIP3    H151512   4.484   1.382   1.569 -0.2020  0.0939  0.4483
10007TIP3    H251513   4.477   1.379   1.418  0.3342  1.5025  0.3740
10008TIP3   OH251514   1.880   3.699  11.920  0.5660 -0.0707  0.0839
10008TIP3    H151515   1.921   3.777  11.883  2.0309 -0.8125  0.0789
10008TIP3    H251516   1.917   3.626  11.871 -0.5654 -0.8111  0.2776
10009TIP3   OH251517   5.103   6.048  15.594  0.7161 -0.2747 -0.0397
10009TIP3    H151518   5.189   6.022  15.627  0.7341  1.1478  1.1235
10009TIP3    H251519   5.080   6.125  15.645 -2.0466 -1.6256  0.9454
10010TIP3   OH251520   4.547   6.597  14.118  0.5469  0.2945  0.1457
10010TIP3    H151521   4.476   6.607  14.055 -0.1063  0.0688  0.8382
10010TIP3    H251522   4.527   6.517  14.166  1.9832 -0.5195 -0.5375
10011TIP3   OH251523   0.595   5.430   2.045 -0.3396 -0.0120 -0.1195
10011TIP3    H151524   0.584   5.407   1.953  3.2838  0.4130 -0.8299
10011TIP3    H251525   0.581   5.348   2.092 -0.3327 -0.7090 -1.2857
10012TIP3   OH251526   1.135   2.056   5.311  0.2500  0.2270  0.7606
10012TIP3    H151527   1.205   1.996   5.338 -0.5741 -1.0529  0.1625
10012TIP3    H251528   1.179   2.124   5.261  1.3600  0.7620  2.3783
10013TIP3   OH251529   5.536   1.818   5.043  0.1894  0.4177 -0.2915
10013TIP3    H151530   5.603   1.768   5.090 -0.4591  0.3541  0.5905
10013TIP3    H251531   5.472   1.752   5.015  1.4200  0.1888 -2.8636
10014TIP3   OH251532   2.302   5.238   3.481 -0.1350  0.0235 -0.3549
10014TIP3    H151533   2.261   5.309   3.433 -1.6313 -1.6088 -1.6304
10014TIP3    H251534   2.348   5.186   3.414  1.4811  0.1075  0.6313
10015TIP3   OH251535   2.971   5.134   0.516 -0.4494 -0.0874 -0.1885
10015TIP3    H151536   2.887   5.107   0.477  0.4105 -0.6007 -1.8038
10015TIP3    H251537   3.002   5.204   0.459 -0.3738  1.0333  1.1795
10016TIP3   OH251538   2.567   0.575  16.676  0.0978  0.8722 -0.0676
10016TIP3    H151539   2.597   0.607  16.591  1.5500 -0.8559 -0.2876
10016TIP3    H251540   2.513   0.498  16.655  1.0611 -0.0020  0.5626
10017TIP3   OH251541   5.238   1.991  11.283  0.4426  0.8521 -0.0264
10017TIP3    H151542   5.171   1.987  11.352  0.3847  0.1178 -0.1161
10017TIP3    H251543   5.188   1.985  11.201  0.7184 -2.2865 -0.0817
10018TIP3   OH251544   0.415   0.552   2.752  0.4608  0.3368 -0.0326
10018TIP3    H151545   0.509   0.544   2.734  0.1583 -0.7712 -1.2732
10018TIP3    H251546   0.404   0.642   2.783  2.1954 -0.0483  1.9819
10019TIP3   OH251547   3.051   6.058   0.434  0.1211 -0.0899  0.3854
10019TIP3    H151548   3.126   5.999   0.442  1.5620  1.5581 -0.1505
10019TIP3    H251549   3.091   6.145   0.427 -1.7249  0.6578 -2.2461
10020TIP3   OH251550   2.826   2.962  14.329  0.4570  0.4811  0.4070
10020TIP3    H151551   2.915   2.932  14.351  0.2670 -0.5275 -0.1517
10020TIP3    H251552   2.777   2.881  14.313 -0.1114  1.0887 -1.0444
10021TIP3   OH251553   1.156   5.964  13.396  0.4239 -0.2610 -0.3746
10021TIP3    H151554   1.078   5.908  13.398  0.0170  0.2563 -1.2358
10021TIP3    H251555   1.124   6.051  13.421  1.0210 -0.3491  0.7790
10022TIP3   OH251556   2.581   5.518   0.093  0.2353  0.1631 -0.3177
10022TIP3    H151557   2.507   5.458   0.083 -0.6365  1.1902 -0.2272
10022TIP3    H251558   2.654   5.475   0.048 -0.8733 -0.0719 -1.9534
10023TIP3   OH251559   2.882   5.296  14.590 -0.0413 -0.1644 -0.0036
10023TIP3    H151560   2.913   5.351  14.662 -0.9705  1.2478 -0.6477
10023TIP3    H251561   2.795   5.267  14.619 -0.0866 -0.2492 -0.2276
10024TIP3   OH251562   4.629   0.705  11.895 -0.0886 -0.1818  0.1019
10024TIP3    H151563   4.541   0.669  11.906 -0.0350 -0.5062 -0.4644
10024TIP3    H251564   4.664   0.659  11.819 -0.4395  1.8665 -1.4074
10025TIP3   OH251565   4.605   0.440   2.052  0.0373 -0.3131  0.0175
10025TIP3    H151566   4.641   0.366   2.003  0.6575 -1.6556  2.3377
10025TIP3    H251567   4.557   0.400   2.125  1.0435  1.5209  1.7980
10026TIP3   OH251568   6.297   0.871   4.102  0.3376  0.0830 -0.1810
10026TIP3    H151569   6.283   0.790   4.151  1.0217 -0.5415 -0.9956
10026TIP3    H251570   6.343   0.928   4.162 -0.0446 -0.1727  0.3617
10027TIP3   OH251571   1.266   4.945  12.813  0.6455 -0.0922 -0.5379
10027TIP3    H151572   1.208   4.875  12.782 -0.0226  1.0290 -1.9375
10027TIP3    H251573   1.233   4.966  12.900 -0.9713  0.3733 -1.2198
10028TIP3   OH251574   3.107   4.032  15.819 -0.2998 -0.1520 -0.3527
10028TIP3    H151575   3.153   3.958  15.858  1.6862  1.0028 -0.3530
10028TIP3    H251576   3.014   4.010  15.828  0.1504 -1.4690  1.9507
10029TIP3   OH251577   2.103   5.939  13.534 -0.3334  0.6257 -0.0933
10029TIP3    H151578   2.173   5.964  13.593 -1.6867  1.1969  1.3421
10029TIP3    H251579   2.075   5.852  13.565  0.0305  0.1874 -0.9516
10030TIP3   OH251580   5.026   2.857  13.336  0.2633 -0.2164 -0.4938
10030TIP3    H151581   4.985   2.773  13.354 -0.2022  0.1069 -0.0054
10030TIP3    H251582   5.003   2.877  13.245 -0.0177 -0.3935 -0.4598
10031TIP3   OH251583   5.487   0.543  14.191 -0.1042 -0.0980 -0.0067
10031TIP3    H151584   5.392   0.552  14.191  0.0024  1.7766 -1.6684
10031TIP3    H251585   5.509   0.522  14.282 -2.1458 -1.7560  0.1928
10032TIP3   OH251586   2.480   2.787  12.165  0.7881 -0.2659 -0.2505
10032TIP3    H151587   2.461   2.788  12.072 -0.8181 -0.5870  0.0453
10032TIP3    H251588   2.493   2.879  12.189  1.6712 -0.2204 -0.8552
10033TIP3   OH251589   3.577   2.869   4.460 -0.4636 -0.5641  0.2142
10033TIP3    H151590   3.500   2.898   4.412 -1.8494 -1.2798  1.9176
10033TIP3    H251591   3.599   2.784   4.422 -0.7430 -0.5343 -0.0174
10034TIP3   OH251592   5.438   5.507  11.703 -0.2750  0.1471 -0.4996
10034TIP3    H151593   5.421   5.581  11.761  0.4807  0.0912 -0.2027
10034TIP3    H251594   5.404   5.431  11.751 -2.0220  0.3929 -1.2488
10035TIP3   OH251595   0.103   6.422  14.586  0.3473  0.2985 -0.0794
10035TIP3    H151596   0.076   6.347  14.640  1.9589 -1.3441 -1.4569
10035TIP3    H251597   0.023   6.473  14.576 -0.7616 -1.1090  1.0820
10036TIP3   OH251598   3.378   4.894   4.218  0.3708  0.1165 -0.1264
10036TIP3    H151599   3.371   4.799   4.210  0.8165  0.1388 -0.8844
10036TIP3    H251600   3.360   4.912   4.310 -0.5236 -0.6267 -0.1417
10037TIP3   OH251601   6.243   4.458   3.416  0.2517  0.2039  1.0876
10037TIP3    H151602   6.281   4.545   3.422 -1.2086  0.7888  2.6257
10037TIP3    H251603   6.149   4.472   3.419 -0.2641 -1.1799 -2.6845
10038TIP3   OH251604   0.640   2.297   1.269  0.0155  1.0616 -0.0963
10038TIP3    H151605   0.723   2.264   1.234 -0.5210 -0.3952 -0.0652
10038TIP3    H251606   0.655   2.306   1.363 -0.0851  0.0292  0.0297
10039TIP3   OH251607   3.441   5.532   2.582 -0.0964 -0.5136 -0.0592
10039TIP3    H151608   3.435   5.559   2.491  0.1843 -0.6378 -0.1170
10039TIP3    H251609   3.367   5.574   2.625 -1.8442 -2.5547 -0.8634
10040TIP3   OH251610   6.616   1.589   5.958 -0.8291  0.0506  0.8942
10040TIP3    H151611   6.688   1.528   5.944 -0.9159  0.3903 -1.4204
10040TIP3    H251612   6.540   1.532   5.977 -0.1282 -0.3200  2.8975
10041TIP3   OH251613   1.115   5.541  12.311 -0.0001  0.0497 -0.2169
10041TIP3    H151614   1.170   5.603  12.263  0.2181  1.3035  1.5647
10041TIP3    H251615   1.163   5.523  12.392 -1.1197 -0.6818  0.3106
10042TIP3   OH251616   2.657   2.650   0.488  0.7538 -0.0006 -0.0840
10042TIP3    H151617   2.654   2.632   0.394  0.0571 -0.3457 -0.0038
10042TIP3    H251618   2.711   2.728   0.496  0.7956  0.0454 -0.7726
10043TIP3   OH251619   4.912   3.110   3.204  0.4012  0.0425  0.5587
10043TIP3    H151620   4.832   3.163   3.200 -0.3868 -1.0536  1.1614
10043TIP3    H251621   4.921   3.074   3.116  0.1701  0.0926  0.5135
10044TIP3   OH251622   2.761   2.831  13.517  0.2431 -0.6780  0.7789
10044TIP3    H151623   2.693   2.890  13.486  0.3284 -1.2163 -0.4748
10044TIP3    H251624   2.771   2.852  13.610 -0.6843  0.3215  0.6615
10045TIP3   OH251625   6.141   1.827  15.601 -0.1933 -0.6419  0.5892
10045TIP3    H151626   6.171   1.902  15.652 -1.9687 -0.5864  1.6624
10045TIP3    H251627   6.216   1.768  15.598  1.1116  0.9643  0.0616
10046TIP3   OH251628   3.899   5.284   3.741 -0.1862 -0.4342  0.1880
10046TIP3    H151629   3.962   5.332   3.794  0.3806 -0.7744 -0.1636
10046TIP3    H251630   3.850   5.230   3.803  0.1253 -0.4477  0.4196
10047TIP3   OH251631   4.907   6.042  10.967  0.4723 -0.1728  0.2374
10047TIP3    H151632   4.937   5.951  10.969  0.3860 -0.1986  0.3563
10047TIP3    H251633   4.980   6.090  10.929 -0.2405 -0.5762 -1.7405
10048TIP3   OH251634   2.411   2.828   0.015  0.1265  0.0839  0.0018
10048TIP3    H151635   2.338   2.818  -0.046 -1.1120  1.0834  1.2502
10048TIP3    H251636   2.486   2.851  -0.041 -0.8504  0.4903 -1.1794
10049TIP3   OH251637   5.752   2.456  13.772 -0.0918  0.5773  0.0081
10049TIP3    H151638   5.685   2.508  13.728 -1.4695 -0.0173  1.3211
10049TIP3    H251639   5.764   2.499  13.856  1.0087  0.5185 -0.1015
10050TIP3   OH251640   5.051   0.013  14.324 -0.5230  0.3027 -0.1272
10050TIP3    H151641   5.028  -0.072  14.362  0.7512  0.8323  1.9770
10050TIP3    H251642   5.030   0.076  14.392  0.2072  1.5019 -0.9822
10051TIP3   OH251643   2.745   1.487  10.885 -0.2895  0.4879 -0.1369
10051TIP3    H151644   2.706   1.422  10.827 -0.4567 -0.2500  0.7702
10051TIP3    H251645   2.840   1.474  10.875 -0.2339 -2.2080  2.4069
10052TIP3   OH251646   4.010   5.185   4.875  0.2805 -0.0591 -0.2869
10052TIP3    H151647   4.003   5.124   4.948  0.0249 -0.7370 -0.8633
10052TIP3    H251648   3.932   5.168   4.822  1.0086 -0.3624 -1.3009
10053TIP3   OH251649   0.460   0.259  15.611  0.4525  0.1507  0.4759
10053TIP3    H151650   0.398   0.310  15.559  0.6436  0.3908  0.4770
10053TIP3    H251651   0.546   0.296  15.588  0.7220 -1.0196 -0.4898
10054TIP3   OH251652   6.698   4.491   2.370  0.6738 -0.1583  0.3584
10054TIP3    H151653   6.723   4.410   2.415  2.9414 -0.9130 -1.9423
10054TIP3    H251654   6.623   4.466   2.316 -0.5979  0.1595  1.9066
10055TIP3   OH251655   4.892   0.330  11.091  0.1027 -0.0021 -0.4627
10055TIP3    H151656   4.840   0.411  11.096 -1.2311 -0.8716  0.6238
10055TIP3    H251657   4.882   0.301  11.000 -1.7189 -0.3511 -0.1931
10056TIP3   OH251658   1.129   4.259   0.200  0.3375  0.6845  0.0125
10056TIP3    H151659   1.067   4.325   0.229 -0.0015  0.3184  0.1392
10056TIP3    H251660   1.198   4.260   0.266 -1.2213 -1.2764  1.8160
10057TIP3   OH251661   1.757   0.553   0.420  0.5246  0.2167  0.1108
10057TIP3    H151662   1.736   0.519   0.507 -0.9404  0.1003 -0.2735
10057TIP3    H251663   1.736   0.647   0.425 -0.6913 -0.0075 -0.4429
10058TIP3   OH251664   2.444   4.665  14.443 -0.2182 -0.7756  0.0052
10058TIP3    H151665   2.406   4.579  14.459 -3.4035  0.1613 -1.5039
10058TIP3    H251666   2.505   4.652  14.370 -1.3950 -1.6504 -0.8559
10059TIP3   OH251667   6.192   4.112   4.813 -0.1967 -0.5164 -0.4529
10059TIP3    H151668   6.184   4.023   4.845 -0.5854 -0.0983  0.6431
10059TIP3    H251669   6.284   4.135   4.828 -0.3382 -0.3813  0.2253
10060TIP3   OH251670   0.710   2.607   0.218 -0.2937 -0.1562  0.0368
10060TIP3    H151671   0.631   2.653   0.188  0.0711  0.5495  0.1350
10060TIP3    H251672   0.748   2.666   0.284  0.7776 -0.0930 -0.6250
10061TIP3   OH251673   5.959   4.173  13.724  0.0870 -0.0084  0.2905
10061TIP3    H151674   5.929   4.082  13.726  1.1561 -0.3704  0.5503
10061TIP3    H251675   5.931   4.205  13.638  0.6930 -0.9509 -0.2784
10062TIP3   OH251676   4.601   0.620  16.899 -0.0505  0.7481 -0.1200
10062TIP3    H151677   4.659   0.660  16.964  2.4014  0.5805 -2.0538
10062TIP3    H251678   4.609   0.526  16.913 -2.7251  0.6999  1.8525
10063TIP3   OH251679   5.038   4.486   4.654  0.4143  0.2052  0.2992
10063TIP3    H151680   5.058   4.415   4.593  0.9173  0.4081  0.2179
10063TIP3    H251681   5.071   4.565   4.610  1.7361  0.2320  1.2702
10064TIP3   OH251682   4.950   6.109  15.074  0.8168 -0.4690 -0.1724
10064TIP3    H151683   4.914   6.117  14.986  1.2274 -0.8521 -0.3768
10064TIP3    H251684   4.945   6.015  15.094 -0.5161 -0.2258  0.7429
10065TIP3   OH251685   5.737   5.478   2.625 -0.0010 -0.1605  0.2053
10065TIP3    H151686   5.737   5.549   2.689  1.9863  0.7383 -0.7181
10065TIP3    H251687   5.657   5.492   2.574 -0.0382  0.9454  0.5357
10066TIP3   OH251688   5.062   6.063  11.404 -0.3996  0.0830 -0.3748
10066TIP3    H151689   5.084   6.110  11.485 -1.4419  1.1747 -0.6983
10066TIP3    H251690   5.092   6.121  11.334 -1.1394 -0.0104 -0.7773
10067TIP3   OH251691   2.910   3.048   2.944 -0.5003 -0.2697  0.7477
10067TIP3    H151692   2.827   3.030   2.987 -1.4359  0.9822 -0.4312
10067TIP3    H251693   2.961   3.096   3.009 -1.1332 -0.0816  1.1123
10068TIP3   OH251694   3.057   6.452  10.626 -0.2160  0.1900  0.4657
10068TIP3    H151695   3.018   6.523  10.575  2.3418 -0.6793 -3.1542
10068TIP3    H251696   3.092   6.494  10.704 -1.7409  2.2447  0.1100
10069TIP3   OH251697   2.589   4.909   1.731 -0.4824 -0.4388  0.0697
10069TIP3    H151698   2.580   4.991   1.780 -0.2170 -0.6212  0.4291
10069TIP3    H251699   2.683   4.902   1.714 -0.5871 -0.3052 -0.5960
10070TIP3   OH251700   2.271   6.095  12.386  0.2793  0.1689  0.0422
10070TIP3    H151701   2.206   6.158  12.415  1.4870  1.5816 -0.2124
10070TIP3    H251702   2.355   6.141  12.392  1.1691 -1.2793 -0.5180
10071TIP3   OH251703   4.819   4.522   2.152  0.3008 -0.4011 -0.1619
10071TIP3    H151704   4.881   4.590   2.124  0.7729 -0.8682 -0.2696
10071TIP3    H251705   4.760   4.567   2.214  0.6725  0.0779 -0.1501
10072TIP3   OH251706   4.322   6.554  16.925 -0.1403  0.1251  0.1658
10072TIP3    H151707   4.326   6.581  16.833  0.5123 -0.8546 -0.1099
10072TIP3    H251708   4.270   6.622  16.968  0.4659  1.1854 -0.7167
10073TIP3   OH251709   4.493   2.037  15.334  0.1094  0.3314 -0.0456
10073TIP3    H151710   4.448   1.963  15.375 -2.2152  1.7178  0.0545
10073TIP3    H251711   4.577   2.000  15.305 -0.5592 -2.0867  0.8254
10074TIP3   OH251712   0.630   6.104  13.020  0.3885 -0.0211  0.2720
10074TIP3    H151713   0.593   6.111  13.109  0.7426 -1.7915  0.5823
10074TIP3    H251714   0.574   6.162  12.967  0.9599  2.1105  1.8411
10075TIP3   OH251715   2.851   3.277   1.656 -0.0109 -0.0829  0.1481
10075TIP3    H151716   2.789   3.298   1.725 -2.0973 -1.3132 -1.2446
10075TIP3    H251717   2.808   3.303   1.575  1.2719 -1.0182 -0.8845
10076TIP3   OH251718   2.508   3.721  12.853 -0.4463  0.1969  0.3435
10076TIP3    H151719   2.428   3.672  12.871  0.1111 -0.5558  0.8564
10076TIP3    H251720   2.558   3.664  12.795 -0.5058  0.8979 -0.4147
10077TIP3   OH251721   5.361   0.193   4.516  0.6095  0.1842  0.4194
10077TIP3    H151722   5.305   0.197   4.439 -0.2131  0.6721  1.0231
10077TIP3    H251723   5.301   0.203   4.590  1.5109  0.9216  1.0778
10078TIP3   OH251724   2.694   2.684   1.046  0.1400  0.0495  0.0734
10078TIP3    H151725   2.679   2.778   1.060 -0.7588 -0.0492 -0.1297
10078TIP3    H251726   2.606   2.648   1.032  0.4401 -0.8777  0.4883
10079TIP3   OH251727   3.486   3.325  13.984 -0.1260  0.4078 -0.6728
10079TIP3    H151728   3.439   3.253  13.941  0.0063  0.1020 -0.3074
10079TIP3    H251729   3.431   3.403  13.967 -0.3582  0.1913 -0.9199
10080TIP3   OH251730   2.906   4.691   3.301  0.0879 -0.1383  0.4498
10080TIP3    H151731   2.863   4.712   3.218  1.2991 -1.2168 -0.4865
10080TIP3    H251732   2.995   4.725   3.291  0.7858 -1.8489  0.5698
10081TIP3   OH251733   0.701   6.573  10.446  0.1888  0.2082  0.3210
10081TIP3    H151734   0.673   6.643  10.386  3.0849  0.8831 -0.4205
10081TIP3    H251735   0.791   6.598  10.470  1.4483 -3.3675 -0.1689
10082TIP3   OH251736   4.273   0.164  15.517  0.2410  0.5881  0.3004
10082TIP3    H151737   4.353   0.214  15.501  1.3275 -0.9040  0.8214
10082TIP3    H251738   4.302   0.089  15.568 -1.4272 -0.2382  0.0901
10083TIP3   OH251739   0.792   1.511   3.863  0.0743  0.0331  0.6600
10083TIP3    H151740   0.851   1.449   3.820 -0.4668 -0.6302  0.8528
10083TIP3    H251741   0.738   1.457   3.920 -1.5850  0.4544 -0.4555
10084TIP3   OH251742   0.359   0.703   2.452 -0.1193 -0.2622 -0.2432
10084TIP3    H151743   0.435   0.713   2.509 -0.2658  1.4993 -0.3247
10084TIP3    H251744   0.297   0.770   2.482 -1.1889 -0.9223 -0.9066
10085TIP3   OH251745   1.509   0.089  14.453  0.4205 -0.1235 -0.1626
10085TIP3    H151746   1.449   0.153  14.493  0.6249 -0.0318 -0.0020
10085TIP3    H251747   1.470   0.004  14.475  0.3439 -0.0645 -0.0641
10086TIP3   OH251748   2.611   3.248   3.198  0.5928 -0.3786  0.5873
10086TIP3    H151749   2.553   3.273   3.269 -0.9105 -1.1680 -0.3003
10086TIP3    H251750   2.621   3.327   3.145  0.7040 -0.1182  0.9983
10087TIP3   OH251751   5.535   6.530   5.201 -0.4884 -0.6118 -0.1988
10087TIP3    H151752   5.537   6.604   5.140 -0.3071 -0.7879 -0.4047
10087TIP3    H251753   5.450   6.488   5.184 -0.7617 -0.2237  0.1883
10088TIP3   OH251754   2.552   6.208  12.306  0.2340  0.5572  0.1289
10088TIP3    H151755   2.582   6.233  12.219  0.7822  1.2718  0.5041
10088TIP3    H251756   2.613   6.252  12.365  0.3320 -0.5096  0.8632
10089TIP3   OH251757   2.570   3.561  10.911  0.3374  0.0395  0.5966
10089TIP3    H151758   2.536   3.473  10.923  0.0369  0.1166  0.3075
10089TIP3    H251759   2.497   3.611  10.874  0.7710  0.1900 -0.0764
10090TIP3   OH251760   4.745   2.502  13.671 -0.4497 -0.5720  0.8684
10090TIP3    H151761   4.731   2.593  13.644  0.8464 -0.6594 -0.2730
10090TIP3    H251762   4.798   2.508  13.751  3.1317 -0.1954 -1.2837
10091TIP3   OH251763   3.740   5.807  16.587  0.3070  0.1015 -0.1689
10091TIP3    H151764   3.647   5.830  16.590  0.0395 -1.0034  0.4262
10091TIP3    H251765   3.779   5.854  16.660  0.4080  1.3227 -0.9870
10092TIP3   OH251766   3.670   3.309  13.475 -0.4319  0.4615 -0.6843
10092TIP3    H151767   3.765   3.304  13.463 -0.3932 -0.1053 -0.1879
10092TIP3    H251768   3.637   3.232  13.429 -0.3866 -1.0379  1.6184
10093TIP3   OH251769   1.321   0.104  17.051  0.1695 -0.4686 -0.0200
10093TIP3    H151770   1.306   0.120  16.958  0.7039 -0.5128 -0.1161
10093TIP3    H251771   1.308   0.009  17.062 -3.6230 -0.0208  0.6674
10094TIP3   OH251772   1.355   0.231  13.503 -0.3749 -0.5730  0.3634
10094TIP3    H151773   1.378   0.152  13.453  0.4899  0.5882 -1.1905
10094TIP3    H251774   1.430   0.245  13.561  0.2274 -0.0467 -0.5066
10095TIP3   OH251775   3.168   1.063  15.481 -0.4653 -0.1000 -0.3626
10095TIP3    H151776   3.090   1.008  15.480 -1.9970  1.9614 -0.3415
10095TIP3    H251777   3.156   1.121  15.556  2.1270 -1.0186  0.9199
10096TIP3   OH251778   5.086   1.140   2.938  0.1073  0.3640 -0.1392
10096TIP3    H151779   5.116   1.194   3.011  1.5340 -2.2383  1.3515
10096TIP3    H251780   4.991   1.151   2.937  0.1769  1.3202  1.3744
10097TIP3   OH251781   4.997   2.079  16.619  0.0349  0.0525  0.8613
10097TIP3    H151782   5.067   2.144  16.628  1.1861 -1.2088  1.3788
10097TIP3    H251783   5.041   2.002  16.584 -1.3738 -0.3471 -0.1176
10098TIP3   OH251784   3.120   3.453   2.616  0.6252 -0.0420 -0.4870
10098TIP3    H151785   3.041   3.483   2.660  0.3699 -2.4234  0.8448
10098TIP3    H251786   3.164   3.533   2.589 -1.2466  1.4049  0.4906
10099TIP3   OH251787   4.308   5.846  14.650  0.3495  0.3522 -0.0989
10099TIP3    H151788   4.390   5.886  14.620  1.2394 -1.7367 -0.6065
10099TIP3    H251789   4.290   5.890  14.733  3.8942 -1.3873  1.8581
10100TIP3   OH251790   2.582   3.045  16.973  0.0655  0.2684 -0.1003
10100TIP3    H151791   2.620   2.970  17.018  2.9362  0.9959 -1.1264
10100TIP3    H251792   2.521   3.082  17.036 -0.6310 -2.2586  0.8202
10101TIP3   OH251793   5.843   5.730   4.524  0.1477  0.2599  0.4047
10101TIP3    H151794   5.820   5.710   4.433  2.5871 -2.2592  0.2097
10101TIP3    H251795   5.931   5.768   4.518  0.2855  0.1771  1.7007
10102TIP3   OH251796   3.836   1.577  12.497 -0.1674  0.3129  0.5613
10102TIP3    H151797   3.803   1.606  12.582  0.3187  0.5538  0.6736
10102TIP3    H251798   3.835   1.656  12.443 -0.3967  0.1780  0.3669
10103TIP3   OH251799   5.264   6.598  16.322 -0.1503 -0.5455  0.2584
10103TIP3    H151800   5.214   6.518  16.340 -1.7442  0.3225 -0.1126
10103TIP3    H251801   5.197   6.663  16.301  1.1745  0.6040 -0.5421
10104TIP3   OH251802   5.762   2.076   6.639 -0.0999  0.3401 -0.3911
10104TIP3    H151803   5.672   2.085   6.669 -0.7415  1.0519 -2.3780
10104TIP3    H251804   5.781   1.982   6.646 -0.6857  0.2974  0.8045
10105TIP3   OH251805   2.991   5.188   6.191  0.0335  0.1789  0.0393
10105TIP3    H151806   2.903   5.207   6.158  0.7484  0.6114 -1.6758
10105TIP3    H251807   3.039   5.270   6.182  0.5643  0.0341  1.2552
10106TIP3   OH251808   6.372   5.932   0.189  0.4268 -0.4961  0.2083
10106TIP3    H151809   6.373   5.902   0.098  3.9056  0.2467 -0.1592
10106TIP3    H251810   6.421   5.864   0.237  1.2083  0.5274  0.9121
10107TIP3   OH251811   5.142   3.408  11.545  0.3796  0.1768  0.4914
10107TIP3    H151812   5.101   3.322  11.557 -0.5717  0.5831  0.2097
10107TIP3    H251813   5.235   3.388  11.533  0.0839 -0.8708 -0.2193
10108TIP3   OH251814   5.212   1.871   5.444 -0.1361  0.0222  0.2511
10108TIP3    H151815   5.259   1.838   5.521  0.3571 -0.2289 -0.1504
10108TIP3    H251816   5.254   1.955   5.425 -0.3340  0.1375  0.3205
10109TIP3   OH251817   1.314   5.752   3.135  0.5056  0.1782  0.0258
10109TIP3    H151818   1.266   5.823   3.176  1.9947  0.7039  0.9457
10109TIP3    H251819   1.394   5.743   3.187  0.1830 -2.4811  0.2318
10110TIP3   OH251820   6.680   0.082  15.762 -1.0599  0.0811  0.3265
10110TIP3    H151821   6.669   0.174  15.738  1.5466  0.0067 -1.5104
10110TIP3    H251822   6.645   0.033  15.687 -0.5503 -0.3765  0.3805
10111TIP3   OH251823   2.544   5.819   5.814  0.0674 -0.3468  0.5073
10111TIP3    H151824   2.560   5.906   5.850  0.1653 -0.0412 -0.2750
10111TIP3    H251825   2.630   5.778   5.809  0.1021 -0.2385  0.2308
10112TIP3   OH251826   6.366   4.150  16.904 -0.1423  0.0480 -0.4065
10112TIP3    H151827   6.460   4.166  16.899  0.3124 -2.0493  0.5878
10112TIP3    H251828   6.352   4.066  16.861 -1.4896  0.1037 -0.1405
10113TIP3   OH251829   6.768   5.287   0.722  0.0247 -0.6433 -0.6265
10113TIP3    H151830   6.863   5.299   0.731 -0.0970 -0.2883  0.3243
10113TIP3    H251831   6.742   5.350   0.655  0.2821  0.1754  0.0226
10114TIP3   OH251832   0.646   4.465  14.584  0.5402 -0.3946  0.1116
10114TIP3    H151833   0.685   4.380  14.605 -0.1775 -0.9396 -0.7214
10114TIP3    H251834   0.569   4.444  14.531 -0.0270  0.7417  0.4498
10115TIP3   OH251835   0.772   3.299   1.740 -0.2821  0.3347  0.2496
10115TIP3    H151836   0.763   3.205   1.754 -2.3313  0.5585  0.7868
10115TIP3    H251837   0.865   3.316   1.751  0.1009 -1.5931  0.3653
10116TIP3   OH251838   3.602   5.735   5.654  0.7541 -0.7367 -0.3426
10116TIP3    H151839   3.592   5.829   5.636 -1.3490 -0.6266  1.1017
10116TIP3    H251840   3.690   5.727   5.690  1.5032  0.4267 -1.7610
10117TIP3   OH251841   4.680   1.548   5.696  0.4173 -0.6190  0.3787
10117TIP3    H151842   4.672   1.527   5.603 -2.2933 -0.1893  0.4202
10117TIP3    H251843   4.674   1.463   5.741  1.5610 -0.8098  0.2004
10118TIP3   OH251844   0.631   2.101   6.280  0.5723 -0.2102  0.8590
10118TIP3    H151845   0.612   2.011   6.306  1.7385 -1.1946 -1.3819
10118TIP3    H251846   0.605   2.105   6.188  2.6141  1.0559  0.2794
10119TIP3   OH251847   0.526   5.770  14.746 -0.5230  0.2515  0.4392
10119TIP3    H151848   0.478   5.688  14.736  0.9756 -0.4731 -1.3266
10119TIP3    H251849   0.522   5.812  14.660  0.6248  0.9385  0.6881
10120TIP3   OH251850   5.245   0.388  13.785 -0.4430  0.8604  0.5483
10120TIP3    H151851   5.188   0.379  13.709 -1.2680  2.6339  0.9142
10120TIP3    H251852   5.186   0.399  13.859  0.3607 -0.2449  1.3892
10121TIP3   OH251853   2.761   4.679   2.267 -0.0138  0.1496  0.6425
10121TIP3    H151854   2.789   4.654   2.355 -0.5148  0.0282  0.7743
10121TIP3    H251855   2.671   4.711   2.279 -0.1991 -0.1630  0.1369
10122TIP3   OH251856   1.946   5.999  14.728 -0.3693  0.0338  0.0887
10122TIP3    H151857   2.013   5.996  14.796  1.2687  0.7898 -1.3998
10122TIP3    H251858   1.966   5.925  14.671 -2.0471 -0.9135  0.6367
10123TIP3   OH251859   6.417   5.511  16.904 -0.1858 -0.0081 -0.5789
10123TIP3    H151860   6.372   5.566  16.839 -1.2181 -0.2986 -0.1177
10123TIP3    H251861   6.353   5.445  16.928  0.6174 -0.6504 -0.1651
10124TIP3   OH251862   5.508   2.844  12.877 -0.2793 -0.2237 -0.0349
10124TIP3    H151863   5.512   2.921  12.820  0.1800 -0.9808 -1.0417
10124TIP3    H251864   5.484   2.880  12.963  0.4631  1.1053 -0.3565
10125TIP3   OH251865   2.078   6.494  14.560  0.4017  0.0507  0.1694
10125TIP3    H151866   2.167   6.529  14.566  0.7719 -0.9482  0.7720
10125TIP3    H251867   2.073   6.456  14.472 -0.0282  1.6204 -0.5183
10126TIP3   OH251868   6.080   1.247   0.703  0.1313  0.1552 -0.4072
10126TIP3    H151869   6.121   1.292   0.777  1.5148 -0.6467 -0.6603
10126TIP3    H251870   6.149   1.239   0.638 -1.3601  1.9614 -2.3568
10127TIP3   OH251871   2.213   0.670  14.220 -0.8686  0.4186 -0.0758
10127TIP3    H151872   2.244   0.610  14.153 -0.9130 -0.9173  1.0656
10127TIP3    H251873   2.164   0.615  14.281 -3.3157  2.0206 -0.4316
10128TIP3   OH251874   0.139   4.905  13.639 -0.0821  0.4250 -0.0443
10128TIP3    H151875   0.177   4.973  13.695 -0.7959  0.2749  0.6324
10128TIP3    H251876   0.163   4.823  13.683  0.3546  0.2546 -0.5947
10129TIP3   OH251877   1.857   3.896   2.795 -0.0711 -0.3910  0.1694
10129TIP3    H151878   1.849   3.817   2.740  0.3526  0.1643 -0.7084
10129TIP3    H251879   1.930   3.877   2.853  0.4121 -0.4209 -0.4366
10130TIP3   OH251880   3.383   6.427  12.277  1.1232  0.1197  0.2341
10130TIP3    H151881   3.437   6.491  12.323  0.5427  0.6521  0.1977
10130TIP3    H251882   3.328   6.480  12.220  0.5680 -0.4106  0.2693
10131TIP3   OH251883   4.675   6.147   1.518  0.5579  0.2695 -0.1640
10131TIP3    H151884   4.751   6.131   1.572  0.2777 -0.0313  0.1441
10131TIP3    H251885   4.612   6.080   1.543  0.5083 -0.0222 -1.0292
10132TIP3   OH251886   2.436   5.835  12.212  0.0891  0.2496  0.5109
10132TIP3    H151887   2.494   5.898  12.255 -0.9082  1.2221  0.4803
10132TIP3    H251888   2.394   5.788  12.285  0.0232  0.3803  0.5572
10133TIP3   OH251889   4.162   1.930  14.241  0.0430  0.4272  0.0556
10133TIP3    H151890   4.090   1.994  14.246 -1.8556 -1.3883 -2.1260
10133TIP3    H251891   4.124   1.849  14.276  0.8176 -0.6969 -1.5922
10134TIP3   OH251892   2.810   6.599   1.349  0.2704 -0.1121  0.1098
10134TIP3    H151893   2.859   6.647   1.282  0.8178 -0.6121  0.1427
10134TIP3    H251894   2.819   6.652   1.428  1.8983 -0.8392  0.4589
10135TIP3   OH251895   3.093   3.924  11.961 -0.3127  0.5966 -0.4141
10135TIP3    H151896   3.007   3.964  11.969 -0.0994  1.5683 -2.4709
10135TIP3    H251897   3.081   3.854  11.897  0.6492  1.5535 -1.6910
10136TIP3   OH251898   4.995   1.638   2.650  0.4650  0.2730 -0.1252
10136TIP3    H151899   4.961   1.710   2.598 -1.6830 -0.7620 -0.2519
10136TIP3    H251900   5.010   1.675   2.736  1.3150  1.3214 -0.7059
10137TIP3   OH251901   4.601   3.035  16.622 -0.5561  0.2969 -0.1997
10137TIP3    H151902   4.597   2.940  16.630 -2.4049  0.2865 -0.6703
10137TIP3    H251903   4.581   3.068  16.710  1.5288  0.3033  0.3269
10138TIP3   OH251904   1.230   1.196   2.265 -0.0096  0.4482 -0.2053
10138TIP3    H151905   1.204   1.104   2.271  0.7804  0.2134 -0.2293
10138TIP3    H251906   1.162   1.237   2.210 -1.0189  0.1479  0.7802
10139TIP3   OH251907   0.563   5.136   3.511  0.0617 -0.9708 -0.7980
10139TIP3    H151908   0.550   5.206   3.446 -1.1417  0.2688  0.7030
10139TIP3    H251909   0.524   5.058   3.471 -2.1725  0.1462 -0.9621
10140TIP3   OH251910   2.972   1.004   1.123  0.1951  0.4984  0.7450
10140TIP3    H151911   3.044   0.965   1.073 -2.7486 -1.0996 -2.7274
10140TIP3    H251912   2.917   0.930   1.147 -3.8014  1.8259 -3.0105
10141TIP3   OH251913   6.282   4.467   5.182 -0.1746 -0.2672 -0.4998
10141TIP3    H151914   6.205   4.412   5.170 -0.2808 -0.1084 -0.5532
10141TIP3    H251915   6.324   4.434   5.261 -0.3854 -0.2512 -0.3805
10142TIP3   OH251916   2.067   6.211  17.109  0.2292 -0.1082 -0.2229
10142TIP3    H151917   2.114   6.131  17.088 -1.1379 -0.3095 -2.8521
10142TIP3    H251918   2.002   6.220  17.040 -2.6794  0.9125  2.4342
10143TIP3   OH251919   1.109   1.367  12.952 -0.4034 -0.1120 -0.3604
10143TIP3    H151920   1.189   1.317  12.942  0.5803  1.5376 -1.1831
10143TIP3    H251921   1.077   1.380  12.863 -1.0678  0.0536 -0.1086
10144TIP3   OH251922   2.826   0.696  12.060  0.6442 -0.4383 -0.1070
10144TIP3    H151923   2.785   0.736  11.983  1.2683 -0.3302 -0.3902
10144TIP3    H251924   2.916   0.730  12.059  0.2243  0.8672  1.5919
10145TIP3   OH251925   1.999   6.084  15.376  0.1863 -0.1449  0.0810
10145TIP3    H151926   1.954   6.005  15.346 -0.1304 -0.1237  0.4965
10145TIP3    H251927   2.088   6.075  15.341 -0.6640  0.8432 -2.5880
10146TIP3   OH251928   5.035   0.229   3.541 -0.1651 -0.3372  0.2993
10146TIP3    H151929   5.105   0.177   3.501  0.1866 -1.0990  1.8160
10146TIP3    H251930   5.067   0.319   3.538  0.7756 -0.6477  0.7217
10147TIP3   OH251931   1.347   6.733  15.339 -0.0370  0.2129  0.3011
10147TIP3    H151932   1.439   6.711  15.324  0.1897  0.5880  1.0574
10147TIP3    H251933   1.298   6.670  15.286  0.6334 -0.6049  0.6245
10148TIP3   OH251934   3.809   2.087  15.535 -0.1781  0.0607 -0.0902
10148TIP3    H151935   3.824   1.993  15.536  2.2421  0.3826 -0.5180
10148TIP3    H251936   3.854   2.118  15.456 -0.2610  1.6640  0.4484
10149TIP3   OH251937   5.910   0.902   3.775 -0.1469 -0.2456  0.1407
10149TIP3    H151938   6.002   0.882   3.790  0.1710 -0.5922 -1.9241
10149TIP3    H251939   5.903   0.997   3.790 -0.0378 -0.5812  2.6742
10150TIP3   OH251940   0.575   2.938   4.660  0.4377 -0.1403  0.1352
10150TIP3    H151941   0.610   2.867   4.607  0.2911  1.1131 -1.7330
10150TIP3    H251942   0.648   2.964   4.716  0.7363 -1.1962  0.2510
10151TIP3   OH251943   4.065   1.340  13.446 -0.8723 -0.3391 -0.9006
10151TIP3    H151944   4.013   1.421  13.446 -0.3223  0.0233 -0.4309
10151TIP3    H251945   4.061   1.309  13.536  0.5807  0.2669 -0.6046
10152TIP3   OH251946   0.786   5.534  11.596  0.0749  0.1584 -0.7417
10152TIP3    H151947   0.725   5.603  11.621 -1.9302 -1.5095 -0.8564
10152TIP3    H251948   0.825   5.505  11.679 -2.3937 -1.5320 -0.0777
10153TIP3   OH251949   6.084   6.476   5.430 -0.2099  0.2159  0.1092
10153TIP3    H151950   6.045   6.553   5.389 -2.2942 -0.0854  1.3513
10153TIP3    H251951   6.060   6.403   5.373  2.1504  0.4600 -1.3102
10154TIP3   OH251952   0.754   5.015  12.022 -0.1142  0.3484  0.1721
10154TIP3    H151953   0.727   5.102  11.991  0.8936 -0.1550 -2.3499
10154TIP3    H251954   0.689   4.955  11.985 -0.8895 -0.0225  2.0188
10155TIP3   OH251955   6.787   6.046   5.164  0.8160  1.0743 -0.6450
10155TIP3    H151956   6.752   6.133   5.183  1.6199  1.1350  0.6781
10155TIP3    H251957   6.858   6.062   5.102  1.3514  1.4414  0.0502
10156TIP3   OH251958   4.443   1.000   4.803 -0.1235 -0.3242  0.3213
10156TIP3    H151959   4.447   1.089   4.770 -0.7844 -0.1082  0.8046
10156TIP3    H251960   4.533   0.969   4.799  0.0641  0.2615 -0.1253
10157TIP3   OH251961   1.628   0.842  16.175  0.2578 -0.0687 -0.5784
10157TIP3    H151962   1.724   0.842  16.178  0.2459 -0.3427 -0.2155
10157TIP3    H251963   1.602   0.771  16.233 -0.1799  0.3223 -0.2873
10158TIP3   OH251964   3.315   1.364  12.220 -0.1248  0.6267 -0.3665
10158TIP3    H151965   3.307   1.295  12.286 -2.3746 -0.6695 -1.8436
10158TIP3    H251966   3.343   1.317  12.141  0.5793  1.8040 -0.8303
10159TIP3   OH251967   0.176   1.492   3.593 -0.7417 -0.1471  0.2698
10159TIP3    H151968   0.259   1.511   3.637 -1.6642  2.2415  1.1030
10159TIP3    H251969   0.133   1.428   3.650  0.5100 -1.5492 -0.2557
10160TIP3   OH251970   2.758   1.976  14.732  0.2904  0.3071 -0.1549
10160TIP3    H151971   2.691   2.039  14.706 -0.0036  0.1455  0.2145
10160TIP3    H251972   2.823   2.028  14.780 -1.0768 -0.0296  2.1666
10161TIP3   OH251973   3.298   5.153   4.007 -0.2561  0.1635 -0.1700
10161TIP3    H151974   3.378   5.150   4.060 -0.7993  0.2552  0.6780
10161TIP3    H251975   3.329   5.146   3.917  0.5510 -2.5199  0.2177
10162TIP3   OH251976   3.435   2.953   3.351  0.5841 -0.5747  0.5386
10162TIP3    H151977   3.398   2.881   3.300  0.1426 -1.0500  1.4991
10162TIP3    H251978   3.525   2.926   3.370  0.6095 -0.6013  0.3761
10163TIP3   OH251979   4.141   4.188  15.343  0.0840  0.1401  0.1909
10163TIP3    H151980   4.057   4.192  15.389 -0.4086 -1.3343 -0.5149
10163TIP3    H251981   4.118   4.162  15.254  1.2177  0.7059 -0.2870
10164TIP3   OH251982   3.651   5.935   4.083 -0.6740  0.2026  0.4447
10164TIP3    H151983   3.679   5.890   4.163  1.4783  1.1922  0.3029
10164TIP3    H251984   3.709   6.011   4.077 -2.4734  1.5461 -0.7394
10165TIP3   OH251985   6.483   3.663  13.217 -0.1145 -0.3257  0.3218
10165TIP3    H151986   6.527   3.723  13.157 -0.7458  0.0279  0.2117
10165TIP3    H251987   6.522   3.683  13.303 -0.2530  0.1741  0.2708
10166TIP3   OH251988   2.160   0.041  14.522 -0.0594 -0.1272 -0.0139
10166TIP3    H151989   2.194  -0.026  14.581 -1.7295 -1.0976 -0.1020
10166TIP3    H251990   2.078   0.070  14.562 -0.1696  0.7036 -0.7949
10167TIP3   OH251991   5.218   0.312  12.698  0.2430  0.4083  0.1041
10167TIP3    H151992   5.165   0.391  12.710 -0.8567 -0.1805 -0.7751
10167TIP3    H251993   5.225   0.302  12.603  2.5402  0.8488  0.1683
10168TIP3   OH251994   6.379   4.988  13.567 -0.0439 -0.1526  0.0249
10168TIP3    H151995   6.301   4.958  13.613 -0.3956  0.1121 -0.3796
10168TIP3    H251996   6.357   5.078  13.540  0.2105 -0.2496 -0.5170
10169TIP3   OH251997   1.242   4.359   2.539  0.3906 -0.5958 -0.4147
10169TIP3    H151998   1.265   4.283   2.592 -2.7558 -0.2437  1.7712
10169TIP3    H251999   1.166   4.330   2.488 -0.6714  0.8768  0.2292
10170TIP3   OH252000   5.624   6.148   0.904 -0.1624 -0.0340 -0.5242
10170TIP3    H152001   5.642   6.064   0.946 -1.6949 -1.0424 -1.7353
10170TIP3    H252002   5.552   6.185   0.956 -0.3823 -0.1145 -0.7672
10171TIP3   OH252003   0.553   4.600   3.279  0.1819  0.1638 -0.6138
10171TIP3    H152004   0.491   4.668   3.253  1.7650  2.2741  0.8127
10171TIP3    H252005   0.596   4.574   3.198 -0.6070  0.7036 -1.2223
10172TIP3   OH252006   6.593   2.726   2.904  0.0085  0.1362 -0.3936
10172TIP3    H152007   6.508   2.708   2.945  0.4331 -0.3920  0.2955
10172TIP3    H252008   6.597   2.664   2.831 -0.6462  0.9099 -1.1153
10173TIP3   OH252009   0.820   1.749  10.463 -0.1144  0.8129  0.7497
10173TIP3    H152010   0.789   1.786  10.381 -1.4652  0.2202  0.9637
10173TIP3    H252011   0.856   1.823  10.511  0.2901  1.2387 -0.1963
10174TIP3   OH252012   2.316   4.888   3.479  0.1713 -0.1348 -0.2862
10174TIP3    H152013   2.316   4.794   3.462  0.2576  0.2083 -2.4763
10174TIP3    H252014   2.409   4.911   3.485  0.1599 -0.3968  1.9972
10175TIP3   OH252015   0.826   5.296  14.250 -0.9120  0.1642 -0.5780
10175TIP3    H152016   0.896   5.233  14.271 -0.1601  1.2810  0.4293
10175TIP3    H252017   0.810   5.342  14.333 -3.6427 -0.7758 -0.4763
10176TIP3   OH252018   1.249   4.096  16.509 -0.0253  0.5817 -0.5167
10176TIP3    H152019   1.302   4.159  16.459  0.6347  0.7185  0.3388
10176TIP3    H252020   1.212   4.147  16.581 -0.9670  0.3793 -0.8374
10177TIP3   OH252021   6.213   6.137  15.101  0.5750  0.6723  0.0869
10177TIP3    H152022   6.124   6.143  15.136  0.1411 -0.5220 -0.7266
10177TIP3    H252023   6.201   6.137  15.006  1.2607 -1.3822 -0.0494
10178TIP3   OH252024   3.992   2.264   2.206 -0.4127 -0.1674  0.0804
10178TIP3    H152025   4.062   2.315   2.165 -1.5609  1.3702 -0.0809
10178TIP3    H252026   4.023   2.174   2.204  0.1996  0.0194 -2.9148
10179TIP3   OH252027   1.533   5.703  16.810  0.4695  0.3464  0.0583
10179TIP3    H152028   1.575   5.671  16.730  0.9313  0.3667  0.2877
10179TIP3    H252029   1.448   5.736  16.781  0.4834  0.0210 -0.3674
10180TIP3   OH252030   0.522   3.528  11.148  0.7297 -0.1899  0.1598
10180TIP3    H152031   0.436   3.569  11.159  1.2036  1.2168 -1.0283
10180TIP3    H252032   0.513   3.442  11.189 -1.6537 -0.6218 -1.1058
10181TIP3   OH252033   1.511   4.768  11.014 -0.4494  0.2099 -0.1367
10181TIP3    H152034   1.544   4.849  11.053  0.7532 -1.2864  2.2257
10181TIP3    H252035   1.448   4.735  11.079  1.6084 -2.3793  0.7206
10182TIP3   OH252036   1.107   4.337   4.431  0.7089 -0.4569 -0.4874
10182TIP3    H152037   1.187   4.345   4.380  1.2894  0.7675  0.5370
10182TIP3    H252038   1.118   4.256   4.481  0.3218 -1.4313 -1.9433
10183TIP3   OH252039   5.438   0.778   0.794  0.0823 -0.0223  0.8435
10183TIP3    H152040   5.408   0.689   0.813 -2.2819  0.6159  0.4292
10183TIP3    H252041   5.518   0.766   0.745  0.4984 -1.8897  1.8665
10184TIP3   OH252042   2.996   5.293   3.220 -0.1887 -0.7243  0.1813
10184TIP3    H152043   2.938   5.323   3.291  2.0867  0.6625  1.5865
10184TIP3    H252044   3.020   5.204   3.245  0.6218 -0.2383  1.2583
10185TIP3   OH252045   0.562   6.044  11.486  0.3512 -0.2590  0.0404
10185TIP3    H152046   0.546   6.059  11.392  1.9889  0.7653 -0.1329
10185TIP3    H252047   0.561   6.132  11.524 -0.5560 -0.6876  1.0530
10186TIP3   OH252048   0.689   0.506  14.870 -0.4322  0.2699  0.4457
10186TIP3    H152049   0.775   0.544  14.887 -0.0987 -0.8151  1.3503
10186TIP3    H252050   0.650   0.495  14.957 -1.4217  0.5959  0.0558
10187TIP3   OH252051   6.467   2.359  10.953  0.2964  0.0964  0.2868
10187TIP3    H152052   6.428   2.443  10.978  0.1452  0.7182 -1.8586
10187TIP3    H252053   6.557   2.381  10.930  0.5218 -0.5047  0.5909
10188TIP3   OH252054   0.008   1.747   0.434  0.4238  0.1827 -0.6736
10188TIP3    H152055  -0.045   1.787   0.365 -1.0552  1.0608  0.8835
10188TIP3    H252056   0.003   1.653   0.417 -3.0523  0.0708  0.2354
10189TIP3   OH252057   6.817   5.748   4.252  0.0095 -0.1845  0.0392
10189TIP3    H152058   6.761   5.705   4.188  0.2423  1.1465 -1.1037
10189TIP3    H252059   6.758   5.774   4.323 -0.2739 -1.5218  0.3276
10190TIP3   OH252060   0.545   3.593   2.348 -0.0560 -0.1152 -0.1059
10190TIP3    H152061   0.506   3.678   2.331  2.3753  0.6764 -2.4389
10190TIP3    H252062   0.614   3.611   2.413 -0.4030 -0.5880  0.4055
10191TIP3   OH252063   1.931   4.014  15.128  0.6962  0.2823  0.1726
10191TIP3    H152064   2.010   3.977  15.087  0.5190  1.6885 -1.5244
10191TIP3    H252065   1.909   3.951  15.197  2.1588 -1.1612 -0.6009
10192TIP3   OH252066   2.924   0.558  16.313 -0.2282 -0.4730 -0.1102
10192TIP3    H152067   2.942   0.637  16.363  0.9411  0.0006 -1.2141
10192TIP3    H252068   2.875   0.588  16.237 -0.2639 -0.8976 -0.2591
10193TIP3   OH252069   0.802   3.073  12.276 -0.1156 -0.1716 -0.1936
10193TIP3    H152070   0.855   3.112  12.207 -0.5004 -1.8067 -1.4821
10193TIP3    H252071   0.781   3.146  12.334  2.2633  0.8088 -0.4348
10194TIP3   OH252072   2.063   0.155   1.818 -0.4570 -0.1960  0.0664
10194TIP3    H152073   2.131   0.121   1.876  1.7975 -0.0150 -2.3103
10194TIP3    H252074   1.983   0.111   1.847  1.0363 -2.0656  1.6294
10195TIP3   OH252075   4.644   2.083  14.160 -0.1332 -0.2859 -0.0564
10195TIP3    H152076   4.721   2.101  14.105 -0.9736 -0.9680 -1.5330
10195TIP3    H252077   4.619   2.169  14.195  1.0611  0.0014  0.1316
10196TIP3   OH252078   2.091   3.937   5.361  0.1911  0.5653 -1.0271
10196TIP3    H152079   2.152   3.917   5.291 -1.1042  1.5848 -2.5009
10196TIP3    H252080   2.075   4.031   5.354  0.5225  0.8279  1.0691
10197TIP3   OH252081   6.353   3.000  15.398 -0.5031 -0.4573  0.2059
10197TIP3    H152082   6.435   2.951  15.399  0.1621  0.5821 -0.8213
10197TIP3    H252083   6.367   3.072  15.459 -0.3606  0.1294 -0.4978
10198TIP3   OH252084   0.274   5.797  11.857  0.0998 -0.2194 -0.4832
10198TIP3    H152085   0.342   5.863  11.847 -0.1917  0.0437 -0.7797
10198TIP3    H252086   0.320   5.713  11.861  0.3617 -0.1755 -2.0975
10199TIP3   OH252087   3.239   3.636   3.960  0.1965  0.4353  0.0445
10199TIP3    H152088   3.187   3.662   3.884  0.0594 -0.4456 -0.1747
10199TIP3    H252089   3.174   3.611   4.026  0.2847  2.0736  0.8032
10200TIP3   OH252090   5.652   2.133  14.207 -0.9276 -0.3982  0.0916
10200TIP3    H152091   5.579   2.072  14.211 -1.0934 -0.2724 -0.7201
10200TIP3    H252092   5.623   2.209  14.257 -1.5113 -0.2002 -0.5303
10201TIP3   OH252093   6.068   2.736   0.880 -0.3024  0.3960 -0.5536
10201TIP3    H152094   5.988   2.786   0.868 -1.3778 -0.8423  1.0676
10201TIP3    H252095   6.123   2.790   0.936 -0.5284  0.7057 -0.6316
10202TIP3   OH252096   2.312   3.472  15.547  0.1703  0.7350 -0.3464
10202TIP3    H152097   2.232   3.420  15.546  0.8331 -0.3955  1.2005
10202TIP3    H252098   2.358   3.446  15.467 -0.5052  0.5504 -0.6782
10203TIP3   OH252099   5.062   6.767   5.117  0.3487  0.1875 -0.2749
10203TIP3    H152100   5.044   6.692   5.173 -0.4857 -0.3312 -1.2240
10203TIP3    H252101   5.055   6.733   5.028  2.8025  0.7083 -0.7567
10204TIP3   OH252102   4.362   6.046  11.712 -0.7156  0.0163  0.2418
10204TIP3    H152103   4.349   6.126  11.662  0.0418  0.4796  0.7754
10204TIP3    H252104   4.331   6.067  11.800 -2.2764 -0.8716 -0.0459
10205TIP3   OH252105   3.029   5.953   3.504  0.1283  0.0092 -0.0229
10205TIP3    H152106   3.062   6.021   3.446 -0.4833  0.9658  0.7197
10205TIP3    H252107   3.000   5.882   3.446  0.0021  0.7319 -0.8449
10206TIP3   OH252108   1.199   5.195   0.126  0.8498  0.2494  0.5370
10206TIP3    H152109   1.234   5.107   0.141  0.3826 -0.0530 -0.1260
10206TIP3    H252110   1.114   5.194   0.169  0.2821 -0.0477 -0.5574
10207TIP3   OH252111   0.899   4.934  12.237  0.4835 -0.6077  0.1474
10207TIP3    H152112   0.993   4.916  12.228  1.0934  2.0867 -0.0051
10207TIP3    H252113   0.872   4.963  12.150 -0.2153 -0.3415  0.4455
10208TIP3   OH252114   4.055   2.730   1.137  0.3232 -0.0863  0.5362
10208TIP3    H152115   4.036   2.819   1.106 -0.8521 -0.6864 -0.5563
10208TIP3    H252116   3.972   2.684   1.129  1.3922 -1.8765 -0.9570
10209TIP3   OH252117   2.553   5.532  12.945 -0.4550  0.1439  0.1885
10209TIP3    H152118   2.589   5.604  12.997 -0.2927  1.0901 -1.1932
10209TIP3    H252119   2.472   5.566  12.908  0.3337  0.1434 -1.6359
10210TIP3   OH252120   2.644   5.049   4.175  0.6802 -0.0330 -0.3553
10210TIP3    H152121   2.579   5.111   4.208 -1.1149 -2.6457  1.3474
10210TIP3    H252122   2.595   4.992   4.116  2.0148 -0.5748 -0.9777
10211TIP3   OH252123   1.455   3.170   2.271  0.2827 -0.0149 -0.4902
10211TIP3    H152124   1.466   3.113   2.347 -1.3159 -0.4473 -0.5368
10211TIP3    H252125   1.527   3.233   2.277  0.0042  0.1665  1.5783
10212TIP3   OH252126   3.457   4.227   3.544 -0.0459 -0.1460 -0.1126
10212TIP3    H152127   3.409   4.230   3.627  0.0551 -0.6767 -0.0302
10212TIP3    H252128   3.459   4.134   3.521 -1.7558  0.1373 -1.6832
10213TIP3   OH252129   0.236   1.206   5.172  0.4038  0.0425 -0.3385
10213TIP3    H152130   0.148   1.219   5.134  0.8242 -0.6213 -1.6211
10213TIP3    H252131   0.285   1.161   5.103  2.4507  2.3966 -0.5576
10214TIP3   OH252132   1.078   5.806   1.228 -0.2704  0.3009 -0.7964
10214TIP3    H152133   0.987   5.779   1.236  0.4434 -2.7355 -1.5458
10214TIP3    H252134   1.091   5.823   1.135 -0.3590  2.0696 -0.5126
10215TIP3   OH252135   3.650   2.101  16.314  0.3180 -0.2203 -0.0156
10215TIP3    H152136   3.618   2.182  16.354 -1.9136 -1.1392  0.1758
10215TIP3    H252137   3.668   2.126  16.223  0.4472  0.6661  0.2382
10216TIP3   OH252138   3.317   3.952  12.432  0.5256 -0.6543  0.0724
10216TIP3    H152139   3.404   3.992  12.441  0.4933 -0.8020  1.2220
10216TIP3    H252140   3.263   4.020  12.393  0.6651  0.1588  1.2494
10217TIP3   OH252141   4.474   2.160  11.947 -0.3057  0.7259 -0.3455
10217TIP3    H152142   4.494   2.070  11.974 -0.1248  0.6565 -0.7014
10217TIP3    H252143   4.411   2.150  11.876  0.4250  0.8333 -1.0257
10218TIP3   OH252144   0.700   1.341   5.589  0.4252  0.1332 -0.5311
10218TIP3    H152145   0.707   1.267   5.649 -0.5233 -0.3101 -0.9476
10218TIP3    H252146   0.695   1.418   5.647 -0.3686 -0.2773 -0.0282
10219TIP3   OH252147   6.629   6.217   3.688  0.4846 -0.0223  0.4592
10219TIP3    H152148   6.548   6.167   3.703  0.1710  0.9993  2.5179
10219TIP3    H252149   6.699   6.158   3.715  0.1913  0.2435  1.8319
10220TIP3   OH252150   6.107   1.825   0.306 -0.1440 -0.6729  0.8733
10220TIP3    H152151   6.123   1.920   0.302  2.3280 -1.0642 -0.5103
10220TIP3    H252152   6.191   1.786   0.283 -1.6513 -3.2063 -0.7052
10221TIP3   OH252153   0.260   6.751   0.246 -0.3496 -0.3589  0.2920
10221TIP3    H152154   0.179   6.793   0.217  0.0357 -0.0191 -0.3048
10221TIP3    H252155   0.328   6.790   0.192  0.0339 -1.7337 -0.2745
10222TIP3   OH252156   0.330   5.106  16.068 -0.5266 -0.5978  0.4420
10222TIP3    H152157   0.255   5.087  16.011 -1.5418 -1.4477  1.9677
10222TIP3    H252158   0.318   5.047  16.143  1.5430 -0.5650  0.8664
10223TIP3   OH252159   3.285   2.829  16.903 -0.0416 -0.6402 -0.0627
10223TIP3    H152160   3.195   2.858  16.916 -0.6789 -2.5033 -0.0666
10223TIP3    H252161   3.312   2.870  16.821 -0.6892  0.3424  0.1969
10224TIP3   OH252162   3.754   1.235   1.891 -0.2391 -0.7558 -0.3881
10224TIP3    H152163   3.711   1.154   1.920 -1.5894  0.5457  1.4947
10224TIP3    H252164   3.687   1.283   1.844  0.0117  0.0406  0.0485
10225TIP3   OH252165   6.581   1.655  14.299  0.2124  0.0793 -0.6468
10225TIP3    H152166   6.557   1.612  14.217  1.3362  1.1371 -1.5674
10225TIP3    H252167   6.625   1.587  14.350  0.1858 -0.3888 -1.2356
10226TIP3   OH252168   4.553   6.050  13.909  0.7469 -0.0019  0.1923
10226TIP3    H152169   4.633   6.099  13.889  1.0589  2.5459  5.7963
10226TIP3    H252170   4.584   5.972  13.954 -0.0066 -2.2836 -2.9335
10227TIP3   OH252171   1.174   3.244   1.128  0.3694  0.2072  0.5240
10227TIP3    H152172   1.177   3.171   1.066  0.1492  1.2395 -0.7475
10227TIP3    H252173   1.115   3.307   1.086 -2.0712 -0.1873  3.0475
10228TIP3   OH252174   2.043   4.254  12.342  0.2896 -0.4737  0.2800
10228TIP3    H152175   2.071   4.174  12.388  1.2528 -0.8062 -0.8312
10228TIP3    H252176   2.125   4.293  12.310 -0.2589  0.4340 -0.0397
10229TIP3   OH252177   5.690   1.043   0.594 -0.4547 -0.0494  0.4998
10229TIP3    H152178   5.670   1.127   0.553 -0.5889 -0.6803 -0.7897
10229TIP3    H252179   5.685   1.060   0.688 -0.0792  1.4725  0.2672
10230TIP3   OH252180   2.880   0.363  13.333  0.0839 -0.0086  0.0102
10230TIP3    H152181   2.933   0.349  13.411 -1.1849  0.2729  0.9548
10230TIP3    H252182   2.800   0.405  13.365 -0.0280  1.1066 -1.5667
10231TIP3   OH252183   5.083   0.597  11.037  0.0002 -0.1830 -0.6298
10231TIP3    H152184   4.997   0.601  11.079 -0.2550 -0.5375 -1.1086
10231TIP3    H252185   5.077   0.521  10.979  0.7565 -0.4223 -0.3961
10232TIP3   OH252186   4.133   5.827   0.444  0.0162  0.1079  0.1602
10232TIP3    H152187   4.087   5.850   0.363 -0.6773  0.3022  0.6031
10232TIP3    H252188   4.065   5.829   0.512  0.5774 -0.1132  0.7389
10233TIP3   OH252189   2.015   4.132   4.823  0.3528  0.7277  0.9000
10233TIP3    H152190   1.943   4.111   4.763  0.6931  0.7901  0.4670
10233TIP3    H252191   2.057   4.208   4.785  0.6437  0.7019  1.1641
10234TIP3   OH252192   0.273   3.706  15.015 -0.1692  0.1121  0.0971
10234TIP3    H152193   0.244   3.797  15.009  0.8776  0.4874  0.4715
10234TIP3    H252194   0.196   3.658  15.046 -1.1591  0.6152 -1.4617
10235TIP3   OH252195   2.116   6.086  11.273 -0.0662 -0.4061  0.6462
10235TIP3    H152196   2.117   6.028  11.197  0.5148  1.0155 -0.4832
10235TIP3    H252197   2.208   6.108  11.287 -0.1683 -0.6006  1.7607
10236TIP3   OH252198   1.601   3.785   5.229  0.1104  0.6727  0.2186
10236TIP3    H152199   1.507   3.766   5.231  0.0536  0.2790 -2.1509
10236TIP3    H252200   1.608   3.859   5.168  1.4333 -0.6063 -1.2833
10237TIP3   OH252201   0.741   4.005  10.813  0.4819 -0.0244  0.6332
10237TIP3    H152202   0.673   4.022  10.748 -1.0770 -2.1359  1.5744
10237TIP3    H252203   0.818   4.051  10.780 -0.6610  0.2737 -1.8770
10238TIP3   OH252204   3.047   2.188   6.075 -0.8710 -0.1977  0.4672
10238TIP3    H152205   3.114   2.139   6.121 -0.0984 -0.4238 -0.8363
10238TIP3    H252206   2.979   2.124   6.055 -1.0995 -0.1474  1.0640
10239TIP3   OH252207   0.315   2.176   1.979 -0.0225 -0.5915  0.6533
10239TIP3    H152208   0.223   2.195   1.997 -0.0461 -1.3532  1.4017
10239TIP3    H252209   0.363   2.246   2.024 -0.2650  1.2203 -1.7093
10240TIP3   OH252210   6.823   0.620   0.403 -0.1566 -0.3920  0.0003
10240TIP3    H152211   6.849   0.676   0.329 -3.2171  0.7120 -0.3842
10240TIP3    H252212   6.773   0.549   0.363  0.5799 -1.3929  0.8145
10241TIP3   OH252213   4.399   0.575  11.599  0.0577  0.3297  0.2453
10241TIP3    H152214   4.316   0.589  11.554  0.6953  0.2303 -1.0082
10241TIP3    H252215   4.464   0.613  11.541  0.9743 -0.3981  0.7710
10242TIP3   OH252216   3.897   2.241  12.277  0.1468 -0.5267 -0.6113
10242TIP3    H152217   3.953   2.267  12.350 -0.6468  0.8846 -0.4588
10242TIP3    H252218   3.957   2.207  12.211  1.0766  0.0241 -0.0643
10243TIP3   OH252219   1.271   0.705   5.194 -0.7488  0.5095 -0.2280
10243TIP3    H152220   1.277   0.713   5.289  2.5208  0.9713 -0.3314
10243TIP3    H252221   1.248   0.793   5.164 -1.4428  0.4487  0.1200
10244TIP3   OH252222   5.209   2.553   1.202 -0.4100  0.4251 -0.7590
10244TIP3    H152223   5.197   2.519   1.291 -1.9890  2.3596 -0.1472
10244TIP3    H252224   5.140   2.510   1.151  0.9349 -1.2302 -1.3012
10245TIP3   OH252225   1.327   0.790  10.423  0.1580  0.0407  0.1024
10245TIP3    H152226   1.341   0.832  10.339 -0.4707 -0.4070 -0.2323
10245TIP3    H252227   1.411   0.750  10.445  0.2350 -0.1123 -0.4697
10246TIP3   OH252228   2.785   6.763   0.788 -0.1674  0.1636  0.3879
10246TIP3    H152229   2.718   6.789   0.851 -1.6764  0.0597 -1.0909
10246TIP3    H252230   2.864   6.750   0.840 -1.3463  0.0697  2.2371
10247TIP3   OH252231   0.248   2.666  11.779  0.9019 -0.0713 -0.0969
10247TIP3    H152232   0.281   2.750  11.810 -3.0476  1.5573  0.2487
10247TIP3    H252233   0.203   2.686  11.697  1.0657 -2.1707 -0.7800
10248TIP3   OH252234   4.947   3.038  12.651  0.8204  0.1275 -0.2883
10248TIP3    H152235   4.960   3.023  12.557  1.3399 -1.9188  0.0603
10248TIP3    H252236   5.035   3.060  12.684  1.1354 -1.5540  0.0769
10249TIP3   OH252237   1.076   3.120   4.001  0.2101  0.7875 -0.1154
10249TIP3    H152238   1.132   3.129   3.923  0.1226 -0.2145 -0.3040
10249TIP3    H252239   1.095   3.033   4.034  1.6777  1.8855  2.1365
10250TIP3   OH252240   4.978   3.026  15.568  0.4483 -0.1746  0.3994
10250TIP3    H152241   5.070   3.047  15.585  0.7737 -1.0682 -0.1730
10250TIP3    H252242   4.950   3.092  15.504  0.5693  0.3387  0.8685
10251TIP3   OH252243   4.688   2.366  16.109  0.3345  0.0471  0.4277
10251TIP3    H152244   4.697   2.435  16.044 -0.5081  0.8677  1.1563
10251TIP3    H252245   4.674   2.286  16.058  4.3458 -0.2295 -0.5809
10252TIP3   OH252246   0.200   5.377   1.470 -0.1886 -0.2585  0.3991
10252TIP3    H152247   0.210   5.432   1.547  0.3244 -1.2345  1.0552
10252TIP3    H252248   0.127   5.318   1.492  0.3016 -0.8917  0.3650
10253TIP3   OH252249   0.825   4.534   0.390  0.2522  0.4649 -0.7128
10253TIP3    H152250   0.915   4.562   0.376  0.2279  0.8947 -0.0460
10253TIP3    H252251   0.802   4.484   0.312  1.4649 -0.6688 -0.3829
10254TIP3   OH252252   4.133   0.968   3.466 -0.1074 -0.1141 -0.2794
10254TIP3    H152253   4.042   0.979   3.493 -0.6544 -0.5059 -1.8763
10254TIP3    H252254   4.184   0.981   3.546 -1.5922 -0.3648  0.7351
10255TIP3   OH252255   1.035   1.773  13.313 -0.3490  0.4996  0.6437
10255TIP3    H152256   1.117   1.758  13.360 -1.3068  0.3152  2.3468
10255TIP3    H252257   1.040   1.717  13.236  0.8880  0.0750  1.0130
10256TIP3   OH252258   4.316   4.503   1.141 -0.5898  0.5506 -0.2647
10256TIP3    H152259   4.402   4.523   1.104  0.9958 -0.6357  2.4210
10256TIP3    H252260   4.261   4.577   1.116  1.6489  2.1549 -0.7666
10257TIP3   OH252261   2.569   1.106   2.782  0.3914  0.0294  0.0398
10257TIP3    H152262   2.571   1.034   2.719  1.8675  0.3759 -0.3471
10257TIP3    H252263   2.660   1.121   2.805  0.1116  1.6682  0.2422
10258TIP3   OH252264   4.748   3.670   3.576  0.1981 -0.1512 -0.5547
10258TIP3    H152265   4.776   3.757   3.549  0.5257  0.1587  0.7101
10258TIP3    H252266   4.667   3.654   3.528  0.2889  0.7260 -1.0149
10259TIP3   OH252267   4.365   2.821  15.748 -0.0301  0.1367  0.0661
10259TIP3    H152268   4.308   2.756  15.790 -0.5036  1.0108  0.8358
10259TIP3    H252269   4.398   2.873  15.821  0.6898  0.4826 -0.5031
10260TIP3   OH252270   3.658   4.232  14.642 -0.0033  0.0364 -0.7412
10260TIP3    H152271   3.636   4.323  14.624  0.8680  0.6139  0.8935
10260TIP3    H252272   3.745   4.221  14.603  0.6390  0.4346  0.5496
10261TIP3   OH252273   5.017   4.552  12.732 -0.4382  0.3299 -0.0657
10261TIP3    H152274   4.977   4.573  12.647 -0.7329 -0.0886 -0.0384
10261TIP3    H252275   4.951   4.497  12.775  0.0867 -0.1966  0.0671
10262TIP3   OH252276   0.268   5.601  13.951  0.4998  0.2034 -0.0040
10262TIP3    H152277   0.186   5.560  13.977 -0.4843  1.8826 -0.2930
10262TIP3    H252278   0.261   5.610  13.856  1.2082 -0.0257 -0.0799
10263TIP3   OH252279   6.504   0.297   5.598 -0.0707  0.2715 -0.2806
10263TIP3    H152280   6.554   0.217   5.581  1.8130  1.6851 -1.8262
10263TIP3    H252281   6.560   0.349   5.656 -0.3687  1.2499 -0.8370
10264TIP3   OH252282   3.234   4.592   0.707 -0.3716 -0.4044  0.3334
10264TIP3    H152283   3.275   4.516   0.664 -1.7535 -0.3965 -1.0600
10264TIP3    H252284   3.242   4.663   0.644 -1.5943 -0.1426  0.4451
10265TIP3   OH252285   5.886   1.277   0.031 -0.8372 -0.0411 -0.3627
10265TIP3    H152286   5.878   1.372   0.028 -1.9856 -0.1063  0.3657
10265TIP3    H252287   5.863   1.248  -0.057  1.0471  0.4228 -1.0733
10266TIP3   OH252288   0.347   4.416  13.883 -0.8267 -0.0199  0.0595
10266TIP3    H152289   0.434   4.431  13.847 -1.1516  2.0264  0.0255
10266TIP3    H252290   0.352   4.447  13.974 -1.6178  0.5561 -0.0800
10267TIP3   OH252291   2.238   1.000  15.349 -0.0701  0.0412  0.3084
10267TIP3    H152292   2.271   0.979  15.436 -0.3261 -2.2970 -0.0930
10267TIP3    H252293   2.298   1.067  15.317  1.5799 -0.8539  1.3354
10268TIP3   OH252294   6.676   0.780  15.443 -0.6903 -0.5217 -0.2288
10268TIP3    H152295   6.698   0.836  15.368 -0.0904 -0.3887  0.0453
10268TIP3    H252296   6.598   0.821  15.481 -0.1896  0.2004  0.0403
10269TIP3   OH252297   3.116   0.196   2.395 -0.0019 -0.7316 -0.5415
10269TIP3    H152298   3.128   0.131   2.326 -0.0224 -0.8071 -0.4752
10269TIP3    H252299   3.136   0.280   2.354 -2.7028 -0.4445 -1.4031
10270TIP3   OH252300   4.747   6.044   1.941 -0.0684  0.1744  0.3136
10270TIP3    H152301   4.842   6.062   1.944  0.2675 -1.1289 -1.3762
10270TIP3    H252302   4.729   6.001   2.024  1.4703 -2.2969 -0.5276
10271TIP3   OH252303   3.007   1.984   1.064 -0.1042  0.1212  0.3571
10271TIP3    H152304   3.040   2.031   0.988 -0.8180 -0.1136 -0.1102
10271TIP3    H252305   3.081   1.982   1.125 -0.0122  1.7098  0.3392
10272TIP3   OH252306   1.492   2.317  15.504 -0.1737 -0.5035  0.5900
10272TIP3    H152307   1.542   2.272  15.573  0.1866 -1.1228 -0.0576
10272TIP3    H252308   1.476   2.404  15.539 -0.5876 -1.0220  1.7431
10273TIP3   OH252309   3.887   1.317   0.977 -0.0735  0.4417  1.1053
10273TIP3    H152310   3.804   1.272   0.990 -0.2258  0.4681  0.2946
10273TIP3    H252311   3.886   1.389   1.039 -0.0775 -0.3242  2.0175
10274TIP3   OH252312   3.144   3.663   0.258  0.7669 -0.0910  0.7682
10274TIP3    H152313   3.204   3.733   0.286  1.0465  0.0033 -0.0230
10274TIP3    H252314   3.157   3.659   0.163 -2.3199  1.7047  0.1376
10275TIP3   OH252315   6.615   4.047   3.153 -0.4810 -0.3936  0.0669
10275TIP3    H152316   6.652   4.135   3.164 -2.9450  0.5945  1.2076
10275TIP3    H252317   6.676   3.990   3.200  0.0658  1.0405  1.1863
10276TIP3   OH252318   3.705   5.596   1.113 -0.0496  0.0657  0.4009
10276TIP3    H152319   3.693   5.536   1.186  0.1537 -0.2934  0.1430
10276TIP3    H252320   3.632   5.658   1.121 -0.1368 -0.0825  0.7951
10277TIP3   OH252321   1.969   3.810  16.011 -0.7134  0.2971 -0.4946
10277TIP3    H152322   2.048   3.834  16.059 -0.4757  1.7885 -1.5636
10277TIP3    H252323   1.998   3.801  15.920 -1.7621  0.9232 -0.9141
10278TIP3   OH252324   5.713   3.758  14.685  0.5594  0.0678 -0.0290
10278TIP3    H152325   5.678   3.801  14.607  3.3875  1.0923 -0.8564
10278TIP3    H252326   5.659   3.679  14.695  0.0992 -0.1117 -3.0340
10279TIP3   OH252327   1.833   1.531   3.633 -0.6154  0.6240  0.5171
10279TIP3    H152328   1.813   1.524   3.539 -1.4815  2.3092  0.5356
10279TIP3    H252329   1.770   1.472   3.675  0.6957 -1.2487  0.0073
10280TIP3   OH252330   5.227   5.847  14.252  0.0630 -0.5617  0.0603
10280TIP3    H152331   5.252   5.883  14.337 -1.1937  1.8098 -0.4961
10280TIP3    H252332   5.310   5.825  14.210  1.0223  2.2488  0.2830
10281TIP3   OH252333   5.800   0.845  14.433  0.0483  0.0027  0.3705
10281TIP3    H152334   5.782   0.774  14.495 -1.4979  0.5304  0.5670
10281TIP3    H252335   5.809   0.923  14.488  1.1771  0.0749  0.1105
10282TIP3   OH252336   4.816   5.751   1.842  0.8468 -0.9367 -0.2780
10282TIP3    H152337   4.781   5.744   1.753  1.7486  0.2567 -0.7533
10282TIP3    H252338   4.768   5.825   1.880  0.1745 -1.6981  0.3866
10283TIP3   OH252339   6.368   1.647   4.366  0.0799 -0.1228 -0.3288
10283TIP3    H152340   6.463   1.648   4.375 -0.0757  1.7848  1.7964
10283TIP3    H252341   6.345   1.734   4.335 -1.0605 -0.1253  0.4446
10284TIP3   OH252342   0.425   5.398   0.557  0.2998 -0.2955  0.2165
10284TIP3    H152343   0.453   5.431   0.642  1.0351 -1.0447  0.2759
10284TIP3    H252344   0.491   5.430   0.496 -0.7014  0.9811 -0.2277
10285TIP3   OH252345   3.059   3.793   1.962  0.3693 -0.0711  0.2637
10285TIP3    H152346   3.089   3.752   2.043  1.1607  0.9986  0.5380
10285TIP3    H252347   3.001   3.863   1.991 -0.7353 -0.7858 -0.1843
10286TIP3   OH252348   0.763   0.490   1.183 -0.1932 -0.5830  0.1323
10286TIP3    H152349   0.825   0.441   1.130  0.0470  1.4731 -1.6283
10286TIP3    H252350   0.796   0.483   1.272  2.7610  0.6005 -0.7571
10287TIP3   OH252351   6.473   4.730   5.744  0.7660  0.0841 -0.0196
10287TIP3    H152352   6.471   4.666   5.673  0.8985  0.1325 -0.0671
10287TIP3    H252353   6.381   4.745   5.765  0.7312 -0.0698 -0.0556
10288TIP3   OH252354   2.799   6.050  12.228  0.3972  0.7087 -1.2197
10288TIP3    H152355   2.739   6.018  12.295  0.4391  0.5547 -1.2562
10288TIP3    H252356   2.766   6.138  12.206 -0.9288 -0.0720 -2.5658
10289TIP3   OH252357   4.998   6.685  16.543  0.2505  1.0726 -0.0208
10289TIP3    H152358   4.925   6.660  16.487 -0.1457  1.0506  0.5022
10289TIP3    H252359   5.025   6.603  16.585 -1.0995  1.4924  1.7572
10290TIP3   OH252360   1.621   1.375  13.056 -0.7474  0.0345  0.0372
10290TIP3    H152361   1.693   1.330  13.012  2.3362  2.9219  1.6976
10290TIP3    H252362   1.631   1.352  13.149  0.0816  2.7852  0.7321
10291TIP3   OH252363   1.989   2.672  15.421 -0.1054  0.1110  0.6841
10291TIP3    H152364   1.923   2.655  15.488  0.3588  0.4988  1.2551
10291TIP3    H252365   2.042   2.744  15.457 -1.2126  1.8935 -1.0729
10292TIP3   OH252366   2.906   1.662  15.280 -0.6013 -0.2950 -0.0304
10292TIP3    H152367   2.859   1.666  15.196  0.8334 -0.8084 -0.9106
10292TIP3    H252368   2.997   1.679  15.256 -0.0445 -1.2182  1.3155
10293TIP3   OH252369   4.721   5.793  13.688  0.3394  0.1502 -0.3721
10293TIP3    H152370   4.693   5.716  13.738  0.0935  2.0359  2.6455
10293TIP3    H252371   4.816   5.786  13.685  0.4396  0.4296  1.2489
10294TIP3   OH252372   5.645   6.028   5.679 -0.0706  0.4644  0.0593
10294TIP3    H152373   5.637   6.108   5.627  0.5984  0.6004  0.1532
10294TIP3    H252374   5.660   5.959   5.614  0.5563  0.6033  0.0418
10295TIP3   OH252375   2.498   4.357   4.345  0.4692 -0.3136 -0.4456
10295TIP3    H152376   2.475   4.439   4.302  0.1116 -0.6463 -0.9001
10295TIP3    H252377   2.561   4.316   4.286  0.2539 -0.6045 -0.4726
10296TIP3   OH252378   6.743   0.712  11.966  0.2957  0.4078 -0.2631
10296TIP3    H152379   6.702   0.711  12.053  0.9188 -0.4097  0.0335
10296TIP3    H252380   6.831   0.745  11.982  0.2089  0.8518 -0.6861
10297TIP3   OH252381   3.690   2.449  11.598 -0.1176 -0.1459 -0.2359
10297TIP3    H152382   3.665   2.534  11.562 -0.6366 -1.0420 -2.1187
10297TIP3    H252383   3.628   2.387  11.560  2.6537 -1.9608 -2.2425
10298TIP3   OH252384   6.826   4.041   5.092 -0.1062 -0.2399  0.0049
10298TIP3    H152385   6.858   4.100   5.161 -0.6127 -1.7842  1.6194
10298TIP3    H252386   6.732   4.035   5.107 -0.2892 -0.2980 -1.0891
10299TIP3   OH252387   0.793   3.145   3.736  0.2949  0.4145 -0.1405
10299TIP3    H152388   0.849   3.219   3.713 -0.3931  0.9348 -0.2010
10299TIP3    H252389   0.795   3.142   3.831  2.0900 -0.9066 -0.1706
10300TIP3   OH252390   6.482   5.608   1.269  0.9212  0.2826 -0.5405
10300TIP3    H152391   6.468   5.690   1.315 -1.6692 -0.7829  0.7539
10300TIP3    H252392   6.569   5.617   1.230  1.2540  3.0853  0.6378
10301TIP3   OH252393   3.310   6.093   4.264  0.1510  0.6158  0.3581
10301TIP3    H152394   3.339   6.022   4.206  0.8848  1.8287 -0.8278
10301TIP3    H252395   3.391   6.134   4.294 -0.2303  2.4220 -0.9045
10302TIP3   OH252396   1.249   5.391  14.383  0.2887 -0.0825  0.2665
10302TIP3    H152397   1.320   5.454  14.389  0.7676 -0.7459  2.4788
10302TIP3    H252398   1.188   5.417  14.452 -1.8255  0.6243 -1.7354
10303TIP3   OH252399   1.764   0.725  16.577 -0.2341  0.0225 -0.2447
10303TIP3    H152400   1.691   0.774  16.538  0.1159  0.4482 -0.3770
10303TIP3    H252401   1.765   0.753  16.668  1.8734  2.6822 -0.9637
10304TIP3   OH252402   4.943   4.534   1.222 -0.0966 -1.1966 -0.7944
10304TIP3    H152403   4.851   4.557   1.232 -0.5798 -2.4466 -1.9794
10304TIP3    H252404   4.963   4.477   1.296  0.4660  1.0057  0.8544
10305TIP3   OH252405   1.393   1.396  12.900 -0.2924  0.0423 -0.1644
10305TIP3    H152406   1.466   1.419  12.957 -1.2895  0.1523  1.1121
10305TIP3    H252407   1.365   1.479  12.862 -0.9190  0.2911  0.8036
10306TIP3   OH252408   1.335   4.130   4.114  0.4988  0.0513 -0.3322
10306TIP3    H152409   1.295   4.217   4.107  0.1026  0.0039  0.9815
10306TIP3    H252410   1.284   4.075   4.056  1.1827  0.8268 -1.7077
10307TIP3   OH252411   3.157   0.864  12.753 -0.2262  0.3617 -0.1516
10307TIP3    H152412   3.154   0.891  12.661  2.0959  0.0865 -0.3713
10307TIP3    H252413   3.246   0.885  12.781 -0.5984 -0.4368  1.7689
10308TIP3   OH252414   0.534   2.881  10.784  0.4216  0.2345 -0.3789
10308TIP3    H152415   0.627   2.886  10.764  0.6240  1.2873  0.7062
10308TIP3    H252416   0.526   2.812  10.850  0.6583  1.1428  0.6231
10309TIP3   OH252417   1.951   6.114   2.395 -0.0120 -0.3221  0.0612
10309TIP3    H152418   1.920   6.150   2.479  0.2798 -3.5306  1.7155
10309TIP3    H252419   2.043   6.138   2.391 -0.3220  0.9187  0.0066
10310TIP3   OH252420   2.206   2.455  11.403  0.6699  0.2547  0.2069
10310TIP3    H152421   2.207   2.473  11.497 -0.0716  2.5000 -0.1628
10310TIP3    H252422   2.298   2.451  11.378  0.8768  1.4911  0.7275
10311TIP3   OH252423   5.807   2.607   2.239  0.6003 -0.0860 -0.0449
10311TIP3    H152424   5.768   2.684   2.280 -2.1520 -2.3710  2.0040
10311TIP3    H252425   5.874   2.579   2.301 -1.0539 -1.4394  1.2270
10312TIP3   OH252426   6.160   5.702   3.165 -0.3259 -0.6868 -0.1493
10312TIP3    H152427   6.168   5.797   3.177 -1.3398 -0.7164  0.8344
10312TIP3    H252428   6.247   5.675   3.134 -0.1013  0.5937 -0.6924
10313TIP3   OH252429   6.489   2.150  14.504 -0.1589  0.3319 -0.0211
10313TIP3    H152430   6.468   2.060  14.478  1.1437 -0.4447  1.4319
10313TIP3    H252431   6.429   2.204  14.453 -3.0072 -1.4932  1.1055
10314TIP3   OH252432   4.503   6.743  15.067 -0.3232  0.2487 -0.1306
10314TIP3    H152433   4.436   6.785  15.121  0.2016  0.3796  0.4395
10314TIP3    H252434   4.574   6.723  15.129  0.1476  0.0848 -0.7158
10315TIP3   OH252435   5.107   6.202  13.176 -0.4351 -0.0233 -0.2184
10315TIP3    H152436   5.019   6.235  13.197  0.1644  0.3206  1.9707
10315TIP3    H252437   5.104   6.110  13.202  0.9656  0.9030  3.9720
10316TIP3   OH252438   0.010   2.399   0.527 -0.5766 -0.4946  0.6231
10316TIP3    H152439  -0.034   2.484   0.531 -2.5813 -1.4550  0.6682
10316TIP3    H252440   0.103   2.419   0.534 -0.9101  1.7711 -0.4936
10317TIP3   OH252441   1.722   3.823   4.565  0.1743  0.1237  0.1320
10317TIP3    H152442   1.635   3.823   4.606  0.3018  1.4146  0.4304
10317TIP3    H252443   1.707   3.786   4.478 -0.3962 -1.0777  0.7263
10318TIP3   OH252444   4.543   2.349   4.705 -0.1623  0.5717 -0.2490
10318TIP3    H152445   4.635   2.372   4.716  0.1198 -0.2488 -0.8440
10318TIP3    H252446   4.544   2.269   4.653 -1.0967 -1.2082  2.2821
10319TIP3   OH252447   1.973   5.929   0.473  0.4410 -0.5076 -0.3641
10319TIP3    H152448   1.994   6.014   0.435  0.2983  0.0960  0.8460
10319TIP3    H252449   2.048   5.873   0.454  0.6565 -0.0253 -0.9235
10320TIP3   OH252450   0.372   0.751  12.910 -0.0062 -0.2975 -1.2082
10320TIP3    H152451   0.464   0.774  12.907 -0.3568  2.0088  1.5148
10320TIP3    H252452   0.368   0.673  12.965  0.2878 -0.1647 -0.9974
10321TIP3   OH252453   6.021   5.108  12.739 -0.4486  0.8456  0.1477
10321TIP3    H152454   6.073   5.152  12.807 -0.0308  0.7006 -0.0793
10321TIP3    H252455   6.045   5.153  12.658 -1.8562  1.8493  0.2451
10322TIP3   OH252456   5.259   5.115   6.176  0.6106  0.1458  0.3852
10322TIP3    H152457   5.310   5.089   6.253 -0.6718 -0.5249  1.0564
10322TIP3    H252458   5.281   5.050   6.110 -0.4262 -1.0327  1.1430
10323TIP3   OH252459   4.046   3.351  16.375  0.2098 -0.4015 -0.6832
10323TIP3    H152460   4.135   3.382  16.389 -0.4711  0.7816  1.3473
10323TIP3    H252461   4.009   3.411  16.309  0.3446  0.2500 -0.1676
10324TIP3   OH252462   0.966   4.060  13.295 -0.1255 -0.9971  0.0598
10324TIP3    H152463   0.875   4.064  13.325  0.0244 -1.5628  0.6060
10324TIP3    H252464   0.963   4.000  13.220 -0.7905  1.6870 -2.2405
10325TIP3   OH252465   3.321   0.031  11.488 -0.2264 -0.1970  0.5429
10325TIP3    H152466   3.403  -0.014  11.508  0.6121  0.2272 -1.6743
10325TIP3    H252467   3.287   0.057  11.574  2.6758  0.8559  1.4999
10326TIP3   OH252468   2.497   0.847  10.903 -0.1003  0.1927  0.3678
10326TIP3    H152469   2.468   0.913  10.840 -1.7245 -1.3181 -0.5604
10326TIP3    H252470   2.551   0.787  10.851 -1.2076 -0.9026  0.4660
10327TIP3   OH252471   1.335   3.100   3.401 -0.3878 -0.2375  1.0225
10327TIP3    H152472   1.395   3.026   3.404 -1.6429 -1.4648 -1.3203
10327TIP3    H252473   1.388   3.173   3.370 -0.1398 -1.4320 -1.5472
10328TIP3   OH252474   3.147   5.941   5.933  0.1623 -0.4559  0.3645
10328TIP3    H152475   3.208   5.993   5.985 -0.7423  0.6886  0.3163
10328TIP3    H252476   3.075   5.920   5.992 -0.4835  0.1580 -0.1847
10329TIP3   OH252477   2.328   1.226  16.705 -0.1958  0.0352 -0.5406
10329TIP3    H152478   2.255   1.280  16.673 -2.2380 -2.3405 -0.1898
10329TIP3    H252479   2.354   1.268  16.787 -0.7386  1.2889 -0.9793
10330TIP3   OH252480   2.150   6.242  14.835 -0.0622 -0.4507  0.1382
10330TIP3    H152481   2.190   6.165  14.875  1.4462  0.0821 -0.2891
10330TIP3    H252482   2.199   6.316  14.870 -0.5916  0.2221 -0.5066
10331TIP3   OH252483   5.044   0.694   1.416  0.0477 -0.2061 -0.1008
10331TIP3    H152484   5.110   0.754   1.451  2.0649 -2.4797  0.2282
10331TIP3    H252485   5.093   0.633   1.361 -1.9957 -1.2438 -0.8873
10332TIP3   OH252486   1.775   0.841  13.063  0.0379  0.0979 -0.0374
10332TIP3    H152487   1.837   0.777  13.099  0.3536 -0.2349 -1.1370
10332TIP3    H252488   1.766   0.817  12.971 -0.3069  1.2658 -0.3305
10333TIP3   OH252489   2.098   6.802  16.193 -0.0723  0.1001  0.2324
10333TIP3    H152490   2.149   6.743  16.137 -1.3037  1.0655 -2.0676
10333TIP3    H252491   2.073   6.748  16.268  0.9449 -1.5498 -0.5424
10334TIP3   OH252492   2.775   3.711  15.346  0.2229 -0.3638  0.0768
10334TIP3    H152493   2.850   3.680  15.396  1.3480  1.0483 -0.6702
10334TIP3    H252494   2.735   3.777  15.402  0.1703 -0.3546  0.0285
10335TIP3   OH252495   6.274   5.833  13.155  0.0973  0.2143 -0.3197
10335TIP3    H152496   6.220   5.912  13.154  1.4383  1.1922  0.1541
10335TIP3    H252497   6.364   5.866  13.156  0.7689 -1.2014  3.5495
10336TIP3   OH252498   4.352   3.891  12.924  0.0294  0.0084 -0.0706
10336TIP3    H152499   4.276   3.849  12.882  1.6697 -1.8442 -1.3578
10336TIP3    H252500   4.384   3.953  12.859  0.1094  0.2030  0.1538
10337TIP3   OH252501   6.661   5.191   1.306  0.3222  0.4302  0.2326
10337TIP3    H152502   6.661   5.133   1.382  0.1078  1.5643  1.1241
10337TIP3    H252503   6.709   5.269   1.335 -0.6540  1.3164 -0.4367
10338TIP3   OH252504   3.083   1.982  12.771  0.8664 -0.3855  0.3209
10338TIP3    H152505   3.126   2.037  12.836  1.7569  0.2477 -0.7814
10338TIP3    H252506   3.117   1.894  12.788 -0.4100 -0.6358  1.9551
10339TIP3   OH252507   5.738   2.215   4.652  0.6373 -0.1349  0.0478
10339TIP3    H152508   5.827   2.190   4.626  0.5060  0.2739 -0.8403
10339TIP3    H252509   5.694   2.133   4.672  1.6012 -0.2736  1.8465
10340TIP3   OH252510   4.840   2.044  11.123 -0.7466 -0.2315 -0.2425
10340TIP3    H152511   4.861   1.961  11.166 -3.1694 -0.0401  1.5374
10340TIP3    H252512   4.913   2.102  11.146 -1.9575 -0.0732  4.0619
10341TIP3   OH252513   3.425   3.445   2.680 -0.2136  0.3436  0.1098
10341TIP3    H152514   3.347   3.460   2.734 -1.9928 -0.8050 -1.9508
10341TIP3    H252515   3.438   3.350   2.682  0.8002  0.4654 -0.0494
10342TIP3   OH252516   4.323   1.966   5.277 -0.2050 -0.5888  0.1350
10342TIP3    H152517   4.380   2.031   5.319 -1.2952  0.3213  0.2394
10342TIP3    H252518   4.384   1.907   5.231  0.9835 -1.0789  2.2054
10343TIP3   OH252519   5.542   4.385   3.640 -0.3738  0.2380  0.2827
10343TIP3    H152520   5.520   4.324   3.710  0.4165  1.5657  1.7634
10343TIP3    H252521   5.620   4.347   3.599  0.5469  0.5780  1.6619
10344TIP3   OH252522   1.742   4.144   2.804  0.4453  0.1631  0.3092
10344TIP3    H152523   1.796   4.067   2.783 -0.8359 -0.8921  0.7122
10344TIP3    H252524   1.672   4.142   2.738 -1.0311 -0.5339  1.8148
10345TIP3   OH252525   1.973   1.432   4.902  0.2156  0.2180 -0.4152
10345TIP3    H152526   1.951   1.475   4.819 -1.3640 -0.0115 -0.1537
10345TIP3    H252527   2.034   1.492   4.944 -0.2357  1.1349 -1.0257
10346TIP3   OH252528   2.995   5.831   0.859  0.2061 -0.0695 -0.0658
10346TIP3    H152529   2.982   5.796   0.947 -0.7680 -0.5724 -0.4041
10346TIP3    H252530   3.057   5.771   0.818 -0.2568 -0.5070 -0.1232
10347TIP3   OH252531   5.028   5.194   4.331  0.6522  0.0266  0.0038
10347TIP3    H152532   5.047   5.212   4.423  0.6405 -1.3401  0.2843
10347TIP3    H252533   4.951   5.247   4.312  1.2927  1.1659  0.4584
10348TIP3   OH252534   6.514   5.319   4.218 -0.4222 -0.3977 -0.1259
10348TIP3    H152535   6.420   5.304   4.210 -0.4289 -0.7380  0.4966
10348TIP3    H252536   6.555   5.243   4.178 -0.4440 -1.4314  1.7102
10349TIP3   OH252537   1.011   1.236   2.730 -0.0920 -0.8088 -0.3887
10349TIP3    H152538   1.096   1.200   2.755  0.3259 -0.1001 -0.7725
10349TIP3    H252539   1.005   1.220   2.636  0.5156  0.9282 -0.7568
10350TIP3   OH252540   3.246   3.450   4.857  0.6743  0.1647  0.3701
10350TIP3    H152541   3.309   3.465   4.786 -1.0660 -0.1982 -1.3520
10350TIP3    H252542   3.249   3.356   4.873 -0.3926 -0.0917 -0.7447
10351TIP3   OH252543   0.971   3.902  13.064 -0.0132  0.5505 -0.0292
10351TIP3    H152544   0.979   3.809  13.083 -0.8136  0.9554  2.6762
10351TIP3    H252545   0.919   3.905  12.983  0.5875 -1.3247 -0.5329
10352TIP3   OH252546   5.908   0.209  16.698  0.3425 -0.7590  0.6074
10352TIP3    H152547   6.001   0.209  16.717  0.6848 -0.2007 -0.9523
10352TIP3    H252548   5.898   0.272  16.626 -0.7588 -3.0854 -1.4019
10353TIP3   OH252549   6.538   5.267  12.543  0.5275  0.2653  0.3996
10353TIP3    H152550   6.534   5.262  12.448  0.3085  2.2079  0.2588
10353TIP3    H252551   6.624   5.307  12.561  1.6112 -2.1975  1.1915
10354TIP3   OH252552   3.175   5.109  13.338 -0.2567 -0.4568 -0.4142
10354TIP3    H152553   3.162   5.201  13.361 -1.6793 -0.1902 -2.0814
10354TIP3    H252554   3.217   5.071  13.414  1.9942  1.9426 -0.3171
10355TIP3   OH252555   1.540   5.420   5.461  0.3271 -0.2961  0.1095
10355TIP3    H152556   1.476   5.349   5.464 -0.2648  0.2426  0.4432
10355TIP3    H252557   1.547   5.450   5.551  2.0472 -1.2074  0.3136
10356TIP3   OH252558   1.095   1.832   3.038  0.6125  0.0345 -0.3245
10356TIP3    H152559   1.180   1.815   2.997 -0.1344  0.7694 -2.2761
10356TIP3    H252560   1.035   1.772   2.994 -0.0206 -0.0049  0.5650
10357TIP3   OH252561   6.226   4.926  11.292  0.1115 -0.0997  0.2483
10357TIP3    H152562   6.151   4.976  11.261  0.1525  2.9425  4.2580
10357TIP3    H252563   6.192   4.875  11.365  1.6844  0.6965  1.6022
10358TIP3   OH252564   2.932   1.762   1.423 -0.0935 -0.2115 -0.0762
10358TIP3    H152565   2.921   1.760   1.328 -0.8504 -0.0888 -0.0011
10358TIP3    H252566   2.918   1.672   1.451 -1.4215  0.0085  0.0578
10359TIP3   OH252567   6.374   3.169  11.532 -0.1393 -0.1190  0.3274
10359TIP3    H152568   6.374   3.237  11.464  1.8504 -0.3816 -0.0175
10359TIP3    H252569   6.467   3.149  11.544 -0.4901 -0.5896  2.6436
10360TIP3   OH252570   6.708   0.153  14.005 -0.7951  1.0264  0.1365
10360TIP3    H152571   6.759   0.118  13.931 -1.6642 -0.1508  0.0638
10360TIP3    H252572   6.641   0.086  14.021 -1.5028  1.9394  1.0714
10361TIP3   OH252573   6.255   3.716  16.109 -0.0878  0.3894 -0.6751
10361TIP3    H152574   6.239   3.755  16.194  0.6957 -2.5811  0.9809
10361TIP3    H252575   6.309   3.639  16.127 -0.6107 -0.8725 -3.7456
10362TIP3   OH252576   1.168   5.494   5.425 -0.2894 -0.4982  0.9935
10362TIP3    H152577   1.168   5.494   5.329  1.2829 -2.0141  0.9473
10362TIP3    H252578   1.261   5.497   5.448 -0.5666 -2.1307  2.4388
10363TIP3   OH252579   5.928   1.919   5.429  0.3626 -0.2283 -0.1633
10363TIP3    H152580   5.835   1.899   5.440  0.4492 -0.1505  0.8162
10363TIP3    H252581   5.969   1.834   5.410  0.3555 -0.6090  1.3739
10364TIP3   OH252582   0.186   2.583  12.385 -0.2589  0.4071  0.0675
10364TIP3    H152583   0.112   2.547  12.336 -1.8947  0.8872  2.0201
10364TIP3    H252584   0.208   2.515  12.449  2.4702 -0.6151 -1.7515
10365TIP3   OH252585   6.815   4.285   4.332  0.1284  0.1331  0.0025
10365TIP3    H152586   6.759   4.215   4.298  0.7281  0.2537 -1.2546
10365TIP3    H252587   6.853   4.248   4.412 -0.9623 -0.2981  0.3496
10366TIP3   OH252588   2.997   3.939  12.563 -0.6653 -0.0094 -0.3330
10366TIP3    H152589   2.980   3.879  12.491 -0.6502 -0.0555 -0.2977
10366TIP3    H252590   2.943   3.907  12.635 -0.1744 -0.3528 -0.1158
10367TIP3   OH252591   1.180   5.636   4.160  0.1590 -0.0701  0.2366
10367TIP3    H152592   1.145   5.712   4.208 -2.1428  0.4358 -1.9688
10367TIP3    H252593   1.102   5.591   4.127  1.5377 -1.3000 -1.5797
10368TIP3   OH252594   3.080   0.417   4.583 -0.1251 -0.3744 -0.2836
10368TIP3    H152595   3.101   0.359   4.509  0.0880  1.1867 -1.4982
10368TIP3    H252596   3.012   0.475   4.548 -0.6286 -0.1420  1.0381
10369TIP3   OH252597   1.843   5.461  12.897 -0.7338  0.2882 -0.2565
10369TIP3    H152598   1.825   5.495  12.985  0.2307 -0.8513  0.4087
10369TIP3    H252599   1.827   5.367  12.904  0.1927  0.0580 -1.0538
10370TIP3   OH252600   2.275   0.705   0.799 -0.5359  0.0884  0.3300
10370TIP3    H152601   2.249   0.629   0.851 -0.9377  0.6991  1.0393
10370TIP3    H252602   2.369   0.693   0.783 -0.4968 -0.3098  0.8484
10371TIP3   OH252603   1.512   1.038  13.451 -0.0907 -0.4913 -0.1921
10371TIP3    H152604   1.596   1.025  13.496 -0.5218  0.2984  0.8825
10371TIP3    H252605   1.536   1.072  13.365  0.6841  0.3009  0.3117
10372TIP3   OH252606   0.512   1.361  13.040 -0.4543 -0.4425 -0.2892
10372TIP3    H152607   0.601   1.354  13.005 -0.1958 -0.6355  0.4051
10372TIP3    H252608   0.489   1.453  13.028 -0.0545 -0.3294 -0.2017
10373TIP3   OH252609   3.899   2.268   0.974  0.2756  0.5168 -0.0828
10373TIP3    H152610   3.876   2.210   1.046  0.9329 -2.1688 -1.8666
10373TIP3    H252611   3.993   2.254   0.961  0.1308  0.7263 -1.5625
10374TIP3   OH252612   1.101   1.530   1.547 -0.3724  0.2791 -0.7127
10374TIP3    H152613   1.056   1.591   1.605 -0.7969 -0.9995  0.3691
10374TIP3    H252614   1.075   1.556   1.459  0.9996  2.8375 -0.4355
10375TIP3   OH252615   3.696   4.287  15.685  0.1215  0.1389  0.0313
10375TIP3    H152616   3.606   4.300  15.657 -0.6438  0.5018  2.3715
10375TIP3    H252617   3.700   4.197  15.716  0.4192  0.2612  0.3684
10376TIP3   OH252618   6.804   1.223   5.039  0.2142  0.1165  0.3823
10376TIP3    H152619   6.784   1.280   5.113 -0.9288  1.0785 -0.6377
10376TIP3    H252620   6.818   1.282   4.965  3.9188 -0.6370  0.2641
10377TIP3   OH252621   3.273   5.361   4.838  0.6865  0.3088 -0.3040
10377TIP3    H152622   3.338   5.403   4.894  2.7750 -1.6811 -1.0733
10377TIP3    H252623   3.275   5.269   4.864 -2.1775  0.2111 -0.1058
10378TIP3   OH252624   4.378   5.377   1.129  0.5594 -0.6973 -0.1990
10378TIP3    H152625   4.360   5.308   1.066 -0.6915 -0.6743  0.1103
10378TIP3    H252626   4.463   5.354   1.166 -0.3484 -2.7815  0.7861
10379TIP3   OH252627   6.278   5.421   2.646 -0.3157  0.0406  0.0628
10379TIP3    H152628   6.184   5.438   2.638 -0.1984  1.3728  1.2041
10379TIP3    H252629   6.318   5.479   2.581 -0.2419 -0.2832 -0.1877
10380TIP3   OH252630   2.238   5.395   4.269  0.3513 -0.1241 -0.0406
10380TIP3    H152631   2.246   5.459   4.198 -1.0759 -0.7582 -0.8287
10380TIP3    H252632   2.308   5.417   4.330  1.8157  0.2770 -1.7882
10381TIP3   OH252633   3.613   5.273   5.523  0.3712  0.1766 -0.3292
10381TIP3    H152634   3.557   5.328   5.578  0.6400 -0.1776  0.3109
10381TIP3    H252635   3.699   5.278   5.565  0.5898 -0.0662 -0.7470
10382TIP3   OH252636   6.613   3.749  11.576  0.2557 -0.4999 -0.7315
10382TIP3    H152637   6.548   3.785  11.515  1.4696  1.2363 -1.0758
10382TIP3    H252638   6.693   3.798  11.557  0.9279 -0.5997  1.6226
10383TIP3   OH252639   0.150   4.771  17.126 -0.2067 -0.2194 -0.4904
10383TIP3    H152640   0.136   4.724  17.208  0.7270  2.8406  1.6066
10383TIP3    H252641   0.063   4.798  17.099 -0.4396 -0.4119  0.0454
10384TIP3   OH252642   0.161   4.490   2.124 -0.5508 -0.1557 -0.2757
10384TIP3    H152643   0.189   4.561   2.181  0.2006 -0.2412 -0.5299
10384TIP3    H252644   0.176   4.523   2.035 -1.5490 -0.0879 -0.4360
10385TIP3   OH252645   5.573   3.771   0.003  0.6757 -0.1012 -0.3191
10385TIP3    H152646   5.568   3.676   0.005  1.7708 -0.1726 -0.0215
10385TIP3    H252647   5.504   3.798  -0.057  1.4937 -1.1860 -1.8082
10386TIP3   OH252648   2.637   0.401  11.749  0.2900 -0.5302 -0.0402
10386TIP3    H152649   2.590   0.319  11.760  0.3536 -0.5402  0.1645
10386TIP3    H252650   2.721   0.376  11.709  0.1430 -0.5171 -0.3638
10387TIP3   OH252651   5.318   3.712  15.617 -0.5291 -0.5099 -0.6599
10387TIP3    H152652   5.258   3.704  15.543  0.1465  0.0172 -1.2836
10387TIP3    H252653   5.392   3.763  15.583  0.2144 -1.0283  0.1247
10388TIP3   OH252654   0.420   2.124  13.700  0.2841  0.0347  0.4193
10388TIP3    H152655   0.328   2.098  13.709  0.0147  1.2249  1.5099
10388TIP3    H252656   0.469   2.051  13.737 -0.2029 -0.7080 -0.3665
10389TIP3   OH252657   5.041   4.663  13.898 -0.1782 -0.3175  0.3111
10389TIP3    H152658   5.066   4.599  13.831 -1.1708  0.2636 -0.6572
10389TIP3    H252659   5.062   4.748  13.860  2.0467 -0.0426  1.9776
10390TIP3   OH252660   5.520   0.540  14.447 -0.3425  0.3684 -0.0957
10390TIP3    H152661   5.545   0.580  14.531  0.5310  1.0181 -0.6373
10390TIP3    H252662   5.439   0.494  14.466 -2.6911  4.1366  0.1520
10391TIP3   OH252663   2.525   5.812   2.840  0.0463 -0.0771 -0.1920
10391TIP3    H152664   2.503   5.745   2.776  1.1077  0.9056 -1.6479
10391TIP3    H252665   2.453   5.875   2.834  0.5535  0.4422 -1.0763
10392TIP3   OH252666   3.721   1.935   2.543  0.3156 -0.2627  0.6212
10392TIP3    H152667   3.805   1.955   2.500 -0.4339  1.7897  0.0010
10392TIP3    H252668   3.728   1.978   2.629 -0.1858  0.1288  0.4685
10393TIP3   OH252669   0.866   4.271   0.474 -0.4122 -0.6415 -0.1089
10393TIP3    H152670   0.852   4.241   0.385  0.7145 -1.7516  0.0708
10393TIP3    H252671   0.870   4.367   0.467 -2.0594 -0.5960 -0.9652
10394TIP3   OH252672   1.386   1.296   0.326  0.0403 -0.2923 -1.1209
10394TIP3    H152673   1.480   1.293   0.310  0.1036  0.9529 -1.0876
10394TIP3    H252674   1.378   1.307   0.421 -0.1958 -1.9001 -0.9254
10395TIP3   OH252675   5.164   2.570   6.094  0.1586 -0.8715 -0.3975
10395TIP3    H152676   5.132   2.626   6.165 -1.4066 -1.1340 -0.8699
10395TIP3    H252677   5.218   2.504   6.138  0.6720  0.0231  0.3393
10396TIP3   OH252678   2.881   5.501   3.829  0.0254  0.0674  0.5069
10396TIP3    H152679   2.813   5.536   3.885 -0.8795  1.5409 -1.4181
10396TIP3    H252680   2.962   5.512   3.879 -0.7345  1.3501  1.4945
10397TIP3   OH252681   6.324   5.627  15.814 -0.4112  0.1526  0.4091
10397TIP3    H152682   6.324   5.572  15.893  0.5745  0.9688  1.0106
10397TIP3    H252683   6.318   5.716  15.848 -0.7148  0.4777 -0.4885
10398TIP3   OH252684   0.148   0.049  12.776 -0.0256 -0.0381  0.5564
10398TIP3    H152685   0.241   0.071  12.772 -0.2891  1.0049 -0.3051
10398TIP3    H252686   0.144  -0.029  12.832  1.3280  0.0582  0.8172
10399TIP3   OH252687   1.666   5.230  12.572 -0.5892 -0.8516  0.3929
10399TIP3    H152688   1.670   5.224  12.668  1.1727 -1.6864  0.3185
10399TIP3    H252689   1.636   5.143  12.544 -1.8679 -0.3664  0.1848
10400TIP3   OH252690   5.084   3.417   3.452 -0.3368 -0.0852  0.0569
10400TIP3    H152691   5.069   3.475   3.527 -0.7335 -0.5865  0.3730
10400TIP3    H252692   5.009   3.431   3.395 -0.1272  0.1592 -0.1604
10401TIP3   OH252693   2.585   5.950  15.868  0.1784 -0.1250 -0.3147
10401TIP3    H152694   2.522   5.879  15.852 -0.8068  0.2574  1.4528
10401TIP3    H252695   2.650   5.941  15.799  0.5210 -3.2347  0.2490
10402TIP3   OH252696   0.493   5.189  13.110 -0.5372 -0.9258 -0.6907
10402TIP3    H152697   0.586   5.209  13.124 -1.0623 -0.0335  2.4561
10402TIP3    H252698   0.486   5.094  13.125 -0.1122 -1.0229 -1.0985
10403TIP3   OH252699   4.056   2.718  16.082  0.0252 -0.3312  0.1117
10403TIP3    H152700   4.053   2.642  16.141  1.1382 -1.4758 -1.2375
10403TIP3    H252701   4.016   2.687  16.001 -0.3290  0.8299 -0.1812
10404TIP3   OH252702   5.902   3.310  13.201  0.2274  0.4006 -0.2164
10404TIP3    H152703   5.822   3.360  13.219  0.0343 -0.2859  0.9151
10404TIP3    H252704   5.889   3.275  13.113 -1.1953 -0.5745  0.3496
10405TIP3   OH252705   3.668   6.373  16.115 -0.2497  0.1749 -0.1112
10405TIP3    H152706   3.613   6.360  16.191 -0.6241  0.5159 -0.3202
10405TIP3    H252707   3.741   6.427  16.146 -1.3512  1.8717 -0.3934
10406TIP3   OH252708   2.209   5.833   2.513  0.3614 -0.2600  0.3006
10406TIP3    H152709   2.261   5.863   2.439  1.7533 -1.3978  0.7760
10406TIP3    H252710   2.140   5.899   2.522  2.3038  1.9198  0.2883
10407TIP3   OH252711   0.939   4.241   6.022  0.9472  0.3024  0.3953
10407TIP3    H152712   0.954   4.146   6.016  1.0428  0.2613  1.1903
10407TIP3    H252713   0.918   4.256   6.114  1.6726  1.1632  0.4298
10408TIP3   OH252714   5.332   2.707  14.169 -0.2895  0.2418  0.3927
10408TIP3    H152715   5.249   2.726  14.211  0.4827  1.6750  1.3684
10408TIP3    H252716   5.321   2.736  14.079 -0.6038  1.1934  0.7226
10409TIP3   OH252717   0.490   4.982  13.834 -0.2403  0.9664 -0.1789
10409TIP3    H152718   0.501   4.973  13.740 -0.2264  0.6916 -0.1503
10409TIP3    H252719   0.529   4.903  13.871 -2.7104 -0.2900 -0.0968
10410TIP3   OH252720   5.150   5.527  13.923  0.0308 -0.3919  0.2727
10410TIP3    H152721   5.147   5.581  14.002  1.9432  0.6033 -0.2832
10410TIP3    H252722   5.241   5.532  13.894 -0.3698 -1.6979 -1.3543
10411TIP3   OH252723   3.717   3.273   3.867 -0.3168  0.0870  0.1141
10411TIP3    H152724   3.794   3.242   3.819 -0.7610 -1.0183  0.0910
10411TIP3    H252725   3.726   3.368   3.868  1.3605 -0.0422  0.6147
10412TIP3   OH252726   3.871   6.233  14.253  0.4387  0.4455  0.0414
10412TIP3    H152727   3.836   6.307  14.301  1.1204 -0.2538  1.6700
10412TIP3    H252728   3.867   6.160  14.314 -2.0977 -1.4383 -2.0996
10413TIP3   OH252729   2.187   4.417  13.179 -0.3659 -0.2595 -0.1101
10413TIP3    H152730   2.094   4.402  13.192 -0.8438  1.9717 -0.5460
10413TIP3    H252731   2.228   4.331  13.193 -2.4494 -1.2551  0.1823
10414TIP3   OH252732   3.775   3.662  16.602  0.4038  0.3587  0.2477
10414TIP3    H152733   3.773   3.696  16.513 -1.6550  1.3056  0.5839
10414TIP3    H252734   3.763   3.568  16.593  0.6920  0.3888 -0.4868
10415TIP3   OH252735   2.074   4.923  16.119  0.4104  0.1510  0.5134
10415TIP3    H152736   2.083   4.863  16.044  2.0611 -0.1404  0.8979
10415TIP3    H252737   1.991   4.899  16.159  0.1271 -0.5822 -0.4556
10416TIP3   OH252738   5.518   1.628  13.579 -0.0004  0.1532  0.3271
10416TIP3    H152739   5.596   1.595  13.535 -1.2349 -1.0599 -1.0363
10416TIP3    H252740   5.536   1.614  13.672  1.8475  0.9606  0.1433
10417TIP3   OH252741   6.427   6.643  14.340  0.7894 -0.1243 -0.3318
10417TIP3    H152742   6.448   6.561  14.385 -0.8457 -1.2415 -1.4587
10417TIP3    H252743   6.443   6.623  14.247  1.6819  1.3002 -0.5123
10418TIP3   OH252744   5.252   4.953  12.004 -0.2635  0.4396  0.5239
10418TIP3    H152745   5.223   5.040  11.977  1.8474  1.6554  1.9447
10418TIP3    H252746   5.226   4.896  11.931  0.6423  2.6938 -1.7163
10419TIP3   OH252747   5.454   2.836  14.393 -0.4413 -0.3693 -0.1620
10419TIP3    H152748   5.394   2.764  14.377 -1.5958  0.5590 -0.1668
10419TIP3    H252749   5.411   2.912  14.354 -0.6321  0.8797  2.2879
10420TIP3   OH252750   0.494   0.268  11.720  0.4560  0.0510  0.8604
10420TIP3    H152751   0.543   0.191  11.693 -0.9298 -1.1399  1.5988
10420TIP3    H252752   0.410   0.261  11.674  0.0168  0.6857  1.5346
10421TIP3   OH252753   4.369   0.520  17.112  0.1275  0.5184 -0.1448
10421TIP3    H152754   4.430   0.490  17.179  0.3088  1.8430  0.3080
10421TIP3    H252755   4.418   0.584  17.061  0.2848 -1.0730 -2.1476
10422TIP3   OH252756   3.043   4.632  16.831  0.2794  0.4264 -0.1135
10422TIP3    H152757   3.081   4.553  16.793  0.2766  1.2395 -1.9205
10422TIP3    H252758   3.095   4.649  16.909 -0.4619 -1.9808  0.9954
10423TIP3   OH252759   5.460   2.989   2.790  0.0335  0.4515 -0.2139
10423TIP3    H152760   5.482   2.984   2.883  0.9102 -0.9289 -0.4496
10423TIP3    H252761   5.469   3.081   2.767 -0.1944  0.8056  1.0609
10424TIP3   OH252762   0.880   3.859  15.246 -0.1159  0.3875 -0.1672
10424TIP3    H152763   0.894   3.766  15.262  1.5436  0.7132  0.4948
10424TIP3    H252764   0.908   3.873  15.156  2.4171  0.7018  0.5910
10425TIP3   OH252765   6.671   0.809  16.341  0.0774  0.3026 -0.1589
10425TIP3    H152766   6.611   0.747  16.383 -0.0112 -0.4466 -1.3498
10425TIP3    H252767   6.710   0.857  16.414  0.9628 -1.8624  0.8993
10426TIP3   OH252768   0.879   5.987  12.656 -0.0136 -0.1359 -0.3827
10426TIP3    H152769   0.971   6.014  12.666  0.0734 -0.5077 -0.1264
10426TIP3    H252770   0.829   6.061  12.688  0.1313  0.8343 -2.2557
10427TIP3   OH252771   0.049   1.111  11.855  0.1757  0.0942 -0.1118
10427TIP3    H152772  -0.025   1.053  11.838  0.6585 -0.8428  0.8595
10427TIP3    H252773   0.064   1.104  11.950  0.4095  1.6183 -0.0020
10428TIP3   OH252774   5.603   4.882   2.111  0.1737 -0.1802 -0.1858
10428TIP3    H152775   5.538   4.922   2.052  0.6080  2.7526  1.1188
10428TIP3    H252776   5.552   4.853   2.186  0.1906  1.1211  0.3543
10429TIP3   OH252777   2.222   3.236   4.625  0.3264 -0.5669  0.1598
10429TIP3    H152778   2.226   3.230   4.721 -0.8683  1.4364  0.3849
10429TIP3    H252779   2.170   3.160   4.599 -1.4955  0.1767  1.3736
10430TIP3   OH252780   0.067   4.184   2.635 -0.0019 -0.0107 -0.2521
10430TIP3    H152781  -0.000   4.190   2.568  2.1791 -2.8481 -3.0401
10430TIP3    H252782   0.143   4.230   2.599  1.3537 -1.9191 -0.0176
10431TIP3   OH252783   3.269   4.519  13.354  0.0013 -0.0550 -0.0822
10431TIP3    H152784   3.182   4.508  13.316 -0.1977  1.4942 -0.1088
10431TIP3    H252785   3.327   4.469  13.297 -0.7504 -0.4212 -0.5346
10432TIP3   OH252786   0.621   5.088  16.206 -0.3776  0.3479  0.1502
10432TIP3    H152787   0.565   5.165  16.207 -0.6429  0.1619  1.6826
10432TIP3    H252788   0.703   5.118  16.245  0.1471  0.2856 -0.8745
10433TIP3   OH252789   5.145   1.122   3.280 -0.3301 -0.1573  0.1966
10433TIP3    H152790   5.239   1.107   3.283 -0.2094 -0.4539 -2.6156
10433TIP3    H252791   5.136   1.207   3.236 -1.3917 -0.7824 -0.8315
10434TIP3   OH252792   6.688   1.083   3.190  0.6923 -0.2811 -0.6564
10434TIP3    H152793   6.779   1.112   3.185  0.4897  0.6489  0.6062
10434TIP3    H252794   6.685   1.025   3.266  0.5211 -1.5280 -1.5802
10435TIP3   OH252795   4.974   2.765  16.365  0.3328  0.3316  0.7119
10435TIP3    H152796   4.994   2.714  16.286  0.0978 -0.3005  1.0578
10435TIP3    H252797   4.997   2.855  16.341 -2.8001  0.7809 -1.2751
10436TIP3   OH252798   2.993   2.117   4.883 -0.5675 -0.0884 -0.0278
10436TIP3    H152799   2.941   2.045   4.916 -0.3757 -0.0569  0.3480
10436TIP3    H252800   3.030   2.158   4.961 -0.9390  0.6171 -0.2172
10437TIP3   OH252801   3.273   2.413   2.894  0.0445 -0.1013 -0.0246
10437TIP3    H152802   3.312   2.415   2.807 -2.8287 -1.2549 -1.4712
10437TIP3    H252803   3.223   2.494   2.900 -1.7254 -1.1183 -0.5023
10438TIP3   OH252804   0.800   0.919   1.554  0.6486 -0.2287  0.5459
10438TIP3    H152805   0.803   0.941   1.461  2.8665  2.0433  1.0371
10438TIP3    H252806   0.868   0.852   1.565 -1.0384 -2.0871  0.2798
10439TIP3   OH252807   3.165   4.594  17.077  0.5240 -0.0640  0.6332
10439TIP3    H152808   3.105   4.535  17.122 -0.0167 -0.6469 -0.7797
10439TIP3    H252809   3.171   4.670  17.133 -1.3725 -0.0876  0.9364
10440TIP3   OH252810   0.363   3.709  14.422  0.5099  0.1011 -0.4053
10440TIP3    H152811   0.454   3.687  14.440  0.4518  0.5546  0.4568
10440TIP3    H252812   0.312   3.641  14.466  0.4046  0.4748  0.0556
10441TIP3   OH252813   0.261   1.759   6.050  0.6531 -0.5363  0.0012
10441TIP3    H152814   0.309   1.677   6.063 -0.2402 -1.3169 -1.3501
10441TIP3    H252815   0.176   1.744   6.091  0.7740  0.0253  0.4631
10442TIP3   OH252816   5.542   1.936   2.314 -0.0460 -0.2248 -0.0790
10442TIP3    H152817   5.626   1.959   2.354  0.4316  0.4796 -1.4217
10442TIP3    H252818   5.488   1.906   2.387  0.5827  1.5623  1.1905
10443TIP3   OH252819   1.772   1.541  11.695  0.1926 -0.3074  0.3998
10443TIP3    H152820   1.775   1.627  11.738  0.6557  1.0794 -2.1671
10443TIP3    H252821   1.862   1.511  11.696  0.5915  0.6794 -1.2208
10444TIP3   OH252822   2.546   5.875  15.587 -0.2581 -0.3203 -0.6236
10444TIP3    H152823   2.452   5.862  15.573 -0.7308  0.6701  1.2988
10444TIP3    H252824   2.556   5.970  15.590  0.5835 -0.4261  0.4641
10445TIP3   OH252825   2.479   0.574   6.156 -0.4428  0.1386 -0.3770
10445TIP3    H152826   2.389   0.554   6.183 -0.8054  1.7535 -0.2798
10445TIP3    H252827   2.497   0.512   6.085 -1.3635 -0.6881  0.0860
10446TIP3   OH252828   3.895   4.921  13.324  0.1868 -0.0489 -0.2868
10446TIP3    H152829   3.894   4.826  13.318 -2.2592 -0.0634 -0.7819
10446TIP3    H252830   3.854   4.951  13.243  0.6839  1.4107 -0.0265
10447TIP3   OH252831   3.453   3.483   0.049 -0.0599 -0.5662  0.5636
10447TIP3    H152832   3.472   3.395   0.016  1.1905  0.3520 -1.3882
10447TIP3    H252833   3.536   3.513   0.085  1.4590  1.9154 -4.1911
10448TIP3   OH252834   5.493   6.769   5.007 -0.1814  0.0399 -0.0256
10448TIP3    H152835   5.451   6.716   4.939 -1.5095  1.5373 -0.4386
10448TIP3    H252836   5.539   6.838   4.959  2.5289 -1.3091  0.4462
10449TIP3   OH252837   6.144   4.135   4.054 -0.0387  0.1125 -0.1782
10449TIP3    H152838   6.215   4.188   4.017  0.4712  0.7096  1.5345
10449TIP3    H252839   6.117   4.078   3.983 -0.1840  2.2265 -1.9363
10450TIP3   OH252840   0.884   2.849   1.130 -0.2799 -0.2487 -0.1880
10450TIP3    H152841   0.816   2.916   1.127  0.7141  0.8480  0.9682
10450TIP3    H252842   0.847   2.780   1.186 -0.7393 -0.0171 -0.2022
10451TIP3   OH252843   0.644   3.062  14.583  0.1931 -0.4781 -0.3893
10451TIP3    H152844   0.712   3.042  14.647  3.0531  1.3785 -2.6060
10451TIP3    H252845   0.565   3.020  14.619  2.3597 -2.5981  2.4419
10452TIP3   OH252846   3.839   3.296   1.840  0.2821 -0.6581  0.2510
10452TIP3    H152847   3.808   3.386   1.839  0.4294 -0.5839  1.3562
10452TIP3    H252848   3.899   3.292   1.915 -0.3465 -1.8829  0.7099
10453TIP3   OH252849   1.853   3.241   1.576  0.2987  0.2271 -0.5658
10453TIP3    H152850   1.879   3.158   1.615 -0.9199  0.7266  1.4809
10453TIP3    H252851   1.825   3.219   1.487 -0.3516 -1.6192  0.0638
10454TIP3   OH252852   6.319   4.203  12.724 -0.1474 -0.2536 -0.9374
10454TIP3    H152853   6.321   4.167  12.635 -0.0654  1.3449 -1.6224
10454TIP3    H252854   6.244   4.263  12.723 -1.7159 -2.0286  0.8641
10455TIP3   OH252855   0.172   3.933   2.636 -0.0565 -0.7687  0.1285
10455TIP3    H152856   0.250   3.915   2.688 -1.1478 -1.1703  1.7061
10455TIP3    H252857   0.149   4.023   2.658  2.0022  0.7812 -3.2106
10456TIP3   OH252858   0.327   4.720   1.412 -0.0797  0.1557  0.2015
10456TIP3    H152859   0.333   4.756   1.501 -0.4960 -0.2869  0.4066
10456TIP3    H252860   0.355   4.629   1.421  0.0521  0.1595 -0.1565
10457TIP3   OH252861   0.568   2.053   2.151 -0.6928 -0.6839 -0.1718
10457TIP3    H152862   0.601   2.043   2.061 -1.4311  0.0898 -0.5441
10457TIP3    H252863   0.477   2.081   2.139  0.1755  3.0616  0.7458
10458TIP3   OH252864   3.088   3.480  13.236 -0.4758 -0.3501  0.4480
10458TIP3    H152865   3.092   3.457  13.143 -0.3633 -1.1879  0.6526
10458TIP3    H252866   3.013   3.432  13.270 -0.7737  0.2916  0.7027
10459TIP3   OH252867   1.120   2.209  13.614 -0.0131  0.2152  0.3325
10459TIP3    H152868   1.102   2.129  13.664 -0.6229  1.4745  2.2092
10459TIP3    H252869   1.045   2.265  13.631  0.4773  1.2647 -0.8436
10460TIP3   OH252870   5.655   4.870   4.239  0.3329 -0.3779 -0.2268
10460TIP3    H152871   5.627   4.863   4.148 -0.4330 -1.8723  0.0823
10460TIP3    H252872   5.574   4.863   4.290  0.4760  2.5593  0.5800
10461TIP3   OH252873   2.607   5.893  16.630 -0.2014 -0.0891 -0.3595
10461TIP3    H152874   2.542   5.862  16.693 -0.5311  1.3418  0.0319
10461TIP3    H252875   2.561   5.958  16.578  0.0876 -1.1934 -2.0776
10462TIP3   OH252876   4.857   3.615   4.151 -0.1411 -0.0233  0.1419
10462TIP3    H152877   4.864   3.564   4.070 -0.6964 -1.8286  1.1833
10462TIP3    H252878   4.780   3.671   4.137  1.0570  1.3472 -1.4032
10463TIP3   OH252879   6.204   5.114   4.831  0.1413 -0.2441 -0.0699
10463TIP3    H152880   6.274   5.052   4.851 -0.4246 -1.0955 -0.6601
10463TIP3    H252881   6.178   5.092   4.742 -0.3877  0.5465 -0.1178
10464TIP3   OH252882   3.336   0.922   5.077  0.2784 -0.4122  0.0703
10464TIP3    H152883   3.353   1.006   5.121 -0.9057  0.3257 -0.7889
10464TIP3    H252884   3.245   0.902   5.099  0.4576 -1.3233  0.0099
10465TIP3   OH252885   4.609   5.381  12.459  0.3388  0.0864  0.4904
10465TIP3    H152886   4.561   5.341  12.531 -1.5087  0.3514 -0.5417
10465TIP3    H252887   4.627   5.470  12.490  0.9972 -0.2958  1.2433
10466TIP3   OH252888   3.094   5.077  13.050 -0.2297  0.0596 -0.2960
10466TIP3    H152889   3.162   5.092  12.985  0.0562  2.8717  0.5457
10466TIP3    H252890   3.140   5.080  13.134 -1.1805  0.5652  0.2187
10467TIP3   OH252891   1.270   2.171   0.785  0.0012  0.1887  0.2954
10467TIP3    H152892   1.237   2.252   0.746 -1.7864 -0.3971  0.5087
10467TIP3    H252893   1.318   2.128   0.714  0.6547  1.2401  0.0756
10468TIP3   OH252894   0.077   4.142   0.957  0.3680 -0.3705  0.3604
10468TIP3    H152895   0.002   4.130   0.898 -0.2070  0.5100  0.8852
10468TIP3    H252896   0.086   4.058   1.001 -0.7942 -0.2836  0.8115
10469TIP3   OH252897   2.289   2.328   1.976 -0.1377 -0.5395 -0.5339
10469TIP3    H152898   2.203   2.315   1.936 -0.2785 -0.5781 -0.2195
10469TIP3    H252899   2.342   2.368   1.907 -0.4752 -0.2934 -0.6502
10470TIP3   OH252900   2.388   1.086   4.403 -0.4371  0.1267 -0.9761
10470TIP3    H152901   2.336   1.013   4.437  0.1184  0.8985  1.8268
10470TIP3    H252902   2.466   1.045   4.365 -1.0386 -0.8117 -1.2298
10471TIP3   OH252903   6.626   1.161   1.565 -0.5180 -0.4267 -0.1093
10471TIP3    H152904   6.655   1.170   1.474 -0.2422 -1.3751 -0.1218
10471TIP3    H252905   6.662   1.237   1.610 -0.5315 -0.0309 -0.7596
10472TIP3   OH252906   3.129   0.109  15.879  0.5843 -0.5173  0.2622
10472TIP3    H152907   3.134   0.204  15.870 -0.9854 -0.4357  0.0007
10472TIP3    H252908   3.204   0.076  15.828 -0.0071  0.5068 -1.3487
10473TIP3   OH252909   0.935   1.358   4.178  0.1334 -0.2524  0.0144
10473TIP3    H152910   0.946   1.337   4.270  1.1995 -0.0477 -0.0504
10473TIP3    H252911   0.842   1.376   4.168 -0.2505 -1.7156  0.7381
10474TIP3   OH252912   1.910   3.411   5.605 -0.4879  0.1316  0.5759
10474TIP3    H152913   1.907   3.465   5.684 -0.3046  0.9859  0.0114
10474TIP3    H252914   1.818   3.399   5.582 -0.5284  0.2890  0.6501
10475TIP3   OH252915   6.304   1.900  14.111  0.5511  0.0439 -0.1799
10475TIP3    H152916   6.221   1.854  14.121 -0.2365  1.8497  3.4737
10475TIP3    H252917   6.281   1.979  14.061 -0.3073  1.0860  1.7406
10476TIP3   OH252918   3.779   1.490   5.001 -0.0745  0.0255  0.4433
10476TIP3    H152919   3.790   1.429   4.927 -0.2516  0.2847  0.2018
10476TIP3    H252920   3.753   1.434   5.074 -2.0295 -0.0040 -0.2072
10477TIP3   OH252921   0.823   0.827  17.153 -0.3993 -0.5208  0.2016
10477TIP3    H152922   0.755   0.889  17.179 -0.4423  0.0689 -1.1937
10477TIP3    H252923   0.776   0.749  17.125 -0.3973 -0.8220  1.0338
10478TIP3   OH252924   3.402   0.894  12.921 -0.1474 -0.4908 -0.3063
10478TIP3    H152925   3.416   0.974  12.972 -1.3352  0.7377 -1.7720
10478TIP3    H252926   3.323   0.855  12.957 -0.9036  0.2980 -1.0641
10479TIP3   OH252927   1.625   1.479   2.368 -0.6476 -0.2563 -0.2769
10479TIP3    H152928   1.599   1.555   2.421 -1.5010 -0.4273 -0.4327
10479TIP3    H252929   1.564   1.410   2.395 -0.6040 -0.5562 -0.9494
10480TIP3   OH252930   6.560   0.362   1.330  0.3301 -0.6748  0.1576
10480TIP3    H152931   6.557   0.458   1.334 -3.2110 -0.6713  2.1002
10480TIP3    H252932   6.603   0.343   1.247  1.5498  2.5686 -0.1135
10481TIP3   OH252933   4.876   4.612  16.822 -0.4417 -0.0664  0.3998
10481TIP3    H152934   4.915   4.544  16.877 -0.5002 -1.1729 -0.8507
10481TIP3    H252935   4.798   4.640  16.869 -1.6786 -2.5061 -0.0415
10482TIP3   OH252936   0.554   2.367   1.919  0.0561  0.3220 -0.5708
10482TIP3    H152937   0.641   2.358   1.881  0.5853  0.0398  0.6304
10482TIP3    H252938   0.495   2.374   1.845  1.0745  0.1992 -1.4118
10483TIP3   OH252939   6.228   2.350  11.235 -0.0424  0.6044  0.3009
10483TIP3    H152940   6.246   2.372  11.144 -1.0233 -0.9006 -0.3095
10483TIP3    H252941   6.274   2.417  11.286 -0.2136  2.0203 -1.3025
10484TIP3   OH252942   0.564   5.537  12.760  0.5233 -0.2149 -0.2021
10484TIP3    H152943   0.643   5.591  12.756 -1.0046  2.3450  1.4613
10484TIP3    H252944   0.570   5.493  12.845  0.3703 -0.4180 -0.2955
10485TIP3   OH252945   1.007   3.162   6.023  0.3454 -0.5838  0.0112
10485TIP3    H152946   0.959   3.170   5.941  0.6062  0.9389 -0.0405
10485TIP3    H252947   1.013   3.068   6.040 -1.4022 -0.8471 -0.6910
10486TIP3   OH252948   2.431   2.212  13.759 -0.5507 -0.1312  0.0720
10486TIP3    H152949   2.516   2.225  13.716  0.0450 -1.9640  0.5847
10486TIP3    H252950   2.449   2.147  13.828 -2.1373  0.3425  0.9796
10487TIP3   OH252951   3.057   3.470   1.612 -0.4668  0.5134  0.2514
10487TIP3    H152952   3.038   3.519   1.692 -1.3955  0.1560  0.2676
10487TIP3    H252953   2.990   3.401   1.610  0.7352 -0.6936  0.1821
10488TIP3   OH252954   2.235   1.437   0.327 -0.3582  0.0096  0.0682
10488TIP3    H152955   2.143   1.459   0.345 -0.5257 -0.7179  0.1420
10488TIP3    H252956   2.240   1.343   0.343  0.8198  0.3275  1.7380
10489TIP3   OH252957   3.267   4.517  14.547 -0.2696  0.2805  0.5871
10489TIP3    H152958   3.255   4.608  14.521 -0.5788  0.8404  2.5226
10489TIP3    H252959   3.184   4.492  14.588 -1.0008 -1.6112 -1.7910
10490TIP3   OH252960   5.612   1.405  11.189 -0.0777  0.0188  0.0378
10490TIP3    H152961   5.606   1.479  11.250  1.6905 -0.7556  1.2318
10490TIP3    H252962   5.667   1.437  11.118 -1.1003  0.5044 -0.5745
10491TIP3   OH252963   2.904   5.220  15.133 -0.1206 -0.2567 -0.1395
10491TIP3    H152964   2.854   5.150  15.176  0.5034 -0.5648  0.0958
10491TIP3    H252965   2.838   5.270  15.085 -0.5955 -0.9581 -0.2423
10492TIP3   OH252966   4.908   3.204  14.743  0.3377 -0.9824 -0.3023
10492TIP3    H152967   4.923   3.160  14.827  1.3017 -0.9714 -0.4599
10492TIP3    H252968   4.827   3.166  14.710  0.1185 -1.2134  0.4899
10493TIP3   OH252969   0.408   1.660  11.714  0.2061  0.2264  0.5525
10493TIP3    H152970   0.455   1.728  11.762  0.0002  0.8828 -0.1566
10493TIP3    H252971   0.340   1.631  11.775  0.7121  0.1810  1.1028
10494TIP3   OH252972   2.560   1.140  16.429  0.2654  0.1406  0.2816
10494TIP3    H152973   2.606   1.132  16.512  1.2157 -1.1654 -0.3415
10494TIP3    H252974   2.628   1.165  16.366 -0.5654  1.8390 -0.0012
10495TIP3   OH252975   0.577   1.200  15.316  0.7985  0.3199 -0.0329
10495TIP3    H152976   0.615   1.194  15.404  0.4759  0.3260  0.1059
10495TIP3    H252977   0.651   1.182  15.258  1.2001  1.1403  0.2136
10496TIP3   OH252978   2.295   0.684  15.145  0.3450 -0.1633 -0.2083
10496TIP3    H152979   2.218   0.711  15.094 -0.4310 -0.9616  0.4976
10496TIP3    H252980   2.284   0.590  15.157  1.5037 -0.3062 -0.1815
10497TIP3   OH252981   6.205   4.387  17.101 -0.0710  0.2726 -0.2561
10497TIP3    H152982   6.266   4.454  17.132 -0.5852 -0.0944  1.7174
10497TIP3    H252983   6.249   4.304  17.122 -0.9404  0.0101  0.5765
10498TIP3   OH252984   1.616   2.589  13.960 -0.5051 -0.0375  0.1264
10498TIP3    H152985   1.622   2.674  14.003  0.9425 -0.3973  0.7155
10498TIP3    H252986   1.522   2.569  13.958 -0.7658  0.9443  1.2365
10499TIP3   OH252987   2.552   3.003  16.316  0.3426  0.3709 -0.5685
10499TIP3    H152988   2.505   3.074  16.361 -0.1879  1.6799 -3.0267
10499TIP3    H252989   2.613   2.970  16.382 -1.0169  1.5347  1.3787
10500TIP3   OH252990   4.774   0.339  14.980  0.1966 -0.1570 -0.0116
10500TIP3    H152991   4.753   0.355  14.888  0.6591  0.4225 -0.0226
10500TIP3    H252992   4.807   0.249  14.981  1.8039  0.3810 -0.7132
10501TIP3   OH252993   2.575   5.068   2.195 -0.3697  0.1630  0.3284
10501TIP3    H152994   2.489   5.043   2.161 -0.8950 -0.2970  1.8997
10501TIP3    H252995   2.630   5.077   2.117 -1.6094 -0.3960 -0.6522
10502TIP3   OH252996   4.753   1.755  12.920  0.0811 -0.2771 -0.2039
10502TIP3    H152997   4.830   1.806  12.896  0.1688 -0.0861  0.4532
10502TIP3    H252998   4.785   1.692  12.984 -0.3028 -0.2045  0.0645
10503TIP3   OH252999   0.788   4.652  12.603  0.2120 -0.0300  0.1885
10503TIP3    H153000   0.694   4.642  12.615  0.0744  0.3346 -0.5581
10503TIP3    H253001   0.822   4.562  12.602 -0.0607 -0.1476  0.9222
10504TIP3   OH253002   6.079   4.921  13.391  0.7770 -0.1007 -0.4440
10504TIP3    H153003   6.061   5.000  13.441  0.8088 -1.3776  1.7201
10504TIP3    H253004   6.160   4.939  13.344  1.9363  0.4345  1.6779
10505TIP3   OH253005   0.154   2.085  14.463 -0.4920 -0.1824  0.1407
10505TIP3    H153006   0.169   2.018  14.397 -1.4676 -0.0232 -0.2538
10505TIP3    H253007   0.089   2.045  14.522 -1.0781  0.4002 -0.0983
10506TIP3   OH253008   2.424   6.213   2.946 -0.3927 -0.1794 -0.4791
10506TIP3    H153009   2.401   6.123   2.924 -0.1376 -0.2301 -0.5402
10506TIP3    H253010   2.377   6.231   3.027 -0.7386 -0.2442 -0.6631
10507TIP3   OH253011   2.825   0.677  16.748 -0.1430  0.2785 -0.6425
10507TIP3    H153012   2.771   0.751  16.775 -1.7143 -0.9121 -0.3632
10507TIP3    H253013   2.794   0.655  16.660 -0.4692 -0.7142 -0.2957
10508TIP3   OH253014   4.633   3.212   3.824 -0.4102 -0.0477  0.3136
10508TIP3    H153015   4.644   3.288   3.768 -1.8804 -0.6351 -0.8174
10508TIP3    H253016   4.635   3.137   3.765  2.9228 -1.1575  1.5630
10509TIP3   OH253017   4.955   2.555  15.772 -0.2330 -0.3753  0.2630
10509TIP3    H153018   5.017   2.492  15.735 -0.4098 -1.1704  1.2864
10509TIP3    H253019   4.999   2.639  15.764  0.7388 -0.8554  0.4550
10510TIP3   OH253020   1.660   2.266   4.922  0.0711  0.1393  0.0169
10510TIP3    H153021   1.574   2.305   4.936 -0.1719 -0.4850  0.3006
10510TIP3    H253022   1.722   2.338   4.933 -0.4297  0.6428 -0.4255
10511TIP3   OH253023   3.869   1.521  14.137  0.0357  0.1109 -0.0970
10511TIP3    H153024   3.891   1.479  14.221  0.0214 -1.1260 -0.6815
10511TIP3    H253025   3.793   1.473  14.106 -0.9835  1.6504 -0.0615
10512TIP3   OH253026   0.496   6.356  13.992 -0.1873  0.4463  0.2384
10512TIP3    H153027   0.514   6.440  14.034 -0.4254  0.8402 -0.4398
10512TIP3    H253028   0.582   6.313  13.987  0.5080  1.9351 -2.1704
10513TIP3   OH253029   1.302   4.319  10.476  0.2477 -0.2746 -0.5956
10513TIP3    H153030   1.384   4.274  10.456  0.5684  0.1768 -0.3042
10513TIP3    H253031   1.239   4.248  10.494 -0.3558 -0.8259 -4.1055
10514TIP3   OH253032   1.547   1.557  14.790  0.2153 -0.1146 -0.1222
10514TIP3    H153033   1.493   1.630  14.821  1.0351  1.1848 -1.6070
10514TIP3    H253034   1.617   1.550  14.855 -0.0233  0.2456  0.1790
10515TIP3   OH253035   5.187   0.516  14.820 -0.3070 -0.1357 -0.5087
10515TIP3    H153036   5.095   0.533  14.840 -0.2432  0.4340 -0.6867
10515TIP3    H253037   5.192   0.523  14.724 -0.1945 -0.7431 -0.5503
10516TIP3   OH253038   4.957   2.155   2.289 -0.0848  0.3569  0.2876
10516TIP3    H153039   4.946   2.230   2.347  2.1073 -1.0976  2.8170
10516TIP3    H253040   4.870   2.114   2.286 -1.1069  2.4258 -0.4666
10517TIP3   OH253041   2.848   6.084  16.172 -0.2722 -0.0754 -0.0328
10517TIP3    H153042   2.904   6.085  16.094 -1.3939  0.5463 -0.8683
10517TIP3    H253043   2.786   6.013  16.155 -1.0664  0.6281 -0.1174
10518TIP3   OH253044   4.476   1.538  10.244 -0.3658 -0.1313  0.3030
10518TIP3    H153045   4.413   1.549  10.173  0.2830 -0.5754 -0.3639
10518TIP3    H253046   4.519   1.454  10.225 -1.9971 -1.6256  2.6712
10519TIP3   OH253047   1.704   1.723  16.960 -0.0988  0.0388  0.0781
10519TIP3    H153048   1.653   1.695  16.884  3.2431 -1.4979 -1.8445
10519TIP3    H253049   1.675   1.813  16.976 -0.9974  0.4281 -3.0282
10520TIP3   OH253050   4.745   0.946  15.673  0.5844  0.6709 -0.2794
10520TIP3    H153051   4.706   1.033  15.673  1.7956  1.2337 -0.3943
10520TIP3    H253052   4.839   0.962  15.664  0.7500 -0.6807 -1.3430
10521TIP3   OH253053   1.975   3.335   5.164 -0.2303  0.1528 -0.1637
10521TIP3    H153054   1.913   3.404   5.143  0.0002  0.9956  1.8069
10521TIP3    H253055   1.921   3.259   5.186 -0.5774  0.8158  1.3144
10522TIP3   OH253056   4.490   6.169  12.484 -0.1182  0.4741 -0.2960
10522TIP3    H153057   4.559   6.231  12.460 -0.2486 -0.0579 -2.2379
10522TIP3    H253058   4.537   6.091  12.513  0.0512  0.9857  0.8571
10523TIP3   OH253059   0.764   4.806   1.817 -0.3661  0.0360  0.5020
10523TIP3    H153060   0.717   4.789   1.735 -0.0956 -1.6423  0.6466
10523TIP3    H253061   0.857   4.795   1.794 -0.0484  2.4199  0.4221
10524TIP3   OH253062   1.614   6.212   3.746 -0.7350 -0.1445  0.0563
10524TIP3    H153063   1.597   6.207   3.652  0.6217 -1.3390 -0.1638
10524TIP3    H253064   1.572   6.133   3.782 -0.6887 -0.0387  0.3432
10525TIP3   OH253065   4.100   0.162   1.178 -0.2116 -0.4382  0.5653
10525TIP3    H153066   4.017   0.132   1.215 -0.7268  0.3160  0.0600
10525TIP3    H253067   4.109   0.112   1.097  1.8180 -3.4424  2.4700
10526TIP3   OH253068   4.329   5.928   0.155  0.9115 -0.1277  0.1211
10526TIP3    H153069   4.332   5.928   0.059  0.9745 -1.0218  0.1152
10526TIP3    H253070   4.237   5.946   0.175  1.1588  1.5166 -0.0679
10527TIP3   OH253071   0.245   5.732  12.326 -0.2423 -0.1516 -0.0909
10527TIP3    H153072   0.158   5.708  12.359 -0.8653  1.2589 -0.6444
10527TIP3    H253073   0.300   5.734  12.404 -1.2111  1.0588  0.5833
10528TIP3   OH253074   4.127   1.022   0.259  0.2868 -0.0038  0.1047
10528TIP3    H153075   4.076   0.941   0.261 -0.3536  0.4007  1.0988
10528TIP3    H253076   4.125   1.053   0.349  1.1444  0.7472 -0.1228
10529TIP3   OH253077   2.771   0.915  16.858 -0.7844 -0.7411 -0.2793
10529TIP3    H153078   2.731   0.908  16.945 -2.6935  1.2765 -0.9257
10529TIP3    H253079   2.852   0.964  16.873 -1.9530  1.1275  0.1860
10530TIP3   OH253080   4.212   1.001   5.018  0.5750  0.0963  0.2811
10530TIP3    H153081   4.288   1.008   4.960  0.5359 -0.9112  0.0945
10530TIP3    H253082   4.227   0.920   5.068 -1.6464 -1.6694 -1.6898
10531TIP3   OH253083   1.175   2.551   4.483 -0.5840  0.2202 -0.8906
10531TIP3    H153084   1.136   2.638   4.486 -1.4611 -0.1832 -0.0950
10531TIP3    H253085   1.128   2.506   4.413 -1.9107 -0.4016  0.3401
10532TIP3   OH253086   2.788   0.990   5.499  0.0388  0.2670 -0.5940
10532TIP3    H153087   2.881   0.988   5.522  0.0246 -1.4402 -0.5271
10532TIP3    H253088   2.744   0.964   5.580 -0.4782  0.7648 -0.7127
10533TIP3   OH253089   5.074   0.347  16.879  0.2273  0.6592 -0.0607
10533TIP3    H153090   5.100   0.417  16.939  0.6646  0.7924 -0.3970
10533TIP3    H253091   4.982   0.364  16.860  0.3204  1.1177 -0.1061
10534TIP3   OH253092   3.602   6.761   2.495 -1.0164  0.0671  0.5057
10534TIP3    H153093   3.641   6.752   2.408 -1.6352 -0.7615  0.3003
10534TIP3    H253094   3.674   6.788   2.551 -0.6043  0.6110 -0.2607
10535TIP3   OH253095   5.667   6.613   0.275 -0.6385  0.1326  0.0149
10535TIP3    H153096   5.652   6.652   0.361 -1.0482  0.4649 -0.2074
10535TIP3    H253097   5.696   6.687   0.221  1.6135 -0.4071  0.3582
10536TIP3   OH253098   1.986   3.895   3.739 -0.5870  0.4172  1.0500
10536TIP3    H153099   2.018   3.966   3.796 -1.5768  0.8092  1.1331
10536TIP3    H253100   1.958   3.940   3.660 -0.3048 -0.0011  0.7111
10537TIP3   OH253101   6.529   5.942  13.154 -0.2898 -0.9356  0.6046
10537TIP3    H153102   6.540   6.037  13.151 -1.2336 -0.7918  1.1956
10537TIP3    H253103   6.583   5.909  13.082 -0.8385  0.1388 -0.3266
10538TIP3   OH253104   5.497   3.782   5.290  0.0433 -0.3945 -0.2933
10538TIP3    H153105   5.478   3.701   5.337  0.5640 -0.3987 -0.0809
10538TIP3    H253106   5.413   3.808   5.251 -0.4533 -0.2530  0.8400
10539TIP3   OH253107   6.252   1.725   4.009 -0.1212 -0.6509 -0.0220
10539TIP3    H153108   6.321   1.660   4.020 -0.7305 -1.0629  1.8792
10539TIP3    H253109   6.266   1.762   3.922  2.7237 -0.4418  0.4223
10540TIP3   OH253110   1.979   2.483   4.602  0.3904  0.2051 -0.2058
10540TIP3    H153111   1.941   2.536   4.531  0.8825  1.1951  0.2430
10540TIP3    H253112   1.906   2.430   4.634 -0.3520  1.2507 -0.1094
10541TIP3   OH253113   0.203   3.878  12.324 -0.0837 -0.2554  0.5290
10541TIP3    H153114   0.168   3.959  12.287 -1.4113 -1.6918 -1.5671
10541TIP3    H253115   0.126   3.824  12.341  0.7424 -0.9403  2.3882
10542TIP3   OH253116   4.827   3.965   0.144  0.4414  0.0563 -0.3274
10542TIP3    H153117   4.779   3.898   0.194 -1.3713  0.7091 -1.0912
10542TIP3    H253118   4.899   3.990   0.201 -0.7061 -0.2634  1.3598
10543TIP3   OH253119   6.808   4.589   5.261  0.6857 -0.3236 -0.0764
10543TIP3    H153120   6.889   4.542   5.240  0.7944 -1.0831  1.9182
10543TIP3    H253121   6.765   4.536   5.327 -2.2382 -0.7121 -2.0807
10544TIP3   OH253122   1.098   3.002   3.356  0.0655 -0.5673  0.2145
10544TIP3    H153123   1.191   3.001   3.380  0.3584 -0.8542 -0.9160
10544TIP3    H253124   1.087   3.085   3.310  0.2176 -1.3765 -1.3493
10545TIP3   OH253125   4.275   4.901   0.235  0.6283 -0.4772 -1.1537
10545TIP3    H153126   4.218   4.830   0.261  0.9904 -0.9406 -1.6028
10545TIP3    H253127   4.359   4.882   0.277  0.0681  1.0215  0.7935
10546TIP3   OH253128   0.902   5.866  15.762 -0.2340 -0.1219 -0.6102
10546TIP3    H153129   0.969   5.873  15.830  0.5461 -1.3460 -1.2167
10546TIP3    H253130   0.826   5.828  15.807  0.2434 -0.8335 -0.3971
10547TIP3   OH253131   4.873   3.083   5.157 -0.3986  0.1006  0.2043
10547TIP3    H153132   4.854   3.174   5.133 -0.4523 -0.2131 -0.9854
10547TIP3    H253133   4.969   3.078   5.160 -0.3591 -0.0776 -0.9034
10548TIP3   OH253134   1.873   1.654   3.019  0.2370  0.4506  0.1799
10548TIP3    H153135   1.899   1.564   2.998  1.7070  1.1963 -1.4002
10548TIP3    H253136   1.955   1.703   3.020 -0.6508  1.9998 -0.1001
10549TIP3   OH253137   6.191   6.261  16.291  0.0764 -0.1221  0.3488
10549TIP3    H153138   6.212   6.175  16.256 -3.7502 -0.5601 -1.2490
10549TIP3    H253139   6.155   6.244  16.378 -1.9648 -0.3952 -0.4928
10550TIP3   OH253140   3.160   1.218  12.940 -0.0567  0.0494  0.2722
10550TIP3    H153141   3.075   1.210  12.984 -0.0642 -2.2600 -0.0088
10550TIP3    H253142   3.221   1.170  12.997  0.7018  0.2311 -0.3696
10551TIP3   OH253143   4.836   5.614   5.651  0.6206 -0.3109  0.2331
10551TIP3    H153144   4.785   5.538   5.623 -0.4467  0.7924 -1.0099
10551TIP3    H253145   4.842   5.669   5.572  0.8321  1.1573  1.2225
10552TIP3   OH253146   2.040   1.263  12.715 -0.4331 -0.1250 -0.3999
10552TIP3    H153147   2.015   1.212  12.637 -0.1809 -0.4805 -0.2516
10552TIP3    H253148   2.103   1.327  12.682  0.5957 -1.0477 -0.3016
10553TIP3   OH253149   6.633   1.885   1.579 -0.0733  0.0618 -0.6324
10553TIP3    H153150   6.709   1.937   1.553 -0.5702  1.1209 -0.0655
10553TIP3    H253151   6.558   1.942   1.560 -0.6341 -0.4135  0.1120
10554TIP3   OH253152   5.449   5.507  12.344  0.1036  0.2209  0.7410
10554TIP3    H153153   5.409   5.573  12.401 -1.4718 -1.5608  1.8494
10554TIP3    H253154   5.489   5.445  12.405  0.8185 -0.2954 -0.2305
10555TIP3   OH253155   0.397   4.313  16.171  0.2551  0.2507 -0.0675
10555TIP3    H153156   0.361   4.332  16.085  0.5864 -2.2366 -0.8214
10555TIP3    H253157   0.326   4.271  16.219 -0.1711  2.2648  1.2266
10556TIP3   OH253158   5.825   2.504   0.017 -0.1117  0.0073 -0.2150
10556TIP3    H153159   5.751   2.539   0.066 -0.6342  1.9102 -2.2550
10556TIP3    H253160   5.893   2.570   0.025  1.0883 -1.2785  0.8133
10557TIP3   OH253161   5.939   2.397  11.884  1.0259  0.2659 -0.1422
10557TIP3    H153162   5.884   2.369  11.957  1.7807  0.3174  0.4531
10557TIP3    H253163   5.882   2.389  11.807  0.9066 -2.0882  0.1070
10558TIP3   OH253164   1.227   3.538  13.495  1.1180  0.0838  0.3037
10558TIP3    H153165   1.176   3.468  13.455  1.3455  1.1516 -1.9901
10558TIP3    H253166   1.268   3.497  13.572 -0.6404 -1.6164  0.4091
10559TIP3   OH253167   6.211   5.325  15.644 -0.0845 -0.6476  0.1348
10559TIP3    H153168   6.243   5.286  15.726 -0.8027 -1.5425  0.0101
10559TIP3    H253169   6.218   5.419  15.658  1.0673 -0.7954  0.7138
10560TIP3   OH253170   3.966   0.677   1.874 -0.1604  0.1556 -0.3623
10560TIP3    H153171   3.964   0.583   1.853 -1.6635  0.3653 -1.3051
10560TIP3    H253172   3.878   0.708   1.853 -0.0852  1.5338  1.1704
10561TIP3   OH253173   3.681   4.640   5.124  0.1386 -0.1852  0.5365
10561TIP3    H153174   3.630   4.572   5.167  1.8939 -0.6397  2.0002
10561TIP3    H253175   3.625   4.718   5.128 -0.4684 -0.6681  2.0613
10562TIP3   OH253176   3.610   5.133   2.838  0.2126 -0.0633  0.4172
10562TIP3    H153177   3.610   5.124   2.933 -0.7458 -0.4281  0.3992
10562TIP3    H253178   3.635   5.224   2.823  0.4720 -0.0308  1.0169
10563TIP3   OH253179   3.864   2.844   0.201 -0.1451 -0.1329 -0.0999
10563TIP3    H153180   3.813   2.822   0.279  0.9239 -0.3197  0.5611
10563TIP3    H253181   3.907   2.927   0.222 -2.0559  1.3311 -1.5816
10564TIP3   OH253182   6.630   4.998  13.212 -0.1676 -0.1088  0.1700
10564TIP3    H153183   6.649   4.953  13.130  0.2033 -0.9722  0.7126
10564TIP3    H253184   6.699   5.063  13.220 -0.6420  0.5059 -0.5657
10565TIP3   OH253185   2.173   6.509  16.279 -0.9342 -0.0979 -0.2484
10565TIP3    H153186   2.153   6.422  16.314 -2.1131  0.4537  0.5221
10565TIP3    H253187   2.206   6.493  16.191  0.9899 -1.4612  0.6433
10566TIP3   OH253188   0.194   2.804  11.550  0.5544 -0.2663 -0.2913
10566TIP3    H153189   0.244   2.752  11.487  0.3117 -0.4076 -0.3681
10566TIP3    H253190   0.244   2.885  11.559 -0.2910  0.5060 -1.9836
10567TIP3   OH253191   6.424   4.065  12.492 -0.3063 -0.0766  0.5512
10567TIP3    H153192   6.476   4.140  12.463 -0.5980  0.3541  1.1300
10567TIP3    H253193   6.441   3.997  12.426 -0.2296  0.5750 -0.1089
10568TIP3   OH253194   1.658   6.050   1.195 -0.3689  0.0390  0.1186
10568TIP3    H153195   1.573   6.089   1.177 -1.3330 -1.9620  0.0391
10568TIP3    H253196   1.665   5.978   1.131 -0.1788 -1.9732  2.2627
10569TIP3   OH253197   0.837   3.031  11.768 -0.3119 -0.8620  0.5941
10569TIP3    H153198   0.849   3.119  11.732  0.0745 -0.8568  0.7274
10569TIP3    H253199   0.745   3.027  11.792 -0.1645 -0.2290  1.2827
10570TIP3   OH253200   2.082   3.517   6.220  0.1899 -0.4076  0.1802
10570TIP3    H153201   2.140   3.476   6.284  0.5665 -0.4536 -0.1904
10570TIP3    H253202   2.079   3.456   6.147 -1.3660 -1.0401  0.7160
10571TIP3   OH253203   5.964   6.609  17.043  0.1502  0.7058  0.7249
10571TIP3    H153204   5.919   6.686  17.076 -0.4641  0.5897  0.2016
10571TIP3    H253205   5.919   6.535  17.084  1.0018  0.6262  1.5423
10572TIP3   OH253206   2.594   1.254   2.381  0.0983 -0.2733 -0.2162
10572TIP3    H153207   2.524   1.260   2.316 -0.6912  0.1352  0.6525
10572TIP3    H253208   2.609   1.160   2.392 -0.1651 -0.3571 -0.5717
10573TIP3   OH253209   6.167   4.071  13.581  0.3199 -0.5524  0.5631
10573TIP3    H153210   6.096   4.103  13.637  0.3350  0.5281 -0.0032
10573TIP3    H253211   6.199   4.149  13.535 -0.5031 -1.5349 -1.8698
10574TIP3   OH253212   6.299   4.723   3.390  0.2285 -0.2130  0.3854
10574TIP3    H153213   6.329   4.766   3.470  1.9913  1.2057 -0.9486
10574TIP3    H253214   6.321   4.784   3.320 -1.2804 -1.3912 -1.2155
10575TIP3   OH253215   1.240   2.493  14.564 -0.1831  0.4285  0.0310
10575TIP3    H153216   1.199   2.423  14.614 -1.0332  0.2482 -0.8917
10575TIP3    H253217   1.215   2.573  14.611  0.5272  0.1421  0.9048
10576TIP3   OH253218   0.343   5.340  14.075  0.9933  0.4293  0.9638
10576TIP3    H153219   0.341   5.418  14.020 -1.4320  0.0407  0.4237
10576TIP3    H253220   0.289   5.362  14.151  0.5601 -0.5993  0.9707
10577TIP3   OH253221   4.614   6.149  10.629  0.2466 -0.0775 -0.5230
10577TIP3    H153222   4.639   6.230  10.585 -0.9154 -0.5088 -2.1062
10577TIP3    H253223   4.518   6.147  10.622  0.3232 -2.5897 -2.5492
10578TIP3   OH253224   5.783   6.021  13.612  0.1788  0.2169 -0.1093
10578TIP3    H153225   5.789   5.930  13.581 -0.8691 -0.3996  1.3546
10578TIP3    H253226   5.690   6.042  13.607  0.4080  1.2163 -0.3932
10579TIP3   OH253227   6.533   3.178   4.074 -0.1329 -0.0348  0.7930
10579TIP3    H153228   6.583   3.099   4.096  0.6968  0.2482 -0.0318
10579TIP3    H253229   6.597   3.239   4.039 -0.9711  0.5411  0.2103
10580TIP3   OH253230   3.224   3.455  16.831  0.7459 -0.0428  0.5346
10580TIP3    H153231   3.315   3.426  16.844  0.0996 -4.1646 -2.1343
10580TIP3    H253232   3.178   3.425  16.910  1.5552  1.9401  1.8365
10581TIP3   OH253233   2.694   1.014   3.205 -0.6776  0.3860  0.0272
10581TIP3    H153234   2.776   0.976   3.237 -0.2857 -0.3347 -1.6836
10581TIP3    H253235   2.688   0.984   3.114 -2.6383  0.7719 -0.0163
10582TIP3   OH253236   0.117   1.583  13.415  0.2585  0.0346 -0.1987
10582TIP3    H153237   0.149   1.568  13.504  0.0082  0.6727  0.0084
10582TIP3    H253238   0.181   1.539  13.358 -0.1742 -1.3179  0.3339
10583TIP3   OH253239   1.904   6.171  15.616  0.2488  0.8369 -0.1877
10583TIP3    H153240   1.931   6.118  15.541  0.3983  0.2548  0.2659
10583TIP3    H253241   1.819   6.206  15.591 -1.0551 -1.6171  0.4200
10584TIP3   OH253242   6.756   0.371  14.938  0.0048 -0.3791  0.1101
10584TIP3    H153243   6.825   0.405  14.995  0.2225 -0.5740 -0.0423
10584TIP3    H253244   6.793   0.372  14.850  0.6289 -2.6185  0.3011
10585TIP3   OH253245   6.551   1.257  13.138  0.1716 -0.0050  0.3291
10585TIP3    H153246   6.476   1.307  13.169 -0.2726  0.1569 -0.9713
10585TIP3    H253247   6.556   1.182  13.197 -0.5513  0.3780  0.8857
10586TIP3   OH253248   3.189   6.025   2.951 -0.0262 -0.3973  0.1423
10586TIP3    H153249   3.107   6.075   2.952  1.4864  2.2040  0.5793
10586TIP3    H253250   3.230   6.045   3.035  1.1174 -1.6356 -0.0880
10587TIP3   OH253251   5.407   3.978   3.707  0.0650  0.4641 -0.3409
10587TIP3    H153252   5.328   3.932   3.681  0.4705 -0.0920 -0.5947
10587TIP3    H253253   5.383   4.024   3.788 -0.4998  0.2723 -0.3991
10588TIP3   OH253254   3.798   3.822  16.366  0.4840  0.3013  0.5603
10588TIP3    H153255   3.782   3.895  16.426  1.0511  0.3647  0.6405
10588TIP3    H253256   3.721   3.820  16.310  0.3598  0.8206  0.7061
10589TIP3   OH253257   0.113   6.357   6.456  0.2312  0.0604 -0.4083
10589TIP3    H153258   0.124   6.347   6.550 -1.7144 -0.0214 -0.1537
10589TIP3    H253259   0.109   6.452   6.443  1.6301  0.1197 -0.5925
10590TIP3   OH253260   0.687   0.272  16.920 -0.9466  0.1320 -0.2390
10590TIP3    H153261   0.703   0.179  16.907 -0.5617  0.3825 -1.6773
10590TIP3    H253262   0.604   0.289  16.876 -2.3666  0.0119  2.1923
10591TIP3   OH253263   3.266   0.607  13.353 -0.1903 -0.2105 -0.2480
10591TIP3    H153264   3.338   0.635  13.409 -0.6594 -0.9345  0.7359
10591TIP3    H253265   3.309   0.580  13.271  0.4010  1.8564 -0.6841
10592TIP3   OH253266   0.255   6.025   1.708 -0.5994  0.0137 -0.0738
10592TIP3    H153267   0.178   6.078   1.687 -0.3643 -0.3438 -2.0525
10592TIP3    H253268   0.325   6.088   1.722 -0.5863  0.2719 -1.2523
10593TIP3   OH253269   3.783   1.594  16.816 -0.0059  0.6286  0.8199
10593TIP3    H153270   3.855   1.642  16.857 -1.0683  2.3145  0.8279
10593TIP3    H253271   3.814   1.574  16.728  0.7263  0.7177  1.0517
10594TIP3   OH253272   2.938   1.058   0.521 -0.0964  0.4167  0.1240
10594TIP3    H153273   2.933   1.029   0.613 -0.0611  0.8432  0.2617
10594TIP3    H253274   2.861   1.114   0.509  1.1103  2.2510  0.5711
10595TIP3   OH253275   3.666   6.232  13.148  0.5071  0.1707  0.1050
10595TIP3    H153276   3.578   6.195  13.147  0.0806  1.1677 -0.6134
10595TIP3    H253277   3.718   6.170  13.198 -0.5410 -0.5802  0.2755
10596TIP3   OH253278   5.961   1.409  15.146  0.2078  0.1042  0.1454
10596TIP3    H153279   6.006   1.387  15.228  0.9297 -0.8021 -0.4779
10596TIP3    H253280   5.928   1.325  15.113  0.7000  0.3268 -0.9467
10597TIP3   OH253281   1.538   1.264  15.151  0.1649  0.1539  0.9076
10597TIP3    H153282   1.621   1.284  15.107  0.2430 -0.0643  0.9568
10597TIP3    H253283   1.523   1.340  15.207 -0.6997  1.1492 -0.6002
10598TIP3   OH253284   2.311   4.684   1.281 -0.2815  0.1338  0.3553
10598TIP3    H153285   2.378   4.676   1.213 -0.0595 -1.2005  0.6992
10598TIP3    H253286   2.361   4.704   1.360 -0.3619 -0.0597  0.4564
10599TIP3   OH253287   2.891   2.269  11.455 -0.5483  0.0997 -0.2674
10599TIP3    H153288   2.891   2.290  11.362 -0.0354  1.0627 -0.0676
10599TIP3    H253289   2.983   2.261  11.478 -0.6946 -0.9343 -0.0019
10600TIP3   OH253290   3.817   5.624   5.075 -0.0764 -0.1646  0.1739
10600TIP3    H153291   3.804   5.663   4.989  2.2032 -0.4770 -0.3810
10600TIP3    H253292   3.782   5.689   5.137 -0.8864  0.4761 -0.9331
10601TIP3   OH253293   2.458   1.827  16.669 -0.0116 -0.3975 -0.6675
10601TIP3    H153294   2.370   1.788  16.677 -0.6517  1.0491 -0.4471
10601TIP3    H253295   2.490   1.797  16.584 -0.4077 -1.5130 -0.4512
10602TIP3   OH253296   2.159   2.704  11.085  0.1742 -0.6027 -0.7807
10602TIP3    H153297   2.185   2.794  11.066 -0.0565 -0.7547 -1.9156
10602TIP3    H253298   2.063   2.707  11.086  0.0624 -0.0734  3.2016
10603TIP3   OH253299   0.474   2.282  12.553  0.3863  0.3565 -0.0328
10603TIP3    H153300   0.484   2.191  12.525  0.2784 -0.4846  2.4176
10603TIP3    H253301   0.554   2.301  12.602 -0.0203  1.2372  0.3037
10604TIP3   OH253302   0.810   1.790  11.532  0.7611 -0.1426 -0.1085
10604TIP3    H153303   0.716   1.772  11.523  0.9201 -0.3577 -1.5412
10604TIP3    H253304   0.825   1.865  11.475  1.4929 -0.2264 -0.0247
10605TIP3   OH253305   3.473   1.340  13.326 -0.3459 -0.2778 -0.1194
10605TIP3    H153306   3.437   1.304  13.408 -0.5509 -0.1943 -0.1708
10605TIP3    H253307   3.547   1.393  13.354 -1.7820  1.6396  0.2598
10606TIP3   OH253308   1.753   4.793  13.106 -0.2522 -0.1710 -0.4082
10606TIP3    H153309   1.795   4.869  13.146 -0.9119 -1.0467  2.1748
10606TIP3    H253310   1.826   4.734  13.084  0.1851  0.6977 -1.3399
10607TIP3   OH253311   1.042   3.347  16.026 -0.0512 -0.4502 -0.0696
10607TIP3    H153312   1.126   3.390  16.009  0.7374 -2.1139 -0.6357
10607TIP3    H253313   1.057   3.297  16.106 -0.3182 -1.1535 -0.4468
10608TIP3   OH253314   4.445   5.778  12.535  0.6374 -0.2176 -0.4198
10608TIP3    H153315   4.351   5.792  12.528  0.5844  0.1673  0.8096
10608TIP3    H253316   4.482   5.866  12.536  0.9698 -0.3572 -0.4838
10609TIP3   OH253317   5.956   0.194   4.730 -0.0272  0.0295  0.6087
10609TIP3    H153318   5.908   0.134   4.786  2.1890 -2.1495  0.3046
10609TIP3    H253319   6.024   0.141   4.689  1.6026  2.5895 -0.2717
10610TIP3   OH253320   6.270   5.677   2.147 -0.4010 -0.0236 -0.3895
10610TIP3    H153321   6.292   5.759   2.103 -0.8068 -0.4270 -1.3931
10610TIP3    H253322   6.199   5.701   2.207  2.1191  1.1338  2.3543
10611TIP3   OH253323   0.062   0.309  10.820  0.2119  0.1356  0.5536
10611TIP3    H153324   0.096   0.265  10.897 -2.1200  0.1139  1.6676
10611TIP3    H253325   0.085   0.401  10.833  0.5241  0.0144  0.8699
10612TIP3   OH253326   0.736   1.690  15.991  0.4918  0.4634 -0.3105
10612TIP3    H153327   0.731   1.648  15.905 -0.6265  0.5841 -0.3146
10612TIP3    H253328   0.754   1.618  16.051  0.9245  0.3283 -0.5944
10613TIP3   OH253329   1.110   4.392   3.219 -0.0099  0.1816 -0.0802
10613TIP3    H153330   1.096   4.343   3.300 -0.2977 -0.4080 -0.4794
10613TIP3    H253331   1.201   4.372   3.194 -0.2931 -0.5976 -0.5278
10614TIP3   OH253332   1.672   5.236  16.337 -0.0807  0.0350 -0.0976
10614TIP3    H153333   1.673   5.155  16.286 -1.6428  0.0628 -0.2048
10614TIP3    H253334   1.759   5.274  16.323 -0.3538 -0.0843 -2.5179
10615TIP3   OH253335   4.160   4.554  14.832  0.6222  0.7766  0.7717
10615TIP3    H153336   4.123   4.617  14.770 -0.2803  0.8797  1.3938
10615TIP3    H253337   4.219   4.500  14.780 -1.2067 -0.0822 -0.4974
10616TIP3   OH253338   5.106   4.826  14.712 -0.1852 -0.6738  1.0569
10616TIP3    H153339   5.021   4.833  14.756 -0.1974 -1.4565  1.1828
10616TIP3    H253340   5.139   4.740  14.739  0.9224 -0.1297  1.5003
10617TIP3   OH253341   2.605   6.011   4.063  0.0353 -0.0668  0.5022
10617TIP3    H153342   2.653   6.001   4.146  1.9064 -2.5466 -0.7406
10617TIP3    H253343   2.655   5.959   4.000 -3.2543 -1.2377 -1.3991
10618TIP3   OH253344   5.959   5.938   3.709 -0.6061 -0.1612  0.3006
10618TIP3    H153345   5.929   6.028   3.704  0.4688  0.2069  0.1712
10618TIP3    H253346   5.892   5.892   3.759  0.0129  1.2368  2.5127
10619TIP3   OH253347   1.836   0.801  12.126 -0.3914 -0.7681  0.0093
10619TIP3    H153348   1.760   0.752  12.094 -1.3523  1.2777 -0.9930
10619TIP3    H253349   1.823   0.890  12.094  1.9672 -0.1232  0.6252
10620TIP3   OH253350   3.152   6.386  17.203  0.3749  0.4374  0.7825
10620TIP3    H153351   3.096   6.347  17.136  0.7179  0.5380  0.4321
10620TIP3    H253352   3.199   6.313  17.241  0.8226  0.4763  0.3079
10621TIP3   OH253353   1.914   6.283  11.793  0.1571  0.4456 -0.1887
10621TIP3    H153354   1.936   6.255  11.704 -1.6425 -1.0598 -0.2279
10621TIP3    H253355   1.868   6.366  11.781  2.7295  1.9604 -0.3330
10622TIP3   OH253356   1.149   4.052   5.655 -0.4379 -0.3966 -0.7646
10622TIP3    H153357   1.113   4.113   5.590  0.3399  0.0125 -0.8146
10622TIP3    H253358   1.215   4.002   5.608  0.9392  0.6708 -0.0395
10623TIP3   OH253359   6.417   3.033  15.099 -0.7594  0.1559  0.0004
10623TIP3    H153360   6.400   3.023  15.193 -2.7267 -0.6731 -0.3825
10623TIP3    H253361   6.448   2.946  15.072  0.4637  0.5847 -0.0189
10624TIP3   OH253362   0.082   3.022   0.649 -0.4368  0.3870 -0.0260
10624TIP3    H153363   0.006   3.036   0.593 -0.7554  0.3045  0.3791
10624TIP3    H253364   0.051   3.044   0.737  0.0403  0.4611  0.1283
10625TIP3   OH253365   3.553   3.977   3.469 -0.2659 -0.0939  1.0227
10625TIP3    H153366   3.647   3.992   3.482 -0.0194 -1.6126  1.1491
10625TIP3    H253367   3.548   3.921   3.391 -1.0751 -0.0239  1.0116
10626TIP3   OH253368   3.229   3.822  13.730 -0.4253  0.3977  0.3572
10626TIP3    H153369   3.243   3.732  13.703 -1.3045  0.6331 -1.0132
10626TIP3    H253370   3.243   3.873  13.650 -0.1003  1.4595  1.0733
10627TIP3   OH253371   6.217   4.364   2.851  0.0442 -0.0442 -0.2016
10627TIP3    H153372   6.160   4.391   2.778  1.1507 -1.4422 -1.6582
10627TIP3    H253373   6.299   4.411   2.837  0.2986 -0.3968  0.0885
10628TIP3   OH253374   6.010   0.659   4.938 -0.4095  0.2694  0.0096
10628TIP3    H153375   5.973   0.571   4.927 -1.7951  0.4204  2.7165
10628TIP3    H253376   6.022   0.690   4.848 -0.0305 -2.5870 -1.0445
10629TIP3   OH253377   3.286   6.293  11.193  1.1346  0.3155 -0.2195
10629TIP3    H153378   3.262   6.310  11.102 -0.5918 -0.6452  0.0258
10629TIP3    H253379   3.205   6.307  11.242  1.5537 -1.1082  0.9267
10630TIP3   OH253380   5.573   3.140  13.909  0.0907 -0.3542 -0.1289
10630TIP3    H153381   5.622   3.109  13.833  0.4565 -0.4958  0.1647
10630TIP3    H253382   5.572   3.235  13.899 -1.4910 -0.4522 -1.3165
10631TIP3   OH253383   4.096   2.988   5.867 -0.0407  0.3660  0.3940
10631TIP3    H153384   4.137   3.045   5.932 -0.6340  1.1140  0.1280
10631TIP3    H253385   4.022   3.038   5.834 -0.8578 -0.7361  0.4707
10632TIP3   OH253386   4.186   4.831   5.696  1.4271 -0.2908  0.1525
10632TIP3    H153387   4.241   4.909   5.696  0.4532  0.4158  0.5852
10632TIP3    H253388   4.202   4.791   5.782  1.0120  0.0983  0.4118
10633TIP3   OH253389   3.771   6.063  16.299 -0.3531 -0.2950  0.4123
10633TIP3    H153390   3.837   6.031  16.237 -0.6847 -0.3471  0.0845
10633TIP3    H253391   3.822   6.110  16.366  0.0003 -0.1969  0.0782
10634TIP3   OH253392   0.760   0.881   2.037 -0.7718 -0.6301 -0.5381
10634TIP3    H153393   0.678   0.837   2.060 -0.3989 -1.3738 -0.5883
10634TIP3    H253394   0.753   0.898   1.943 -0.0929 -2.4517 -0.9627
10635TIP3   OH253395   2.976   2.061  16.023 -1.1628  0.2106  0.2799
10635TIP3    H153396   2.933   2.126  15.967 -2.0917 -0.3280  0.3426
10635TIP3    H253397   2.923   1.982  16.012 -0.7199 -0.2026  1.0875
10636TIP3   OH253398   6.024   4.188  11.970  0.2121 -0.3069 -0.3934
10636TIP3    H153399   6.019   4.234  11.886  0.5579  0.3868 -0.0410
10636TIP3    H253400   6.114   4.200  11.999  0.3601 -1.3575 -0.3679
10637TIP3   OH253401   2.801   2.924   3.795  0.1469  0.0818 -0.0086
10637TIP3    H153402   2.756   2.981   3.734  1.2642 -0.3337 -1.2771
10637TIP3    H253403   2.857   2.869   3.740  0.4618 -0.9837  1.3135
10638TIP3   OH253404   6.813   4.038  16.424 -0.1326  0.3818  0.4665
10638TIP3    H153405   6.808   4.090  16.344  2.2253  1.8606  1.1558
10638TIP3    H253406   6.897   3.993  16.417 -1.3218 -2.0202  0.7234
10639TIP3   OH253407   1.904   4.412   6.176  0.1108  0.2421 -0.4949
10639TIP3    H153408   1.815   4.394   6.206 -0.0311  1.9672  0.2001
10639TIP3    H253409   1.935   4.483   6.232  1.3779  0.7010 -1.7150
10640TIP3   OH253410   4.749   1.640   4.878 -0.3761  0.0667 -0.1467
10640TIP3    H153411   4.689   1.571   4.849  1.1242 -1.6945  0.7095
10640TIP3    H253412   4.836   1.605   4.861  0.4782  2.5029 -1.2341
10641TIP3   OH253413   6.243   0.247  12.383 -0.6640 -0.7294  0.1907
10641TIP3    H153414   6.318   0.254  12.442 -0.4394  2.4251 -0.3069
10641TIP3    H253415   6.264   0.172  12.327  1.3299 -0.9196  1.0961
10642TIP3   OH253416   2.033   3.399   0.310 -0.4999  0.4148 -0.0806
10642TIP3    H153417   2.029   3.450   0.229  0.6765  0.1071 -0.3488
10642TIP3    H253418   1.993   3.455   0.376  1.0133  1.8087 -0.3010
10643TIP3   OH253419   2.446   1.400   4.054 -0.0715  0.3046 -0.0090
10643TIP3    H153420   2.378   1.462   4.081  0.3474 -0.1937  2.3838
10643TIP3    H253421   2.506   1.452   4.000  0.8254  2.3348  2.7373
10644TIP3   OH253422   1.074   6.341   5.241 -0.1043 -0.2520  0.2878
10644TIP3    H153423   1.094   6.265   5.186  2.3446 -1.1824  2.2723
10644TIP3    H253424   0.997   6.315   5.291 -0.3645 -0.7146 -0.3520
10645TIP3   OH253425   0.093   3.370   2.326 -0.0100  0.3408 -0.1427
10645TIP3    H153426   0.008   3.341   2.357 -0.0081 -0.0973 -0.5413
10645TIP3    H253427   0.153   3.299   2.349  0.3353  0.8435  0.5478
10646TIP3   OH253428   0.562   5.781   4.726 -0.2238 -0.0302  0.7314
10646TIP3    H153429   0.553   5.763   4.632  3.1009  2.2281 -0.1676
10646TIP3    H253430   0.591   5.697   4.763  1.5777 -0.1734 -0.8716
10647TIP3   OH253431   1.369   4.479  13.402 -0.4080  0.4097  0.2419
10647TIP3    H153432   1.376   4.518  13.489 -0.2437  0.1696  0.3381
10647TIP3    H253433   1.281   4.440  13.401 -0.0998 -0.3127  0.6074
10648TIP3   OH253434   0.807   4.501   4.754 -0.6143  0.6803  0.0544
10648TIP3    H153435   0.880   4.446   4.727 -1.2303 -0.9605  1.5017
10648TIP3    H253436   0.847   4.578   4.794  0.2962  0.2138  0.0507
10649TIP3   OH253437   5.845   6.386  14.831  0.0291 -0.3570 -0.2027
10649TIP3    H153438   5.825   6.476  14.807 -0.8284  0.8172  4.1945
10649TIP3    H253439   5.771   6.335  14.797  0.1714  0.5782 -2.0763
10650TIP3   OH253440   0.982   6.565   2.592  0.0766  0.0071  0.0133
10650TIP3    H153441   0.980   6.661   2.600  0.5014 -0.0574  1.0041
10650TIP3    H253442   0.974   6.533   2.682  0.6687 -0.8772 -0.2306
10651TIP3   OH253443   0.721   2.930  15.610  0.0901 -0.1167 -0.2209
10651TIP3    H153444   0.660   2.892  15.673  0.4450 -0.0763  0.1445
10651TIP3    H253445   0.804   2.888  15.628  0.1628 -0.2232 -0.7679
10652TIP3   OH253446   6.666   2.478  15.006 -0.0438  0.0260  0.5352
10652TIP3    H153447   6.591   2.478  15.064 -0.8926  1.7554 -0.4801
10652TIP3    H253448   6.733   2.530  15.052 -1.0278  2.1746 -0.3045
10653TIP3   OH253449   3.848   1.572   3.841  1.0269  0.0735  0.2139
10653TIP3    H153450   3.896   1.633   3.898 -0.1214 -0.2560  1.5723
10653TIP3    H253451   3.794   1.629   3.786  1.6935  0.3650 -0.1599
10654TIP3   OH253452   3.994   2.291   2.502  1.2486  0.0387 -0.3033
10654TIP3    H153453   4.005   2.304   2.408  0.2644 -1.9492 -0.7648
10654TIP3    H253454   4.047   2.213   2.521  1.8744  0.7335  0.9237
10655TIP3   OH253455   2.923   2.769   2.504 -0.0110 -0.3086 -0.2382
10655TIP3    H153456   2.943   2.859   2.531  2.4389 -0.1891 -2.0736
10655TIP3    H253457   2.978   2.755   2.427 -0.7879 -3.2042 -0.3652
10656TIP3   OH253458   2.562   1.943  15.621 -0.0064  0.1527  0.3795
10656TIP3    H153459   2.618   2.017  15.597  0.3005 -0.5529 -1.2042
10656TIP3    H253460   2.601   1.868  15.577 -0.6866 -0.8435  1.4257
10657TIP3   OH253461   4.726   4.702   0.956  0.3556  0.0745  0.2984
10657TIP3    H153462   4.667   4.629   0.976  0.0112  0.0181 -0.8656
10657TIP3    H253463   4.802   4.660   0.915  0.8981  0.2233  1.1144
10658TIP3   OH253464   0.104   3.387  11.567  0.1859 -0.3064  0.4798
10658TIP3    H153465   0.096   3.325  11.495 -0.5750  0.2464  0.0665
10658TIP3    H253466   0.079   3.337  11.645 -2.2446 -0.0957 -0.0719
10659TIP3   OH253467   6.139   0.525   5.800  0.0058 -0.1026  0.2385
10659TIP3    H153468   6.160   0.617   5.782  0.0803 -0.3449 -0.9897
10659TIP3    H253469   6.120   0.523   5.894  1.6382  0.8549  0.6369
10660TIP3   OH253470   5.072   5.808   4.031  0.5123  0.6097  0.1953
10660TIP3    H153471   5.138   5.744   4.004 -0.1437 -0.3249  0.7461
10660TIP3    H253472   5.119   5.867   4.090  1.2777  1.0330 -0.8092
10661TIP3   OH253473   6.239   3.437   4.649  0.3055 -0.0611 -0.2562
10661TIP3    H153474   6.326   3.463   4.620  0.8454 -0.3900  1.0019
10661TIP3    H253475   6.254   3.384   4.728 -0.9719 -1.0281 -0.6168
10662TIP3   OH253476   4.231   4.902  16.908  0.0505 -0.1065 -0.0487
10662TIP3    H153477   4.186   4.944  16.835 -2.7609  0.5444  1.8904
10662TIP3    H253478   4.297   4.966  16.936 -1.4620  1.3602  0.3380
10663TIP3   OH253479   1.717   5.343   2.307 -0.3822 -0.1196 -0.3336
10663TIP3    H153480   1.637   5.392   2.290 -0.3690 -0.8589 -2.9826
10663TIP3    H253481   1.697   5.253   2.281  1.0776 -0.4731 -0.3594
10664TIP3   OH253482   0.600   4.195  14.205 -0.3478 -0.7411  0.3448
10664TIP3    H153483   0.568   4.181  14.116 -1.2161 -0.7839  0.6526
10664TIP3    H253484   0.554   4.130  14.257 -0.7109  0.0374  1.0073
10665TIP3   OH253485   3.667   1.698  15.064  0.0810 -0.0462 -0.0759
10665TIP3    H153486   3.603   1.659  15.005  1.3940  0.4360 -1.9342
10665TIP3    H253487   3.752   1.675  15.026  1.0308 -0.3433  2.0759
10666TIP3   OH253488   0.274   2.455  12.697 -0.2397 -0.1480  0.5694
10666TIP3    H153489   0.182   2.437  12.678  0.5990 -1.7768 -2.7701
10666TIP3    H253490   0.322   2.386  12.650  2.6969  0.5119  2.3627
10667TIP3   OH253491   2.160   1.341   2.421  0.4668 -0.3557 -0.2614
10667TIP3    H153492   2.103   1.270   2.450 -0.9434 -0.0063 -2.0423
10667TIP3    H253493   2.207   1.305   2.345  0.7588  0.1737 -0.3375
10668TIP3   OH253494   5.115   0.621   1.783 -0.3060  0.2088 -0.0061
10668TIP3    H153495   5.191   0.676   1.806  0.1104  0.0676 -0.9730
10668TIP3    H253496   5.047   0.646   1.845  1.2091 -1.2551  2.3826
10669TIP3   OH253497   3.584   3.798  16.198  0.3647 -0.2526  0.3917
10669TIP3    H153498   3.579   3.883  16.154  0.1597  0.6706  2.1142
10669TIP3    H253499   3.493   3.769  16.203  0.5398 -1.2168 -1.3168
10670TIP3   OH253500   3.805   1.753  14.527 -0.6516  0.1078  0.2573
10670TIP3    H153501   3.738   1.695  14.491 -0.5280  0.6339 -0.8849
10670TIP3    H253502   3.757   1.819  14.577 -0.8165 -0.7601  1.2591
10671TIP3   OH253503   3.043   3.548  13.960  0.2904  0.1150 -0.0518
10671TIP3    H153504   2.977   3.616  13.971  0.8683  0.5276  0.9951
10671TIP3    H253505   3.013   3.477  14.017 -0.2124 -0.4370 -0.9957
10672TIP3   OH253506   4.776   0.881  13.875 -0.0079 -0.0757  0.3005
10672TIP3    H153507   4.769   0.961  13.823 -0.9873 -1.1364 -1.3217
10672TIP3    H253508   4.732   0.901  13.957 -2.0508  0.4629 -0.8635
10673TIP3   OH253509   6.579   4.065   2.863  0.0219 -0.1787  0.2088
10673TIP3    H153510   6.512   4.095   2.802 -0.8447 -0.2901  1.0745
10673TIP3    H253511   6.617   3.988   2.821  1.1338  1.1237 -1.2747
10674TIP3   OH253512   3.264   2.030  13.643 -0.8349  0.6221  1.0078
10674TIP3    H153513   3.261   1.958  13.705 -0.3222 -1.0325 -0.7842
10674TIP3    H253514   3.330   2.089  13.679 -0.1329 -0.5680  1.7430
10675TIP3   OH253515   5.893   3.909  15.958 -0.6626 -0.1996  0.0854
10675TIP3    H153516   5.975   3.889  15.913 -0.5666  0.1105  0.1185
10675TIP3    H253517   5.894   3.854  16.036  0.1859  0.8340  0.8338
10676TIP3   OH253518   2.315   0.759   4.768 -0.0719 -0.0322  0.1568
10676TIP3    H153519   2.386   0.704   4.800  0.0040 -0.8811 -1.3960
10676TIP3    H253520   2.251   0.698   4.731 -0.8769  0.8108  0.1015
10677TIP3   OH253521   4.942   4.102   5.837  0.6593 -0.3899 -0.5435
10677TIP3    H153522   4.847   4.094   5.829  0.4534  0.4310  0.7486
10677TIP3    H253523   4.968   4.026   5.889  0.8207 -0.9825 -1.4642
10678TIP3   OH253524   4.047   2.470   3.029 -0.5880  0.1055 -0.1526
10678TIP3    H153525   4.111   2.523   2.981  0.5879 -0.0782  1.1686
10678TIP3    H253526   4.014   2.408   2.964 -1.6231  2.0548 -1.6186
10679TIP3   OH253527   5.925   1.552   3.067  0.4099  0.0738  0.3416
10679TIP3    H153528   5.927   1.638   3.025  1.5200  0.7269  1.6665
10679TIP3    H253529   5.984   1.560   3.141  0.6272 -1.8877  0.4256
10680TIP3   OH253530   4.404   2.113   3.503 -0.0865 -0.3557  0.0861
10680TIP3    H153531   4.373   2.140   3.417 -2.7387 -1.7352  0.5112
10680TIP3    H253532   4.353   2.167   3.564 -1.6094 -2.4589  0.8102
10681TIP3   OH253533   5.270   2.327   5.657 -0.1649 -0.7333 -0.3331
10681TIP3    H153534   5.183   2.357   5.682  0.1395  0.8227 -1.0106
10681TIP3    H253535   5.330   2.376   5.714  0.3124 -0.7227 -0.8283
10682TIP3   OH253536   4.667   3.078  14.658 -0.3522  0.0393 -0.1011
10682TIP3    H153537   4.618   3.129  14.722  0.5280  0.7389  0.0429
10682TIP3    H253538   4.628   3.100  14.573 -0.5010  0.3199  0.0412
10683TIP3   OH253539   1.267   3.125  12.166  0.0440  0.4879  0.1354
10683TIP3    H153540   1.284   3.141  12.073  1.9627 -1.3258  0.1050
10683TIP3    H253541   1.181   3.084  12.169  0.2450 -0.0328 -0.9269
10684TIP3   OH253542   0.723   4.603   0.816 -0.3546 -0.1160 -0.1731
10684TIP3    H153543   0.743   4.549   0.893  1.6050  4.0042  2.5725
10684TIP3    H253544   0.808   4.617   0.774 -1.0232 -0.1470 -1.5910
10685TIP3   OH253545   0.794   3.910   4.690  0.5802 -0.2143 -0.6488
10685TIP3    H153546   0.711   3.935   4.732 -0.4564  0.2947 -2.8611
10685TIP3    H253547   0.853   3.893   4.763 -1.2894  0.0018  1.0107
10686TIP3   OH253548   0.686   0.177  11.337 -0.0162  0.0036  0.2624
10686TIP3    H153549   0.595   0.154  11.317 -0.7496  2.1037  0.8343
10686TIP3    H253550   0.732   0.166  11.254 -0.7552 -1.2467 -0.0011
10687TIP3   OH253551   4.382   2.563   4.788  0.3407  0.1902  1.2084
10687TIP3    H153552   4.383   2.605   4.703  1.0919 -0.4038  0.9160
10687TIP3    H253553   4.432   2.482   4.776 -0.9875 -0.7512  1.7731
10688TIP3   OH253554   2.972   2.790   3.156 -0.4636 -0.4521  0.0743
10688TIP3    H153555   3.005   2.879   3.149  0.6583 -0.9536 -1.5860
10688TIP3    H253556   2.909   2.793   3.228 -0.2064  1.5891  0.2586
10689TIP3   OH253557   1.835   0.555  15.282  0.0167 -0.4569  0.0572
10689TIP3    H153558   1.745   0.535  15.305 -0.0722 -2.1369 -1.5261
10689TIP3    H253559   1.878   0.573  15.365 -1.9209  1.1571  0.7804
10690TIP3   OH253560   1.321   4.930   2.962 -0.8055  0.4296 -0.4734
10690TIP3    H153561   1.384   4.901   2.895  0.0918  0.4820  0.3369
10690TIP3    H253562   1.239   4.888   2.936  0.3313 -2.6166  0.4125
10691TIP3   OH253563   6.483   6.545  15.953 -0.4053  0.2623 -0.4139
10691TIP3    H153564   6.462   6.458  15.919 -1.1478 -0.3230  1.4046
10691TIP3    H253565   6.578   6.553  15.944 -0.4573 -0.2925 -1.5707
10692TIP3   OH253566   6.687   4.905   0.570  0.0461  0.7586  0.2446
10692TIP3    H153567   6.751   4.957   0.521 -0.4661  1.3145  0.1550
10692TIP3    H253568   6.694   4.938   0.660  2.2286 -1.4320  0.9994
10693TIP3   OH253569   1.653   5.466  15.543 -0.0555  0.5668  0.2844
10693TIP3    H153570   1.666   5.371  15.552  0.7295  0.4437 -1.6864
10693TIP3    H253571   1.653   5.498  15.633  1.5638 -1.0685  0.9359
10694TIP3   OH253572   4.279   6.321   2.193 -0.4748 -0.5004  0.6108
10694TIP3    H153573   4.265   6.249   2.131  0.3757  0.0886 -0.3029
10694TIP3    H253574   4.365   6.305   2.230  0.4472  0.8804 -0.8147
10695TIP3   OH253575   5.720   5.454  15.856  0.0875 -0.2674 -0.4671
10695TIP3    H153576   5.761   5.437  15.772  0.6699  1.1048 -0.5006
10695TIP3    H253577   5.767   5.398  15.918 -0.3960 -1.3355 -1.0569
10696TIP3   OH253578   0.167   3.767  13.896  0.0619  0.0490  0.2377
10696TIP3    H153579   0.237   3.795  13.956 -0.1989 -3.1705  2.2668
10696TIP3    H253580   0.089   3.761  13.950 -1.4388  1.5852 -1.5708
10697TIP3   OH253581   4.613   3.918  13.710 -0.0604  0.2815  0.1206
10697TIP3    H153582   4.662   3.856  13.656 -1.3836  0.8163 -1.7792
10697TIP3    H253583   4.632   4.004  13.672 -2.8226  0.4627 -1.0429
10698TIP3   OH253584   5.950   2.681   5.566  0.2237  0.4575  0.2770
10698TIP3    H153585   5.955   2.776   5.571  1.2941  0.5574 -1.6107
10698TIP3    H253586   6.021   2.656   5.506 -0.2942 -1.4908  0.3931
10699TIP3   OH253587   5.331   1.290  11.858 -0.2484  0.0836  0.0053
10699TIP3    H153588   5.375   1.372  11.879  1.9037 -0.3748 -2.2155
10699TIP3    H253589   5.332   1.240  11.940 -0.3321  1.6873  1.0242
10700TIP3   OH253590   5.540   5.034   2.398 -0.5265  0.7627  0.1137
10700TIP3    H153591   5.482   5.092   2.348  0.5254  0.9438 -0.9619
10700TIP3    H253592   5.567   5.086   2.473 -1.6485  0.7187  0.5592
10701TIP3   OH253593   2.159   6.511  13.147  0.1494 -0.5064 -1.0255
10701TIP3    H153594   2.106   6.566  13.089 -1.2123 -0.2697  0.3848
10701TIP3    H253595   2.225   6.570  13.182  1.0694 -0.6822 -2.4049
10702TIP3   OH253596   5.680   2.618  12.140 -0.3211 -0.6247  0.4290
10702TIP3    H153597   5.618   2.646  12.072 -0.0021  1.6256  0.9865
10702TIP3    H253598   5.727   2.698  12.163  2.3654 -2.1245  0.5044
10703TIP3   OH253599   5.255   4.545   3.731  0.0287 -0.8369  0.3166
10703TIP3    H153600   5.258   4.602   3.808 -1.2251 -0.3588  0.0316
10703TIP3    H253601   5.274   4.457   3.765 -2.5712 -1.0166  1.5966
10704TIP3   OH253602   2.512   4.148   0.682 -0.1850  0.2206 -0.3205
10704TIP3    H153603   2.419   4.141   0.659 -0.5583  0.3035  1.0676
10704TIP3    H253604   2.517   4.224   0.740  1.3028  2.2648 -2.8886
10705TIP3   OH253605   5.454   2.681   4.505 -0.0057 -0.1759 -0.7133
10705TIP3    H153606   5.513   2.756   4.510  0.1253 -0.2353 -1.2845
10705TIP3    H253607   5.400   2.688   4.584  0.6911 -0.0643 -0.2275
10706TIP3   OH253608   4.951   2.950   2.243  0.1546 -0.2911 -0.1624
10706TIP3    H153609   4.944   3.039   2.210 -0.3459 -0.1826  0.2273
10706TIP3    H253610   5.044   2.928   2.232  0.0063 -0.2937 -1.6955
10707TIP3   OH253611   5.145   1.517   2.034  0.2978  0.2351  0.1207
10707TIP3    H153612   5.194   1.507   2.115  1.4764  0.8915 -0.4912
10707TIP3    H253613   5.147   1.430   1.994 -0.2967 -0.0955  0.7739
10708TIP3   OH253614   6.117   1.961   4.076  0.0569 -0.1530 -0.3201
10708TIP3    H153615   6.162   2.000   4.001 -0.5638  0.2499 -0.4869
10708TIP3    H253616   6.136   1.867   4.070  0.1510 -0.0997 -0.8747
10709TIP3   OH253617   5.367   2.269   5.407  0.0062 -0.0978  0.4105
10709TIP3    H153618   5.338   2.256   5.498  0.0625  1.9412  0.7805
10709TIP3    H253619   5.461   2.287   5.415 -0.3060  1.8502  0.1870
10710TIP3   OH253620   2.733   1.345   6.399  0.1156  0.0329 -0.5714
10710TIP3    H153621   2.734   1.257   6.362  0.7417 -0.1414 -0.1706
10710TIP3    H253622   2.646   1.354   6.438  0.7214 -1.2076  1.1853
10711TIP3   OH253623   3.369   4.400  14.117  0.7938  0.5370  0.4711
10711TIP3    H153624   3.398   4.352  14.194 -1.5417  1.3004  1.9481
10711TIP3    H253625   3.408   4.487  14.127  0.2506  0.7297  0.9999
10712TIP3   OH253626   1.407   2.935  15.528 -0.0154 -0.3411 -0.2931
10712TIP3    H153627   1.499   2.910  15.534 -0.1442 -0.7720 -0.0988
10712TIP3    H253628   1.368   2.907  15.611 -0.1881  0.4044 -0.1145
10713TIP3   OH253629   3.134   1.471  11.949 -0.1355 -0.1540 -0.4529
10713TIP3    H153630   3.230   1.467  11.941 -0.0204  0.7796  0.3588
10713TIP3    H253631   3.105   1.381  11.933  0.8134 -0.2954 -1.4689
10714TIP3   OH253632   3.996   4.015  14.688 -0.2281 -0.2044 -0.1191
10714TIP3    H153633   3.982   4.097  14.639  1.1883 -0.1153 -0.4111
10714TIP3    H253634   3.974   4.038  14.779 -0.6501  0.2697 -0.3349
10715TIP3   OH253635   6.006   0.455  14.678  0.4093  0.0249 -0.2258
10715TIP3    H153636   5.960   0.464  14.594 -0.4446 -1.7630 -0.0080
10715TIP3    H253637   5.992   0.539  14.722 -0.4302  0.4473 -1.2477
10716TIP3   OH253638   2.632   1.926  11.368  0.3637 -0.7024 -0.1691
10716TIP3    H153639   2.687   1.901  11.294  1.3498 -0.4011  0.4443
10716TIP3    H253640   2.562   1.979  11.329  2.1066  1.3617 -0.6630
10717TIP3   OH253641   4.672   5.805   5.211  0.1912  0.0608  0.5810
10717TIP3    H153642   4.648   5.713   5.204 -1.1365  0.3557  0.9910
10717TIP3    H253643   4.589   5.852   5.203  0.8518  1.2274  0.3589
10718TIP3   OH253644   4.727   3.564   3.836 -0.2726 -0.4195  0.3203
10718TIP3    H153645   4.751   3.588   3.747  1.8358  2.1316  1.4100
10718TIP3    H253646   4.638   3.598   3.847  0.5030  1.9566 -0.0429
10719TIP3   OH253647   1.666   3.611  14.995  0.7407 -0.3595  0.1419
10719TIP3    H153648   1.691   3.602  14.903 -2.3335  4.2844 -1.5290
10719TIP3    H253649   1.586   3.561  15.004 -1.2004  2.2612 -1.1197
10720TIP3   OH253650   2.208   6.136   3.487 -0.6373 -0.1715 -0.5669
10720TIP3    H153651   2.208   6.222   3.529  0.2391 -0.0426 -0.8067
10720TIP3    H253652   2.116   6.111   3.484 -0.7367 -0.1796  1.3910
10721TIP3   OH253653   6.214   6.000   4.807  0.6333  0.2268 -0.4005
10721TIP3    H153654   6.204   5.905   4.805  0.2622  0.2428  0.3901
10721TIP3    H253655   6.167   6.028   4.886 -2.1732  1.4403 -2.3680
10722TIP3   OH253656   2.065   5.502  13.788  0.6816 -0.5899  0.1481
10722TIP3    H153657   2.028   5.422  13.750 -0.4271 -0.4334  0.8349
10722TIP3    H253658   2.076   5.561  13.713  0.8935 -1.1527 -0.2736
10723TIP3   OH253659   2.378   4.867   5.595  0.7032  0.4169  0.3975
10723TIP3    H153660   2.373   4.956   5.561  0.2804  0.4631  0.5779
10723TIP3    H253661   2.373   4.877   5.690 -0.3457  0.1285  0.3760
10724TIP3   OH253662   0.895   4.643  14.094 -0.1129  0.1720  0.3931
10724TIP3    H153663   0.853   4.559  14.109  0.2821 -0.3960 -1.4694
10724TIP3    H253664   0.966   4.647  14.158  0.1589 -1.1320  0.1830
10725TIP3   OH253665   6.329   2.638  14.529 -0.1710  0.2020  0.8219
10725TIP3    H153666   6.381   2.718  14.526  1.9182 -1.0481  1.2462
10725TIP3    H253667   6.384   2.576  14.578 -1.6733 -1.5113  0.4486
10726TIP3   OH253668   1.593   5.151   6.392 -0.7817  0.1185 -0.0252
10726TIP3    H153669   1.627   5.235   6.424 -1.7834  0.3939  0.3300
10726TIP3    H253670   1.499   5.155   6.409 -0.7648 -1.2912  0.4518
10727TIP3   OH253671   3.572   3.556   2.459  0.6742  0.2851 -0.2198
10727TIP3    H153672   3.544   3.551   2.367 -1.6596  2.2212  0.2806
10727TIP3    H253673   3.491   3.545   2.509  1.8217 -0.2612  1.6386
10728TIP3   OH253674   5.477   5.323  11.224 -0.3286  0.3186  0.1571
10728TIP3    H153675   5.413   5.394  11.228 -1.0861 -0.3779  0.4047
10728TIP3    H253676   5.544   5.355  11.162 -1.1561  0.8384 -0.4881
10729TIP3   OH253677   0.530   1.853  13.740  0.0381 -0.5362 -0.2835
10729TIP3    H153678   0.456   1.812  13.693 -0.8284  0.3482  0.2693
10729TIP3    H253679   0.504   1.850  13.832 -0.0635  1.2328 -0.2271
10730TIP3   OH253680   5.651   4.368   6.352  0.3098  0.4336  0.4564
10730TIP3    H153681   5.565   4.378   6.311  0.2552 -1.5016 -0.0293
10730TIP3    H253682   5.636   4.391   6.444 -1.2716 -1.7453  0.8412
10731TIP3   OH253683   2.737   2.631  11.396  0.2399 -0.0005 -0.2333
10731TIP3    H153684   2.687   2.583  11.462  1.2865 -2.2306 -0.9735
10731TIP3    H253685   2.717   2.723  11.413 -0.7654 -0.5918  2.1516
10732TIP3   OH253686   3.300   3.928  16.363 -0.2868  0.2659 -0.1546
10732TIP3    H153687   3.303   3.840  16.328  1.2195  0.5943 -0.8879
10732TIP3    H253688   3.306   3.916  16.458  0.7132 -0.3798 -0.2943
10733TIP3   OH253689   2.149   5.935  13.035 -0.3091 -0.3530  0.0910
10733TIP3    H153690   2.189   5.926  13.121  0.7082 -2.3693 -0.5099
10733TIP3    H253691   2.059   5.964  13.052  0.7158  2.2644  1.6077
10734TIP3   OH253692   1.008   2.394  11.244 -0.1095  0.7373 -0.5574
10734TIP3    H153693   1.005   2.400  11.148 -1.9364 -1.1925 -0.6795
10734TIP3    H253694   0.916   2.383  11.270  0.4167  0.6595  1.3906
10735TIP3   OH253695   2.322   1.335   1.470 -0.3157  0.1096  0.3639
10735TIP3    H153696   2.288   1.385   1.544  1.2758  2.2788 -0.2793
10735TIP3    H253697   2.319   1.396   1.396 -1.7228 -1.9413 -1.3887
10736TIP3   OH253698   5.364   0.242   2.729  0.6885  0.2161 -0.0884
10736TIP3    H153699   5.385   0.299   2.803 -0.4049 -1.3489  1.5285
10736TIP3    H253700   5.291   0.285   2.685 -0.3343 -0.0209  1.2995
10737TIP3   OH253701   6.823   1.166   4.337 -0.1655  0.1738 -0.3747
10737TIP3    H153702   6.902   1.146   4.388 -1.0741  0.2436  1.1237
10737TIP3    H253703   6.813   1.091   4.278  0.4606 -0.3145  0.1241
10738TIP3   OH253704   3.017   5.364   5.211 -0.0016 -0.4043  0.3846
10738TIP3    H153705   2.948   5.330   5.268  0.7908 -1.4721  0.7384
10738TIP3    H253706   3.094   5.312   5.233  0.8154  0.4843 -0.2998
10739TIP3   OH253707   4.990   6.791  12.924  0.0949  0.0770  0.6594
10739TIP3    H153708   4.944   6.764  12.845 -1.3977  0.8460  1.2423
10739TIP3    H253709   4.966   6.726  12.990  1.9479 -1.0139  0.3413
10740TIP3   OH253710   5.587   1.229  15.206  0.0508 -0.5115 -0.2957
10740TIP3    H153711   5.530   1.166  15.249 -0.1608 -0.3865 -0.3897
10740TIP3    H253712   5.547   1.314  15.225  1.6161 -0.1721  1.8520
10741TIP3   OH253713   4.809   5.970  11.229  0.0696  0.5593  0.0359
10741TIP3    H153714   4.829   6.041  11.167  2.7948  0.8224  1.0908
10741TIP3    H253715   4.805   6.014  11.314 -1.0453 -0.1833  0.3862
10742TIP3   OH253716   4.018   4.003  11.513 -0.5682  0.7259  0.2659
10742TIP3    H153717   4.082   4.073  11.496  0.4931  0.0679  1.3551
10742TIP3    H253718   4.066   3.922  11.495 -1.4145  0.2440  0.1612
10743TIP3   OH253719   1.057   3.796   1.004  0.1607  0.2859 -0.0326
10743TIP3    H153720   1.110   3.875   1.005 -0.5944  0.7990  0.4440
10743TIP3    H253721   1.031   3.784   1.095 -1.6113  0.7845 -0.4468
10744TIP3   OH253722   4.206   5.142   3.708  0.0565  0.1541 -0.7332
10744TIP3    H153723   4.193   5.186   3.624 -0.6120 -1.2517 -1.4058
10744TIP3    H253724   4.289   5.095   3.699  0.3937  0.6461 -0.2918
10745TIP3   OH253725   5.724   3.268  15.477  0.0193 -0.4951  0.3730
10745TIP3    H153726   5.783   3.229  15.543  0.8330 -0.2947 -0.2201
10745TIP3    H253727   5.778   3.333  15.432 -1.2538  1.1948  1.1851
10746TIP3   OH253728   5.056   5.272  13.750  0.6541 -0.6252 -0.1914
10746TIP3    H153729   5.037   5.187  13.711  0.8770 -0.9212  0.3483
10746TIP3    H253730   4.971   5.316  13.754  0.1187 -1.7366  1.7149
10747TIP3   OH253731   0.221   0.299   0.682  0.2903 -0.7765 -0.2651
10747TIP3    H153732   0.224   0.303   0.586 -1.0226  0.2225 -0.2811
10747TIP3    H253733   0.128   0.300   0.703  0.5699  1.7044  1.1050
10748TIP3   OH253734   0.233   5.276  15.132  0.3357  0.3841  0.0249
10748TIP3    H153735   0.145   5.307  15.109 -0.9016  0.3386  3.9326
10748TIP3    H253736   0.225   5.181  15.138  0.4009  0.4366  1.1399
10749TIP3   OH253737   1.855   4.950   0.572 -0.1697 -0.3350 -0.1297
10749TIP3    H153738   1.793   4.998   0.626 -0.3030 -0.9715  0.2857
10749TIP3    H253739   1.817   4.951   0.484  0.0651  0.7270 -0.2324
10750TIP3   OH253740   5.276   2.680  11.083  0.0995  0.0603  0.2462
10750TIP3    H153741   5.258   2.773  11.098  1.4693  0.9503 -2.8053
10750TIP3    H253742   5.315   2.650  11.165 -2.1438  1.6240  1.9828
10751TIP3   OH253743   3.779   5.857   3.057  0.0624  0.3049  0.3019
10751TIP3    H153744   3.734   5.884   2.977 -0.1509 -0.7695  0.0489
10751TIP3    H253745   3.762   5.929   3.119  2.4905  2.5149 -1.3780
10752TIP3   OH253746   4.805   5.484  14.821  0.0717 -0.3093 -0.3109
10752TIP3    H153747   4.732   5.478  14.760 -0.0476 -0.5075 -0.1528
10752TIP3    H253748   4.799   5.404  14.873  0.6788 -0.5507 -0.6032
10753TIP3   OH253749   4.362   4.613  12.845  0.1334  0.0762  0.4042
10753TIP3    H153750   4.440   4.557  12.836  0.1676  0.5001 -3.2426
10753TIP3    H253751   4.396   4.697  12.874  0.8989 -0.1115  0.0814
10754TIP3   OH253752   1.127   3.640  14.509 -0.0323 -0.3231 -0.3002
10754TIP3    H153753   1.157   3.597  14.589  0.7410  2.0851  0.8245
10754TIP3    H253754   1.173   3.596  14.439  1.5302 -0.6563  0.8726
10755TIP3   OH253755   5.719   6.502   2.359  0.1563 -0.0717  0.0131
10755TIP3    H153756   5.800   6.476   2.402  0.4678 -1.1575 -1.1742
10755TIP3    H253757   5.744   6.520   2.269 -0.9534 -0.7591 -0.4610
10756TIP3   OH253758   0.406   4.284   4.571 -0.9037  0.3400 -0.1423
10756TIP3    H153759   0.343   4.327   4.512 -2.4477 -0.3560  0.9128
10756TIP3    H253760   0.355   4.268   4.651  0.2873 -1.3394  0.3270
10757TIP3   OH253761   3.951   3.519   4.479 -0.1344  0.0956 -0.4243
10757TIP3    H153762   3.938   3.575   4.556 -2.0828 -0.3738 -0.3669
10757TIP3    H253763   4.030   3.468   4.500  0.5937  1.4677  0.3206
10758TIP3   OH253764   1.995   5.485   0.529  0.0657 -0.4849 -0.0849
10758TIP3    H153765   2.053   5.516   0.599  0.5277  0.7523 -0.9625
10758TIP3    H253766   2.050   5.426   0.478 -0.2790 -1.4079  0.5866
10759TIP3   OH253767   1.570   6.028  10.966 -0.0281 -0.4064  0.2630
10759TIP3    H153768   1.551   6.048  10.875 -1.0645 -1.0746  0.3180
10759TIP3    H253769   1.656   6.068  10.982  0.2120 -0.3705 -1.0197
10760TIP3   OH253770   4.267   4.839   1.460  0.1985 -0.6470  0.3000
10760TIP3    H153771   4.306   4.863   1.545  1.0005 -2.1719  0.3984
10760TIP3    H253772   4.174   4.854   1.471  0.4489  0.5472  0.9642
10761TIP3   OH253773   3.556   5.046   1.889 -0.3079  0.3679  0.4822
10761TIP3    H153774   3.577   5.069   1.980 -0.2011  1.2930  0.2236
10761TIP3    H253775   3.494   4.973   1.898 -0.8536  0.9099  1.3122
10762TIP3   OH253776   0.127   4.904  12.248 -0.0686 -0.1982  0.1268
10762TIP3    H153777   0.164   4.952  12.175 -0.2350 -0.7314 -0.3163
10762TIP3    H253778   0.043   4.946  12.265  0.3037  0.4047  0.5096
10763TIP3   OH253779   4.007   1.341   1.889 -0.0163  0.0621  0.2237
10763TIP3    H153780   3.923   1.298   1.900 -1.4686  2.4773 -0.6262
10763TIP3    H253781   4.002   1.382   1.803  1.5092  1.3706  0.7045
10764TIP3   OH253782   5.634   1.872   2.710 -0.0298 -0.2981  0.0000
10764TIP3    H153783   5.687   1.938   2.666  1.0721 -0.2861  1.2617
10764TIP3    H253784   5.568   1.847   2.646  0.6700  0.6850 -1.1469
10765TIP3   OH253785   1.962   2.945  12.067 -0.0843 -0.1104  0.5476
10765TIP3    H153786   2.012   2.950  12.148 -0.5734  1.2413  0.7996
10765TIP3    H253787   1.876   2.912  12.093 -0.1386  0.0135  0.5267
10766TIP3   OH253788   2.382   4.085   4.026  0.1153  0.0688 -0.3677
10766TIP3    H153789   2.390   4.117   3.936  2.0197  0.9459  0.0683
10766TIP3    H253790   2.357   4.162   4.077 -0.0259 -0.2211  0.0052
10767TIP3   OH253791   6.351   2.837  11.818 -0.5366  0.0651 -0.2485
10767TIP3    H153792   6.358   2.759  11.763 -1.7175  0.4910 -1.0294
10767TIP3    H253793   6.302   2.900  11.765 -1.7339  0.4868  1.2835
10768TIP3   OH253794   4.927   2.251   4.221  0.2222 -0.2988 -0.3079
10768TIP3    H153795   4.972   2.302   4.153 -0.2510 -0.8906 -1.0764
10768TIP3    H253796   4.842   2.294   4.230 -0.2524 -1.0550 -1.0946
10769TIP3   OH253797   4.563   4.809  11.773  0.6950  0.5259 -1.2511
10769TIP3    H153798   4.544   4.862  11.850 -1.2391 -0.1405 -1.2214
10769TIP3    H253799   4.615   4.736  11.807  0.2611  0.4862 -0.6552
10770TIP3   OH253800   5.554   1.464  14.347  0.6829  0.3560  0.7040
10770TIP3    H153801   5.640   1.444  14.385  1.0599 -0.3485 -0.4540
10770TIP3    H253802   5.531   1.385  14.298  0.2547  1.2428 -0.5738
10771TIP3   OH253803   5.257   1.585  13.866  0.2349  0.5510  0.5360
10771TIP3    H153804   5.191   1.651  13.886  1.0123  1.0531  1.5850
10771TIP3    H253805   5.340   1.625  13.894  0.7698 -0.7064  0.8395
10772TIP3   OH253806   0.805   0.492  14.281  0.0691  0.4779  0.5692
10772TIP3    H153807   0.828   0.578  14.316  0.2744  1.0806 -0.9882
10772TIP3    H253808   0.710   0.487  14.288 -0.2241  1.9154 -1.6426
10773TIP3   OH253809   6.737   5.211  14.095  0.6546 -0.0360 -0.5266
10773TIP3    H153810   6.699   5.293  14.126  1.9964  0.1398  0.7298
10773TIP3    H253811   6.687   5.143  14.141  0.8007  0.1371 -0.1125
10774TIP3   OH253812   1.498   6.615  13.494  0.2320 -0.4118  0.5132
10774TIP3    H153813   1.539   6.549  13.438  2.0212  1.2242 -0.2048
10774TIP3    H253814   1.452   6.673  13.434  0.2034  0.0295  0.9515
10775TIP3   OH253815   0.489   4.861  17.103  0.3185  0.2182 -0.4735
10775TIP3    H153816   0.420   4.927  17.110  0.1246 -0.1235  1.4132
10775TIP3    H253817   0.524   4.872  17.014  0.0140  2.5540 -0.3692
10776TIP3   OH253818   0.124   2.716   0.658 -0.2951  0.6274  0.3133
10776TIP3    H153819   0.082   2.798   0.629  0.2065  0.7060 -0.2124
10776TIP3    H253820   0.085   2.698   0.743 -1.7860  0.4185 -0.3733
10777TIP3   OH253821   4.233   5.097   5.646 -0.0245 -0.3998 -0.7515
10777TIP3    H153822   4.184   5.078   5.726  1.0065 -2.5748 -0.5559
10777TIP3    H253823   4.305   5.153   5.675  0.6249 -1.5731 -0.0201
10778TIP3   OH253824   2.406   0.519   2.226 -0.0453 -0.4157 -0.2552
10778TIP3    H153825   2.331   0.506   2.284  1.1975 -0.8280  1.2952
10778TIP3    H253826   2.390   0.606   2.187 -0.9834 -0.2048  0.5528
10779TIP3   OH253827   4.809   5.165  15.983 -0.4017 -0.2370 -0.0885
10779TIP3    H153828   4.804   5.161  15.887 -2.0018 -0.2098 -0.0321
10779TIP3    H253829   4.731   5.119  16.013  0.9829 -1.8636  1.2767
10780TIP3   OH253830   0.806   3.659  11.262 -0.4116 -0.3743  0.2384
10780TIP3    H153831   0.762   3.574  11.269 -1.7651  0.2667 -0.3059
10780TIP3    H253832   0.735   3.723  11.261  0.5928  0.7760  0.5959
10781TIP3   OH253833   6.774   4.824   4.526 -0.1480  0.0379 -0.2691
10781TIP3    H153834   6.797   4.746   4.476  0.9143  0.7858 -1.0170
10781TIP3    H253835   6.856   4.850   4.569 -0.0327  1.6271 -1.3367
10782TIP3   OH253836   1.828   1.334   1.135  0.4600 -0.3170 -0.1509
10782TIP3    H153837   1.751   1.277   1.125  1.3868 -1.5825 -0.2638
10782TIP3    H253838   1.838   1.344   1.230 -1.4928  2.2200 -0.1053
10783TIP3   OH253839   2.275   3.066   4.384 -0.2742  0.0598  0.1612
10783TIP3    H153840   2.266   3.119   4.463 -2.0205 -0.5574  0.4091
10783TIP3    H253841   2.230   2.984   4.404 -1.6672  0.2671 -1.7919
10784TIP3   OH253842   4.116   1.032   4.527 -0.0439  0.1399 -0.2798
10784TIP3    H153843   4.125   1.041   4.432  0.3426 -1.9376 -0.4821
10784TIP3    H253844   4.142   1.118   4.561  1.5744  0.4042 -1.9749
10785TIP3   OH253845   0.112   3.224   3.015 -0.3676  0.0651  0.0694
10785TIP3    H153846   0.110   3.316   3.043  0.2940 -0.1047  0.6833
10785TIP3    H253847   0.083   3.175   3.092  0.4287 -0.3254  0.1257
10786TIP3   OH253848   4.567   4.917  12.506 -0.0905  0.2756  0.2354
10786TIP3    H153849   4.496   4.856  12.484 -0.1962  1.0704 -1.9008
10786TIP3    H253850   4.622   4.918  12.428  1.6721  0.5567  1.4185
10787TIP3   OH253851   6.650   1.414   0.630  0.2229  0.0646 -0.0382
10787TIP3    H153852   6.673   1.348   0.564  1.0984 -0.6453  0.9556
10787TIP3    H253853   6.574   1.378   0.675  0.6482 -0.2373  0.4470
10788TIP3   OH253854   3.671   1.159  13.568  0.0477 -0.4230  0.4420
10788TIP3    H153855   3.748   1.201  13.604  0.0028 -0.7393  0.9107
10788TIP3    H253856   3.703   1.075  13.535 -0.2373 -0.8960  1.3517
10789TIP3   OH253857   3.705   6.078  12.901  0.1780 -0.5718 -0.1809
10789TIP3    H153858   3.630   6.066  12.843  1.1084 -1.3936 -1.2663
10789TIP3    H253859   3.674   6.046  12.986 -0.8738 -0.3492 -0.4591
10790TIP3   OH253860   6.645   0.502   6.537 -0.8115  0.3058 -0.1877
10790TIP3    H153861   6.663   0.569   6.602  0.6895  1.9640 -2.1711
10790TIP3    H253862   6.705   0.431   6.559  0.6666  1.4103 -0.4974
10791TIP3   OH253863   6.300   6.293  13.634 -0.0540  0.0937  0.5359
10791TIP3    H153864   6.341   6.377  13.654 -1.0792  0.4617  1.1893
10791TIP3    H253865   6.252   6.269  13.714 -2.9280  0.8044 -0.8275
10792TIP3   OH253866   3.275   0.623   4.326  0.0689  0.3791  0.3132
10792TIP3    H153867   3.353   0.669   4.295  0.3458 -0.4643 -0.2708
10792TIP3    H253868   3.304   0.579   4.406  0.1564  0.1787  0.1719
10793TIP3   OH253869   3.206   3.601   3.124 -0.5550 -0.1849 -0.0713
10793TIP3    H153870   3.243   3.516   3.101 -2.6467 -1.4871  0.9353
10793TIP3    H253871   3.175   3.637   3.042  3.1404  1.1904 -1.0275
10794TIP3   OH253872   3.169   2.750   4.752 -0.0358  0.3350 -0.5084
10794TIP3    H153873   3.133   2.724   4.667 -2.4707  0.1859  0.4910
10794TIP3    H253874   3.230   2.821   4.731  0.8650 -0.9195 -2.5235
10795TIP3   OH253875   4.844   4.858   4.526  0.6688  0.5922 -0.1449
10795TIP3    H153876   4.845   4.926   4.593 -4.3916  1.9794 -1.0909
10795TIP3    H253877   4.829   4.905   4.444  1.6440 -1.4406 -1.5863
10796TIP3   OH253878   4.418   5.240  15.980  0.0724 -0.7061 -0.5782
10796TIP3    H153879   4.423   5.335  15.987  0.3220 -0.7880  0.5519
10796TIP3    H253880   4.490   5.209  16.034 -0.9807 -1.5714  0.3653
10797TIP3   OH253881   3.346   6.830  15.711  0.2550 -0.3679  0.1219
10797TIP3    H153882   3.360   6.882  15.632 -0.9178 -0.1131  0.0675
10797TIP3    H253883   3.434   6.808  15.741  0.7900 -3.0445 -2.9217
10798TIP3   OH253884   0.920   5.314  11.287  0.1142  0.0719  0.0434
10798TIP3    H153885   0.925   5.286  11.378 -1.0807 -0.0974  0.0666
10798TIP3    H253886   0.939   5.236  11.236  1.5893  0.3417  0.1265
10799TIP3   OH253887   4.665   2.305   1.945  0.0623  0.5085 -0.5023
10799TIP3    H153888   4.746   2.295   1.895  1.4783  0.0487  1.7336
10799TIP3    H253889   4.619   2.377   1.902  2.5316  2.0633 -0.7601
10800TIP3   OH253890   6.034   0.663  14.226 -0.0687 -0.3044 -0.0285
10800TIP3    H153891   6.086   0.681  14.304  0.5037 -2.1631  0.0418
10800TIP3    H253892   6.072   0.719  14.158 -0.6594  1.4403  0.9924
10801TIP3   OH253893   6.650   2.291  11.424 -0.5425  0.1432  0.0028
10801TIP3    H153894   6.716   2.320  11.361 -0.3819  0.5630  0.3613
10801TIP3    H253895   6.697   2.233  11.484 -0.2834  1.1401  0.7896
10802TIP3   OH253896   4.736   1.721   4.427 -0.3657 -0.1768  0.0270
10802TIP3    H153897   4.652   1.740   4.468 -0.0662  1.0477  0.1120
10802TIP3    H253898   4.737   1.774   4.347 -1.0600 -2.7322 -1.8155
10803TIP3   OH253899   1.331   6.777   1.208 -0.2857 -0.3691 -0.2771
10803TIP3    H153900   1.395   6.848   1.206  0.5397 -1.0277  1.4786
10803TIP3    H253901   1.278   6.794   1.286 -1.2222 -0.7424 -0.8068
10804TIP3   OH253902   0.034   0.595  17.183 -0.5503  0.5755 -0.0865
10804TIP3    H153903   0.126   0.585  17.208 -0.8680 -0.6765  0.6801
10804TIP3    H253904  -0.007   0.634  17.259 -1.1695 -1.5507  0.7549
10805TIP3   OH253905   6.720   0.744  15.832  0.0297  0.1922  0.2692
10805TIP3    H153906   6.629   0.774  15.831  0.1845  0.6731 -0.6139
10805TIP3    H253907   6.749   0.756  15.922 -0.7423  0.1564  0.5246
10806TIP3   OH253908   2.670   0.523  12.624  0.6946  0.2780 -0.0606
10806TIP3    H153909   2.697   0.433  12.642 -0.0588  0.0491 -0.0699
10806TIP3    H253910   2.704   0.541  12.537 -0.1485 -0.4036 -0.5434
10807TIP3   OH253911   1.206   4.935   1.926 -0.2021  0.4412  0.0904
10807TIP3    H153912   1.112   4.928   1.911 -0.5453  1.7864  1.3978
10807TIP3    H253913   1.215   4.937   2.022  1.1670  0.2316 -0.0097
10808TIP3   OH253914   0.487   1.059  16.839 -0.3247  0.4937 -0.3432
10808TIP3    H153915   0.499   1.144  16.796  1.3352  1.2222  1.4314
10808TIP3    H253916   0.470   1.080  16.931  1.3888 -1.0720  0.4032
10809TIP3   OH253917   0.130   4.792  14.145 -0.0133  0.2679 -0.6008
10809TIP3    H153918   0.127   4.872  14.092 -0.5233  0.3209 -0.4965
10809TIP3    H253919   0.220   4.787  14.176  0.1331  0.5643 -0.9765
10810TIP3   OH253920   0.269   5.850  15.652 -0.1128  0.2280  0.2876
10810TIP3    H153921   0.337   5.783  15.656  0.3999  0.5756 -1.6505
10810TIP3    H253922   0.250   5.871  15.744  0.6398 -1.6142  0.8951
10811TIP3   OH253923   6.314   3.601  16.785 -0.1953 -1.0858  0.2644
10811TIP3    H153924   6.409   3.608  16.782 -0.2990  3.0261 -3.4173
10811TIP3    H253925   6.293   3.530  16.724  0.5210 -0.6676 -0.4779
10812TIP3   OH253926   0.596   1.837   3.558  0.0434 -0.1479 -0.2500
10812TIP3    H153927   0.645   1.826   3.639 -1.4182  1.2878  0.8776
10812TIP3    H253928   0.550   1.754   3.546 -0.0136 -0.2434  0.6019
10813TIP3   OH253929   5.340   0.593  16.149  0.7072  0.2570  0.8532
10813TIP3    H153930   5.314   0.513  16.195  1.4100  0.1603  1.0871
10813TIP3    H253931   5.402   0.637  16.208  0.8988  0.6019  0.4086
10814TIP3   OH253932   3.203   3.581   0.728 -0.0775  0.0743  0.1725
10814TIP3    H153933   3.137   3.644   0.756 -1.5038 -0.9110 -0.8061
10814TIP3    H253934   3.159   3.496   0.734  1.2121 -0.6421 -0.2001
10815TIP3   OH253935   2.139   6.304   4.337 -0.9400  0.2639 -0.6424
10815TIP3    H153936   2.126   6.387   4.382 -1.8117 -0.2727  0.1195
10815TIP3    H253937   2.194   6.252   4.396 -0.3875  0.2928 -1.1200
10816TIP3   OH253938   4.570   4.460  11.203 -0.1766  0.3510  0.2037
10816TIP3    H153939   4.570   4.458  11.299 -0.0985  1.4619  0.2407
10816TIP3    H253940   4.648   4.511  11.180 -0.1289 -0.0095 -0.4587
10817TIP3   OH253941   4.000   3.938  12.125 -0.5472 -0.5024  0.3206
10817TIP3    H153942   3.941   4.012  12.110 -0.1315  0.4017  2.6504
10817TIP3    H253943   4.042   3.958  12.209  0.4620 -2.8239  0.4443
10818TIP3   OH253944   1.735   3.705  11.477 -0.4799  0.0238  0.5128
10818TIP3    H153945   1.782   3.748  11.406  0.5916 -0.9352  0.6246
10818TIP3    H253946   1.744   3.765  11.551  0.4897 -0.0966  0.5053
10819TIP3   OH253947   1.985   6.608   4.417 -0.4336  0.1798 -0.0772
10819TIP3    H153948   2.031   6.658   4.484 -0.5184  0.9080 -0.5485
10819TIP3    H253949   1.999   6.658   4.336  0.2210 -1.0221 -0.7319
10820TIP3   OH253950   0.598   4.606   6.612 -0.0079  0.3440  0.8260
10820TIP3    H153951   0.691   4.590   6.594 -0.7871 -2.1913 -1.7133
10820TIP3    H253952   0.577   4.685   6.561  0.3780 -0.2304 -0.2697
10821TIP3   OH253953   2.131   2.037  11.322 -0.4263 -0.1809  0.1432
10821TIP3    H153954   2.089   2.014  11.239 -1.7224 -0.6127  0.8904
10821TIP3    H253955   2.113   1.963  11.379  2.2128 -0.8480  0.2609
10822TIP3   OH253956   3.562   5.446   4.689 -0.1171 -0.1945 -0.6090
10822TIP3    H153957   3.648   5.414   4.661  0.6536  1.7954 -0.6940
10822TIP3    H253958   3.579   5.489   4.773 -0.6643  1.6165 -1.3687
10823TIP3   OH253959   3.945   1.780   1.731  0.3260  0.2375 -0.2979
10823TIP3    H153960   3.973   1.855   1.678  1.4432  0.9295  1.1974
10823TIP3    H253961   3.850   1.791   1.741  0.7793  3.1221  2.2411
10824TIP3   OH253962   0.322   2.571  13.178 -0.4320 -0.1728  0.2525
10824TIP3    H153963   0.355   2.486  13.208  0.2183 -0.5695 -1.4571
10824TIP3    H253964   0.394   2.607  13.126 -1.7592  0.0968 -1.4699
10825TIP3   OH253965   3.378   5.159   3.734 -0.0720  0.1480 -0.2200
10825TIP3    H153966   3.457   5.142   3.683 -0.3680  1.3141 -1.1228
10825TIP3    H253967   3.306   5.151   3.671 -0.5789  0.1795  0.3400
10826TIP3   OH253968   4.574   5.885  15.705  0.4480  0.2911  0.3406
10826TIP3    H153969   4.641   5.953  15.699 -0.0054  0.8064  0.9485
10826TIP3    H253970   4.573   5.845  15.618  0.3328  1.4413 -0.2055
10827TIP3   OH253971   2.711   2.632  15.325 -0.1845 -0.5057  0.8060
10827TIP3    H153972   2.742   2.718  15.352  2.5958 -1.6315  1.5781
10827TIP3    H253973   2.768   2.570  15.371 -0.8468 -2.7123 -1.1244
10828TIP3   OH253974   3.092   0.695  14.139 -0.0409 -0.5695  0.7125
10828TIP3    H153975   3.172   0.645  14.124 -0.7624 -1.3490 -0.8038
10828TIP3    H253976   3.101   0.730  14.227  0.7546 -2.9504  1.6383
10829TIP3   OH253977   2.325   4.685   5.301 -0.1770  0.0137 -0.0788
10829TIP3    H153978   2.304   4.605   5.254 -3.6793 -1.1616  2.9483
10829TIP3    H253979   2.245   4.737   5.296  1.1742  2.2431  0.1130
10830TIP3   OH253980   3.809   2.593   3.186 -0.1356  0.0291  0.3237
10830TIP3    H153981   3.839   2.676   3.149  1.5289 -0.8041 -0.3123
10830TIP3    H253982   3.883   2.534   3.174 -1.5555 -1.7788  0.0171
10831TIP3   OH253983   5.185   3.234   5.360  0.0434  0.3452  0.2785
10831TIP3    H153984   5.178   3.142   5.386 -0.1939  0.1114 -0.5847
10831TIP3    H253985   5.198   3.231   5.265 -4.3880  1.2618 -0.5847
10832TIP3   OH253986   4.457   6.022  11.987 -0.6642  0.0006 -0.4185
10832TIP3    H153987   4.469   5.927  11.992  0.9582  0.1769 -0.4310
10832TIP3    H253988   4.409   6.044  12.067  0.3290 -0.6493  0.3876
10833TIP3   OH253989   1.329   5.213   5.477  0.4521  0.3655  0.4582
10833TIP3    H153990   1.250   5.221   5.532 -0.0808  2.5959 -0.5049
10833TIP3    H253991   1.336   5.120   5.459 -2.4174  0.1406 -0.0166
10834TIP3   OH253992   1.143   0.737  13.857  0.0101  0.3841 -0.7081
10834TIP3    H153993   1.224   0.702  13.821  0.4068  0.6160 -0.0480
10834TIP3    H253994   1.152   0.728  13.952 -1.3854 -1.0080 -0.6756
10835TIP3   OH253995   2.821   3.250  16.018  0.5779  0.4131 -0.0280
10835TIP3    H153996   2.802   3.312  16.088  1.9265 -0.4368  1.1588
10835TIP3    H253997   2.762   3.177  16.033  0.2898  0.5922 -0.2867
10836TIP3   OH253998   2.890   5.779   5.762  0.1950  0.4636  0.1474
10836TIP3    H153999   2.884   5.821   5.848  0.7225 -1.6421  1.2746
10836TIP3    H254000   2.831   5.704   5.768  1.6874 -0.8197 -0.6092
10837TIP3   OH254001   6.258   5.617  12.975  0.5094 -0.1940  0.1416
10837TIP3    H154002   6.244   5.701  13.019  0.4276  0.0559 -0.3591
10837TIP3    H254003   6.208   5.624  12.894  2.5643  0.2715 -1.1599
10838TIP3   OH254004   3.359   2.938  17.168  0.0304  0.0007  0.2943
10838TIP3    H154005   3.335   2.907  17.081 -0.1188  2.5998 -0.6936
10838TIP3    H254006   3.438   2.888  17.191  1.0412  0.3887 -2.0803
10839TIP3   OH254007   6.761   3.628  14.345  0.0460 -0.2194 -0.9283
10839TIP3    H154008   6.800   3.712  14.368  0.6925 -0.4468 -1.1875
10839TIP3    H254009   6.749   3.582  14.428 -1.1767  0.4907 -0.6846
10840TIP3   OH254010   6.444   0.534  14.317 -0.4725  0.1175 -0.2676
10840TIP3    H154011   6.374   0.555  14.380 -1.8789 -2.0554 -1.0093
10840TIP3    H254012   6.399   0.528  14.233  0.9111  0.1913 -1.0384
10841TIP3   OH254013   4.776   2.501   2.915  0.0508 -0.7544  0.3307
10841TIP3    H154014   4.699   2.537   2.871 -1.0230 -1.9524  1.1525
10841TIP3    H254015   4.834   2.474   2.845 -0.6795 -0.6817 -0.3167
10842TIP3   OH254016   0.209   2.589  12.031 -0.0268 -0.1336  0.5714
10842TIP3    H154017   0.230   2.603  11.939 -0.8013 -1.3748  0.1759
10842TIP3    H254018   0.114   2.580  12.033  0.1298 -2.1013  1.1698
10843TIP3   OH254019   4.493   0.879   5.657 -0.5575 -0.0059 -1.2075
10843TIP3    H154020   4.486   0.927   5.574 -0.2321  0.0348 -1.2106
10843TIP3    H254021   4.537   0.940   5.716  0.8365 -0.6739 -1.5091
10844TIP3   OH254022   1.817   1.650  14.566 -0.6461 -0.1822 -0.2103
10844TIP3    H154023   1.745   1.703  14.601  0.6054  1.6128 -0.1986
10844TIP3    H254024   1.831   1.684  14.477  1.4707  0.9677  0.4877
10845TIP3   OH254025   5.139   1.119  16.729 -0.3076  0.5996  0.2941
10845TIP3    H154026   5.153   1.145  16.820  0.5771  0.6852  0.1393
10845TIP3    H254027   5.126   1.024  16.733  2.6160  0.0887  0.2670
10846TIP3   OH254028   6.365   2.288   3.199  0.0472  1.1017 -1.0696
10846TIP3    H154029   6.314   2.249   3.129  0.0211  0.4131 -0.6734
10846TIP3    H254030   6.398   2.214   3.250 -0.4487  1.5987  0.0189
10847TIP3   OH254031   2.280   0.274   0.784  0.0760 -0.3340 -0.0728
10847TIP3    H154032   2.258   0.333   0.857  1.1868 -1.6023  1.3656
10847TIP3    H254033   2.207   0.284   0.723 -1.7389 -0.3678  1.9547
10848TIP3   OH254034   6.491   4.356   3.033  0.0532 -0.1112  0.4689
10848TIP3    H154035   6.459   4.382   2.947  0.8062  1.2078  0.5559
10848TIP3    H254036   6.436   4.282   3.058  0.6177 -1.3502 -1.6717
10849TIP3   OH254037   0.006   3.520   4.906 -0.3150 -0.1322 -0.1037
10849TIP3    H154038   0.039   3.532   4.817  0.3091  2.2731  0.3624
10849TIP3    H254039  -0.028   3.606   4.930 -0.7206 -0.8082  1.8869
10850TIP3   OH254040   4.055   4.887  14.364 -0.3117 -0.7680 -0.2471
10850TIP3    H154041   3.982   4.852  14.313 -0.7497  0.7212 -0.7000
10850TIP3    H254042   4.133   4.854  14.320 -0.6935 -1.1914 -0.6243
10851TIP3   OH254043   2.490   2.476   3.478  0.0338 -0.1938  0.2803
10851TIP3    H154044   2.541   2.400   3.508 -0.8137 -1.4285 -1.2326
10851TIP3    H254045   2.408   2.438   3.446 -0.8768  1.5085  0.5042
10852TIP3   OH254046   5.043   4.806   5.812 -0.0187  0.3011 -0.0370
10852TIP3    H154047   5.002   4.837   5.893 -0.7817  1.2245 -0.7558
10852TIP3    H254048   5.013   4.715   5.804  0.6881 -0.0559  1.1006
10853TIP3   OH254049   1.636   3.175  11.067  0.4807 -0.2473  0.2431
10853TIP3    H154050   1.728   3.148  11.077  0.9265  0.7191 -1.0101
10853TIP3    H254051   1.588   3.092  11.060  1.1917 -0.7732  1.2950
10854TIP3   OH254052   1.237   5.436   5.150  0.0993  0.6208  0.1321
10854TIP3    H154053   1.331   5.420   5.153  0.0667  0.2552 -0.5760
10854TIP3    H254054   1.226   5.506   5.086 -0.3070 -1.2081 -1.9515
10855TIP3   OH254055   5.725   1.836  11.331  0.6519  0.7008 -0.7557
10855TIP3    H154056   5.631   1.827  11.345  0.8560  0.7014  0.7634
10855TIP3    H254057   5.741   1.790  11.249 -0.3788 -1.0656 -0.0251
10856TIP3   OH254058   6.263   5.810   5.440 -0.6010  0.0502 -0.1482
10856TIP3    H154059   6.312   5.777   5.515  2.9979  0.6270 -2.0051
10856TIP3    H254060   6.243   5.901   5.462 -1.6515 -0.4262  0.9688
10857TIP3   OH254061   3.467   3.905   2.383  0.2182 -0.6762 -0.0369
10857TIP3    H154062   3.504   3.911   2.471 -0.5053 -0.7034  0.2763
10857TIP3    H254063   3.466   3.811   2.365  2.6535 -0.5828 -1.0903
10858TIP3   OH254064   2.877   5.806  15.887 -0.1357 -0.1221  0.1822
10858TIP3    H154065   2.908   5.859  15.960 -0.7069 -1.0652  1.1356
10858TIP3    H254066   2.880   5.865  15.812 -1.1121  1.4063  1.2705
10859TIP3   OH254067   6.273   5.677   5.195 -0.0673  0.0341  0.1083
10859TIP3    H154068   6.305   5.714   5.277 -1.2415  1.2809  0.0347
10859TIP3    H254069   6.241   5.590   5.218  0.0606  0.1847  0.8790
10860TIP3   OH254070   4.453   0.076  16.085 -0.2321  0.2656  0.1737
10860TIP3    H154071   4.486   0.072  16.174 -1.9592 -1.6775  0.8076
10860TIP3    H254072   4.478  -0.007  16.045 -0.7219  0.5013 -0.6724
10861TIP3   OH254073   3.962   4.261   6.437  0.9586 -0.1801  0.6574
10861TIP3    H154074   3.957   4.315   6.359  0.6146 -3.3123 -1.6900
10861TIP3    H254075   3.871   4.243   6.459  1.0760 -0.1058  1.2253
10862TIP3   OH254076   5.925   2.954   2.085  0.4437  0.2212  0.4415
10862TIP3    H154077   5.993   2.927   2.147  0.3859 -0.4030  0.2424
10862TIP3    H254078   5.938   2.897   2.009 -0.7470 -0.4089  0.6795
10863TIP3   OH254079   3.943   1.341   6.233  0.4001 -0.5687 -0.4564
10863TIP3    H154080   3.931   1.435   6.244  1.0816 -0.6434  1.1893
10863TIP3    H254081   4.022   1.332   6.179  0.6301 -0.1902 -0.1869
10864TIP3   OH254082   5.602   2.560   4.806  0.2115 -0.3271 -0.0958
10864TIP3    H154083   5.656   2.619   4.858 -1.7162  1.4848 -0.0055
10864TIP3    H254084   5.513   2.594   4.815 -0.3439 -0.1088 -4.1751
10865TIP3   OH254085   2.729   4.284  15.972 -0.1342  0.2420 -0.1195
10865TIP3    H154086   2.691   4.370  15.989  1.2903  1.0985 -1.0157
10865TIP3    H254087   2.778   4.295  15.890  1.7787 -0.8227  0.7958
10866TIP3   OH254088   0.539   2.519   0.806 -0.0983 -0.2851  0.0017
10866TIP3    H154089   0.619   2.510   0.754 -0.9752 -0.9497 -1.2978
10866TIP3    H254090   0.553   2.598   0.858  1.0366  0.1106 -0.8652
10867TIP3   OH254091   0.093   1.627   1.489  0.0399 -0.3360  1.1787
10867TIP3    H154092   0.075   1.576   1.569  2.7651 -0.7646  1.6216
10867TIP3    H254093   0.100   1.561   1.420  1.3163 -0.3886  1.3271
10868TIP3   OH254094   3.703   5.174  14.789 -0.3201 -0.0410  0.0562
10868TIP3    H154095   3.725   5.159  14.697 -0.5773 -2.3456  0.3319
10868TIP3    H254096   3.608   5.162  14.793 -0.1379 -1.3605  0.8430
10869TIP3   OH254097   6.048   5.716   2.417 -0.0803 -0.4965  0.3688
10869TIP3    H154098   6.013   5.785   2.361  0.7311  0.1823  0.6682
10869TIP3    H254099   6.074   5.762   2.497  2.5053 -0.7297 -0.2494
10870TIP3   OH254100   4.992   5.786   4.630  0.0166 -0.2757 -0.1357
10870TIP3    H154101   5.045   5.838   4.690 -1.4552  1.3081 -0.1408
10870TIP3    H254102   4.923   5.748   4.685 -0.9351  0.6213 -0.6791
10871TIP3   OH254103   1.747   2.338  11.279  0.2680 -0.6045  0.2710
10871TIP3    H154104   1.841   2.328  11.293  0.3514 -0.9737 -0.5456
10871TIP3    H254105   1.726   2.278  11.208 -0.4699 -0.0440  0.0005
10872TIP3   OH254106   4.717   1.666   5.339  0.5586 -0.4040 -0.1935
10872TIP3    H154107   4.772   1.705   5.407  0.3449 -0.2792 -0.0887
10872TIP3    H254108   4.760   1.689   5.257 -0.5878  1.7453 -0.2518
10873TIP3   OH254109   0.306   6.066  16.076  0.4961  0.2785  0.3935
10873TIP3    H154110   0.290   6.106  16.161 -1.3786 -3.2466  1.9043
10873TIP3    H254111   0.362   5.990  16.095  1.0380  0.0634 -1.7428
10874TIP3   OH254112   0.693   1.480  12.115 -0.1103  0.4685  0.0335
10874TIP3    H154113   0.629   1.418  12.150 -1.4082  3.4695  3.5924
10874TIP3    H254114   0.774   1.459  12.162  0.4779 -0.6802 -1.4143
10875TIP3   OH254115   2.821   3.896  10.665 -0.7131  0.3186  0.3285
10875TIP3    H154116   2.861   3.983  10.670 -1.1216  0.5060  0.3602
10875TIP3    H254117   2.846   3.854  10.748 -0.1080  0.2256  0.1034
10876TIP3   OH254118   1.402   5.711   0.935  0.0601  0.2865  0.6182
10876TIP3    H154119   1.308   5.728   0.930  0.4320  2.5622  0.4162
10876TIP3    H254120   1.417   5.639   0.873 -1.7634 -1.4119  2.0259
10877TIP3   OH254121   5.025   3.290  12.155 -0.0748  0.0917  0.0581
10877TIP3    H154122   5.001   3.361  12.214  1.6601  0.5399  0.2955
10877TIP3    H254123   5.113   3.265  12.184  0.2026 -0.6840 -1.3936
10878TIP3   OH254124   3.235   2.713   0.902  0.3944 -0.0910 -0.0923
10878TIP3    H154125   3.326   2.719   0.932  0.2703 -1.3634  0.5905
10878TIP3    H254126   3.242   2.720   0.807  1.0934  0.9100  0.0134
10879TIP3   OH254127   2.891   2.624   1.875  0.1494  0.8372 -0.1466
10879TIP3    H154128   2.898   2.668   1.790  1.6536 -0.2977 -0.6747
10879TIP3    H254129   2.830   2.552   1.860  1.0220  0.1551 -0.5210
10880TIP3   OH254130   3.268   2.852   3.720 -0.0815  0.2472  0.3896
10880TIP3    H154131   3.272   2.767   3.676  1.0603  0.0242  0.8948
10880TIP3    H254132   3.227   2.910   3.656  0.0522 -0.4549 -0.3446
10881TIP3   OH254133   0.317   1.246  15.257 -0.0072 -0.2672  0.4836
10881TIP3    H154134   0.333   1.291  15.174  0.1214  2.7965  2.0199
10881TIP3    H254135   0.403   1.218  15.287 -0.0044 -1.0027 -0.1982
10882TIP3   OH254136   2.598   1.078   1.079  0.9656 -0.1903  0.3489
10882TIP3    H154137   2.517   1.031   1.059 -1.6608  4.9395 -3.6908
10882TIP3    H254138   2.624   1.046   1.165 -3.4836 -4.4884  0.5436
10883TIP3   OH254139   4.742   6.677   3.545 -0.3848 -0.3504  0.0980
10883TIP3    H154140   4.735   6.582   3.554 -0.8505 -0.2595  0.7429
10883TIP3    H254141   4.669   6.711   3.597 -0.1321  0.3603 -0.0126
10884TIP3   OH254142   6.191   2.735  15.135  0.3914 -0.1057  0.3731
10884TIP3    H154143   6.233   2.664  15.185 -0.0484 -0.7807 -0.2000
10884TIP3    H254144   6.205   2.711  15.044  0.8463  0.9256  0.1574
10885TIP3   OH254145   2.062   6.244  12.535  0.5176  0.6238 -0.5757
10885TIP3    H154146   2.104   6.307  12.594  1.7284 -0.9708  0.3273
10885TIP3    H254147   1.994   6.295  12.492  2.7040  3.0998 -1.3875
10886TIP3   OH254148   4.004   5.796  13.506 -0.2522  0.3974 -0.0841
10886TIP3    H154149   3.931   5.735  13.494  0.5761 -0.2714 -1.9494
10886TIP3    H254150   4.021   5.831  13.419  0.3983  2.0526  0.6664
10887TIP3   OH254151   4.607   4.967  15.950 -0.6392 -0.7612 -0.3438
10887TIP3    H154152   4.641   4.892  16.000 -1.4584 -0.4645  0.7078
10887TIP3    H254153   4.512   4.964  15.965 -0.6045  0.9657  0.3936
10888TIP3   OH254154   6.737   1.783   2.473  0.0997  0.6949  0.6779
10888TIP3    H154155   6.746   1.688   2.462  0.6360  0.3895  3.1664
10888TIP3    H254156   6.826   1.816   2.463  0.5207  0.4624  3.0728
10889TIP3   OH254157   1.703   0.896   4.811 -0.1540  0.9109  0.3617
10889TIP3    H154158   1.641   0.845   4.863 -0.4017  0.1481 -0.6538
10889TIP3    H254159   1.674   0.987   4.821 -1.1166  0.6176  0.3437
10890TIP3   OH254160   1.557   5.168  14.974 -0.0101 -0.0014 -0.3420
10890TIP3    H154161   1.512   5.217  14.906  1.3900  1.8700 -0.0230
10890TIP3    H254162   1.560   5.228  15.049  1.2332 -0.8050  0.2966
10891TIP3   OH254163   6.458   4.348   1.703 -0.2281  0.5697  0.2939
10891TIP3    H154164   6.420   4.428   1.742  1.1643  1.6856 -0.5338
10891TIP3    H254165   6.535   4.330   1.756 -0.1775  0.1365  0.0761
10892TIP3   OH254166   0.421   5.235  12.823  0.0404  0.1519 -0.6280
10892TIP3    H154167   0.515   5.226  12.805  0.2082  1.1666 -0.3140
10892TIP3    H254168   0.415   5.243  12.918 -0.3306  0.4209 -0.6721
10893TIP3   OH254169   1.452   1.170  13.723 -0.1976  0.0158  0.2638
10893TIP3    H154170   1.441   1.114  13.646  0.6515  0.1227  0.0570
10893TIP3    H254171   1.435   1.259  13.691  0.0670  0.0500  0.2125
10894TIP3   OH254172   3.945   6.472   5.693 -0.3536 -0.6445  0.4784
10894TIP3    H154173   4.008   6.498   5.626  0.1950 -0.8100  0.9222
10894TIP3    H254174   3.989   6.401   5.740 -0.8947 -0.7936  0.7630
10895TIP3   OH254175   0.852   3.709  12.556  0.1110  0.1054  0.3465
10895TIP3    H154176   0.919   3.650  12.520 -1.7507 -1.9226 -0.0753
10895TIP3    H254177   0.862   3.790  12.506 -0.1004 -1.4235 -2.3829
10896TIP3   OH254178   5.396   2.320   6.344  0.0426  0.1593  0.3130
10896TIP3    H154179   5.467   2.257   6.354  0.4672  0.5527 -0.1712
10896TIP3    H254180   5.343   2.308   6.423  0.6097 -0.1819  0.6547
10897TIP3   OH254181   6.556   2.918  10.401  0.5914  0.0802  0.4228
10897TIP3    H154182   6.576   3.008  10.376  2.0423 -0.3821 -0.2191
10897TIP3    H254183   6.463   2.908  10.384  0.6794  1.0660 -0.7662
10898TIP3   OH254184   1.225   1.421   1.796  0.6242  0.5507 -0.3095
10898TIP3    H154185   1.296   1.413   1.732 -0.4119  0.0486 -1.4421
10898TIP3    H254186   1.145   1.421   1.743 -0.3607 -1.3529  1.0519
10899TIP3   OH254187   3.690   3.791  13.015 -0.0243 -0.1631 -0.3301
10899TIP3    H154188   3.649   3.864  13.060 -1.0585 -0.0106 -1.4783
10899TIP3    H254189   3.714   3.826  12.929  0.3496 -0.9161 -0.5410
10900TIP3   OH254190   5.209   6.650  14.017 -0.4048  0.2145 -0.1973
10900TIP3    H154191   5.163   6.731  14.041 -1.5141 -0.5578  0.4042
10900TIP3    H254192   5.202   6.595  14.095  1.2262 -0.0909 -0.2418
10901TIP3   OH254193   4.165   5.157  13.977  0.1866  0.1406 -0.1007
10901TIP3    H154194   4.070   5.144  13.975  0.1624  0.0400  1.0649
10901TIP3    H254195   4.180   5.215  14.051  0.8815  1.8132 -1.5042
10902TIP3   OH254196   6.286   0.169  16.397 -0.1271 -0.2694  0.0935
10902TIP3    H154197   6.377   0.192  16.382 -0.1750  0.1198  0.3858
10902TIP3    H254198   6.287   0.111  16.473  0.1374 -2.4169 -1.4602
10903TIP3   OH254199   5.410   4.140  10.915 -0.1778  0.3197  0.2399
10903TIP3    H154200   5.374   4.084  10.984 -1.2415  0.2018 -0.3807
10903TIP3    H254201   5.418   4.082  10.839  1.3335  0.3574  0.3405
10904TIP3   OH254202   2.765   5.301   3.693 -0.2507  0.2324  0.3032
10904TIP3    H154203   2.821   5.355   3.748  0.2408  0.6260 -0.5574
10904TIP3    H254204   2.751   5.220   3.743 -0.2684  0.7983  1.2223
10905TIP3   OH254205   2.584   4.426  14.019  0.4496  0.2359 -0.4823
10905TIP3    H154206   2.588   4.404  13.926  0.6811  0.6372 -0.5694
10905TIP3    H254207   2.534   4.355  14.058  3.3440 -1.9316 -0.3234
10906TIP3   OH254208   1.165   4.662   2.694 -0.0929  0.0429 -0.1151
10906TIP3    H154209   1.090   4.714   2.724  0.3379  1.3104 -1.1278
10906TIP3    H254210   1.141   4.571   2.713 -2.0446  0.3876 -0.7651
10907TIP3   OH254211   0.313   4.549  16.332 -0.3786 -0.2628 -0.0164
10907TIP3    H154212   0.408   4.540  16.344 -0.4351 -1.3209 -0.2888
10907TIP3    H254213   0.290   4.479  16.271 -1.5447 -0.8426  1.0532
10908TIP3   OH254214   0.251   4.207   4.813  0.3076  0.2189  0.4262
10908TIP3    H154215   0.177   4.155   4.845  1.4113 -1.0649  0.9970
10908TIP3    H254216   0.216   4.295   4.800 -2.6284 -1.2282 -3.8485
10909TIP3   OH254217   0.149   3.623   1.667  0.2027  0.2111 -0.6694
10909TIP3    H154218   0.091   3.570   1.611  0.3062 -0.0345 -0.5441
10909TIP3    H254219   0.107   3.621   1.753  1.1745 -1.2472 -0.1813
10910TIP3   OH254220   1.247   4.312   4.841  0.3918 -0.1577 -0.1491
10910TIP3    H154221   1.294   4.230   4.824  1.4834  0.2809  0.6171
10910TIP3    H254222   1.316   4.377   4.852 -0.4065  0.5586  0.7769
10911TIP3   OH254223   3.154   0.365  12.112  0.2111  0.1211  0.1362
10911TIP3    H154224   3.133   0.450  12.152 -0.3413  0.0442  0.0181
10911TIP3    H254225   3.088   0.354  12.044  0.2993 -0.3927  0.1333
10912TIP3   OH254226   0.060   5.203  15.417 -0.3895  0.1095 -0.3293
10912TIP3    H154227   0.032   5.293  15.407  0.1898  0.3511  0.1469
10912TIP3    H254228   0.016   5.172  15.496  1.9974  1.0686  1.5149
10913TIP3   OH254229   2.364   2.572   2.441  0.1241 -0.1230 -0.3834
10913TIP3    H154230   2.286   2.626   2.432  0.6080  0.2958 -2.6400
10913TIP3    H254231   2.331   2.482   2.437 -0.2463  0.0506 -1.4320
10914TIP3   OH254232   0.143   4.952   4.674  0.0599 -0.4730  0.3064
10914TIP3    H154233   0.227   4.968   4.717  0.0926  1.0067 -0.2572
10914TIP3    H254234   0.087   5.024   4.703  0.2342  0.9038 -2.4665
10915TIP3   OH254235   5.617   2.372  14.920  0.0297 -0.3380 -0.3108
10915TIP3    H154236   5.712   2.385  14.916  0.0453  1.1031  2.4199
10915TIP3    H254237   5.606   2.283  14.953  0.5357  0.1333  1.2143
10916TIP3   OH254238   0.932   0.441  13.133  0.1943  0.8352  0.0152
10916TIP3    H154239   0.883   0.404  13.059 -0.1133  0.8019  0.2357
10916TIP3    H254240   0.877   0.425  13.209  1.2932 -0.7085  0.5250
10917TIP3   OH254241   5.974   4.017  12.802  0.1605  0.2446 -0.0839
10917TIP3    H154242   5.963   3.944  12.741 -0.3410  0.1230  0.1464
10917TIP3    H254243   5.984   4.094  12.746 -0.5548  0.1707 -0.3296
10918TIP3   OH254244   4.674   6.192  11.451  0.1523  0.0796  0.9200
10918TIP3    H154245   4.742   6.258  11.437  0.9573 -0.5986  1.5097
10918TIP3    H254246   4.673   6.178  11.545 -1.4357  0.7074  1.0206
10919TIP3   OH254247   2.294   6.322  13.465 -0.1742 -0.1263  0.5343
10919TIP3    H154248   2.221   6.361  13.419 -1.6618 -1.3678  1.7162
10919TIP3    H254249   2.322   6.249  13.410  0.0211  0.2065  0.1929
10920TIP3   OH254250   0.928   0.817  15.210  0.3319  0.4702  0.0183
10920TIP3    H154251   0.931   0.840  15.117 -2.9924  0.1326 -0.2838
10920TIP3    H254252   0.913   0.722  15.211  2.3310  0.0986  1.0202
10921TIP3   OH254253   3.077   0.047   1.089 -0.3707 -0.2041  0.2600
10921TIP3    H154254   3.070  -0.036   1.042 -0.0507 -0.1771  0.1608
10921TIP3    H254255   3.082   0.113   1.020 -2.1364  0.0520  0.3222
10922TIP3   OH254256   4.940   4.913   6.150 -0.2513  0.0948  0.4058
10922TIP3    H154257   4.921   4.832   6.198 -0.0263  0.1132  0.5253
10922TIP3    H254258   4.998   4.963   6.208 -1.5549  1.0059  0.9817
10923TIP3   OH254259   5.792   0.802   4.645 -0.0361 -0.1149 -0.4747
10923TIP3    H154260   5.737   0.755   4.707 -0.4742  1.0064  0.0234
10923TIP3    H254261   5.831   0.873   4.697  1.5231 -0.6051 -0.9243
10924TIP3   OH254262   1.758   4.893  12.864  0.4302 -0.2944  0.2442
10924TIP3    H154263   1.680   4.922  12.816  0.1586  1.1845  1.5118
10924TIP3    H254264   1.724   4.853  12.944  0.9449  1.0990  1.2019
10925TIP3   OH254265   4.694   3.727  13.520  0.0362  0.5956  0.1814
10925TIP3    H154266   4.775   3.742  13.472 -0.1439 -1.6837 -0.9736
10925TIP3    H254267   4.717   3.661  13.586 -0.6462  0.7179  0.5545
10926TIP3   OH254268   4.220   6.433   1.002  0.0582 -0.3387  0.2097
10926TIP3    H154269   4.141   6.486   0.994 -1.9529 -3.3396 -2.0358
10926TIP3    H254270   4.199   6.369   1.070  1.4433  0.1080  1.0950
10927TIP3   OH254271   1.165   2.006   3.474 -0.1011 -0.2080  0.4048
10927TIP3    H154272   1.218   1.953   3.534  0.6429  0.0118 -0.0448
10927TIP3    H254273   1.081   2.016   3.519  0.1951 -0.6599  1.0800
10928TIP3   OH254274   2.789   1.988   1.926 -0.4814 -0.0690 -0.5604
10928TIP3    H154275   2.759   1.960   1.839  1.4038 -1.2330 -0.8803
10928TIP3    H254276   2.758   2.079   1.934 -0.9891 -0.0582 -2.2892
10929TIP3   OH254277   1.794   5.299   0.449 -0.0831 -0.4026 -0.3948
10929TIP3    H154278   1.806   5.240   0.524  0.2422 -0.1883 -0.2752
10929TIP3    H254279   1.851   5.373   0.468 -1.9187  0.8944  0.4296
10930TIP3   OH254280   4.609   1.451  16.842  0.1812  0.6160 -0.1105
10930TIP3    H154281   4.700   1.428  16.859  0.4083  2.1443  0.8754
10930TIP3    H254282   4.565   1.366  16.833  1.5596 -0.1535  0.0626
10931TIP3   OH254283   0.200   3.289  13.050  0.1392 -0.0299  0.2038
10931TIP3    H154284   0.275   3.349  13.051  0.3805 -0.3342  0.9392
10931TIP3    H254285   0.229   3.214  12.998 -0.1595  0.4696 -0.7085
10932TIP3   OH254286   0.075   5.090  11.033  0.2345  0.0770 -0.0119
10932TIP3    H154287   0.017   5.036  11.086  0.3745  0.0285  0.0944
10932TIP3    H254288   0.163   5.070  11.066  0.1334  2.3992  1.9243
10933TIP3   OH254289   0.913   1.754   2.147  0.5674  0.8766  0.2704
10933TIP3    H154290   0.988   1.813   2.152  0.2317  1.3155  0.2009
10933TIP3    H254291   0.938   1.678   2.198  1.1816  0.8920 -0.0077
10934TIP3   OH254292   3.340   0.533   6.494 -0.0508  0.0159 -0.0465
10934TIP3    H154293   3.344   0.590   6.570 -0.6800 -0.9211  0.7102
10934TIP3    H254294   3.284   0.581   6.432 -0.3904  0.3263  0.4853
10935TIP3   OH254295   0.408   6.557   5.559  0.2243 -0.2715 -0.5092
10935TIP3    H154296   0.426   6.541   5.652 -0.3518  1.2699 -0.1161
10935TIP3    H254297   0.377   6.472   5.527  0.0902 -0.7457  0.7870
10936TIP3   OH254298   5.339   6.350  12.029  0.6634 -0.4073  0.0955
10936TIP3    H154299   5.325   6.439  12.058 -1.1727  0.3414 -2.6474
10936TIP3    H254300   5.434   6.336  12.036  1.4927  2.9315 -2.2170
10937TIP3   OH254301   2.974   1.013   6.196 -0.5530 -0.7710  0.3003
10937TIP3    H154302   3.041   1.041   6.133 -2.0376  3.2427  0.1843
10937TIP3    H254303   3.022   0.996   6.276  0.8192  0.4421 -0.2168
10938TIP3   OH254304   4.535   4.845  14.013  0.5002  0.4718 -0.0506
10938TIP3    H154305   4.603   4.858  14.079 -0.6734  0.0075  1.3043
10938TIP3    H254306   4.479   4.922  14.021 -1.3161 -0.9107  1.6415
10939TIP3   OH254307   6.475   3.440   2.238 -0.4162  0.5164 -1.2612
10939TIP3    H154308   6.395   3.461   2.286  0.2372  1.3847 -0.5123
10939TIP3    H254309   6.542   3.430   2.306  0.0612 -0.4950 -1.8516
10940TIP3   OH254310   6.167   3.942  14.765  0.2880 -0.4007  0.1764
10940TIP3    H154311   6.089   3.996  14.772 -0.0038 -0.8669  0.6314
10940TIP3    H254312   6.143   3.872  14.705  0.8231  0.2282 -0.7987
10941TIP3   OH254313   5.207   2.051  15.146  0.0684  0.1573  0.1534
10941TIP3    H154314   5.161   2.075  15.226  0.8447 -0.3165  0.7601
10941TIP3    H254315   5.182   2.118  15.082  1.6559  2.2273  1.5874
10942TIP3   OH254316   3.480   3.826  13.870  0.1095  0.1984  0.4294
10942TIP3    H154317   3.514   3.789  13.951 -0.2300 -0.2862  0.3557
10942TIP3    H254318   3.385   3.821  13.879  0.0723 -0.2106 -0.1570
10943TIP3   OH254319   0.009   3.897   1.767 -0.2466  0.2333 -0.6858
10943TIP3    H154320  -0.046   3.965   1.806 -1.3931 -0.4052 -1.1400
10943TIP3    H254321   0.089   3.897   1.820 -0.4253  1.5916 -0.3886
10944TIP3   OH254322   4.717   1.237   0.701 -0.0564  0.1912 -0.1831
10944TIP3    H154323   4.624   1.252   0.687 -0.0136  0.0011 -0.6682
10944TIP3    H254324   4.731   1.145   0.678  0.4520  0.5028 -1.1464
10945TIP3   OH254325   3.036   5.733  16.166  0.6207  0.1911 -0.2439
10945TIP3    H154326   3.032   5.638  16.179 -0.4200  0.2355 -0.1033
10945TIP3    H254327   2.981   5.768  16.237  0.5042  0.8633 -0.6637
10946TIP3   OH254328   4.966   3.734   3.090  0.2548 -0.4637  0.2747
10946TIP3    H154329   4.934   3.659   3.040 -0.0195 -0.2531  0.1359
10946TIP3    H254330   4.907   3.806   3.067  0.9261 -0.0222 -0.1289
10947TIP3   OH254331   1.413   2.783   3.027 -0.1842 -0.1991  0.1571
10947TIP3    H154332   1.379   2.860   2.982  1.3594 -0.7613 -2.1733
10947TIP3    H254333   1.335   2.738   3.060 -1.3482  0.8513 -1.0418
10948TIP3   OH254334   4.850   6.450  12.679  0.0985  0.1543  0.5444
10948TIP3    H154335   4.913   6.405  12.622  0.7181 -0.3407  1.6052
10948TIP3    H254336   4.766   6.441  12.633  1.1145  3.1501 -2.2912
10949TIP3   OH254337   1.474   3.593  13.143  0.1126  0.2935  0.3323
10949TIP3    H154338   1.517   3.571  13.061  1.0814  0.5336  0.7639
10949TIP3    H254339   1.439   3.681  13.130  0.5043  0.4385  0.2751
10950TIP3   OH254340   3.578   1.406  14.648  0.3221  0.2001  0.2092
10950TIP3    H154341   3.661   1.442  14.681 -0.3447 -0.4879  2.8728
10950TIP3    H254342   3.595   1.313  14.636  1.3459  0.7262 -4.4063
10951TIP3   OH254343   0.383   2.962  14.636 -0.2712  0.2296 -0.4264
10951TIP3    H154344   0.321   3.033  14.653 -1.6129 -0.6675 -1.3504
10951TIP3    H254345   0.336   2.882  14.662  1.2473 -0.3409  0.6984
10952TIP3   OH254346   3.730   1.829  11.493  0.0636 -0.4596 -0.0404
10952TIP3    H154347   3.724   1.924  11.485 -2.8909 -0.4425  1.0398
10952TIP3    H254348   3.717   1.811  11.586  0.9637 -1.9296 -0.1579
10953TIP3   OH254349   0.869   5.871   2.490  0.6711 -0.3282  0.2918
10953TIP3    H154350   0.810   5.819   2.436  1.1051  0.4089 -0.9231
10953TIP3    H254351   0.818   5.950   2.509  0.7477 -0.3180  0.4514
10954TIP3   OH254352   2.537   1.486  15.411 -0.4765 -0.0474 -0.1234
10954TIP3    H154353   2.501   1.496  15.323 -1.2027  0.9117  0.2700
10954TIP3    H254354   2.628   1.459  15.396 -0.4669  0.5110 -1.1739
10955TIP3   OH254355   3.194   1.784  16.199 -0.5441 -0.0805 -0.4684
10955TIP3    H154356   3.154   1.800  16.114  0.5547 -0.7648 -1.1230
10955TIP3    H254357   3.220   1.871  16.229  0.3213  0.0256 -1.4726
10956TIP3   OH254358   4.531   1.828  10.658 -0.4184  0.5296 -0.3450
10956TIP3    H154359   4.437   1.808  10.649 -0.0738 -0.8076 -1.3303
10956TIP3    H254360   4.574   1.745  10.639  0.9354  0.7209  1.6257
10957TIP3   OH254361   3.847   4.268  11.539  0.3046 -0.2061 -0.1817
10957TIP3    H154362   3.814   4.180  11.518  0.0038 -0.7381  2.1975
10957TIP3    H254363   3.778   4.327  11.509 -0.6634 -0.9913  0.4252
10958TIP3   OH254364   2.239   2.384  13.692 -0.5571  0.0201  0.1122
10958TIP3    H154365   2.300   2.442  13.646  0.5408 -1.4880 -0.4266
10958TIP3    H254366   2.294   2.313  13.725 -1.2416  1.1407  4.0902
10959TIP3   OH254367   5.974   6.641   5.249  0.0089  0.2195 -0.4344
10959TIP3    H154368   6.057   6.616   5.208  0.2187 -1.0475  0.6921
10959TIP3    H254369   5.924   6.681   5.179  0.0989 -2.4367 -2.1537
10960TIP3   OH254370   1.204   5.164  14.764 -0.0638  0.0907  0.7407
10960TIP3    H154371   1.138   5.233  14.752  1.9399  1.8659 -0.9979
10960TIP3    H254372   1.285   5.212  14.782  0.9925 -1.9750  1.8910
10961TIP3   OH254373   6.771   2.453  12.276  0.2711 -0.4567  0.5699
10961TIP3    H154374   6.770   2.472  12.182 -0.4522  0.8177  0.8097
10961TIP3    H254375   6.679   2.453  12.301  0.4518 -0.9775  1.2429
10962TIP3   OH254376   5.168   0.076  11.680 -0.2880  0.0220 -0.0587
10962TIP3    H154377   5.223   0.011  11.724  0.7968  2.2738  2.1661
10962TIP3    H254378   5.079   0.044  11.694  0.1542 -0.5046  2.0005
10963TIP3   OH254379   2.072   6.143   1.365 -0.0167 -0.2636 -0.2061
10963TIP3    H154380   1.997   6.202   1.364  0.0851 -0.1301  0.0041
10963TIP3    H254381   2.036   6.058   1.341 -0.4071 -0.3910  0.7844
10964TIP3   OH254382   2.348   6.364   6.128 -0.2591  0.1650 -0.6629
10964TIP3    H154383   2.379   6.427   6.193  0.9506 -1.3409  0.2922
10964TIP3    H254384   2.403   6.287   6.142 -1.6807 -1.1041 -1.8031
10965TIP3   OH254385   3.646   0.048  13.294 -0.1173 -0.2188  0.5726
10965TIP3    H154386   3.579   0.108  13.328  0.7054  1.4368 -0.5988
10965TIP3    H254387   3.634   0.050  13.199  1.2974 -0.2302  0.3744
10966TIP3   OH254388   1.694   0.022  16.606 -0.1050  0.0269  0.3233
10966TIP3    H154389   1.653   0.072  16.536 -0.1116  0.3256  0.5376
10966TIP3    H254390   1.673   0.070  16.686 -1.0038 -0.8842  0.6522
10967TIP3   OH254391   2.641   5.135  11.476 -0.2699  0.5058  0.7332
10967TIP3    H154392   2.553   5.164  11.452  0.1918  0.5364 -1.0677
10967TIP3    H254393   2.626   5.054  11.525 -1.2958 -1.8577 -3.0158
10968TIP3   OH254394   5.753   5.131   1.713 -0.2881  0.8336 -0.2448
10968TIP3    H154395   5.845   5.137   1.739 -0.2761 -1.1068  0.2711
10968TIP3    H254396   5.752   5.158   1.621  0.6300  1.7490 -0.0040
10969TIP3   OH254397   4.254   0.752   6.342  0.6620  0.0433  0.2620
10969TIP3    H154398   4.281   0.672   6.296  3.0445 -0.4775  2.3332
10969TIP3    H254399   4.204   0.721   6.417 -0.0800  0.6428  0.0227
10970TIP3   OH254400   4.493   1.191  16.821 -0.4569 -0.2355 -0.0730
10970TIP3    H154401   4.503   1.102  16.855 -0.1233  0.0851  0.6719
10970TIP3    H254402   4.522   1.184  16.730 -1.6924 -1.1677 -0.4332
10971TIP3   OH254403   4.196   0.088  14.829  0.5633 -0.2727  0.4712
10971TIP3    H154404   4.209   0.178  14.798  0.8799 -0.6253 -0.4228
10971TIP3    H254405   4.256   0.035  14.777  0.5649 -0.9810  1.1674
10972TIP3   OH254406   4.698   2.138   4.039 -0.1139  0.3883  0.1240
10972TIP3    H154407   4.785   2.160   4.006 -0.0676 -0.2348 -0.1835
10972TIP3    H254408   4.670   2.064   3.985 -0.9248  0.7224  0.0753
10973TIP3   OH254409   3.562   3.844  15.360 -0.2893  0.4277  0.3358
10973TIP3    H154410   3.608   3.898  15.297 -1.4226  0.4960 -0.4600
10973TIP3    H254411   3.548   3.901  15.436  1.0394  0.3573  0.6522
10974TIP3   OH254412   5.237   3.602  12.548 -0.8698  0.5377  0.2937
10974TIP3    H154413   5.240   3.600  12.644 -2.3766 -1.2278  0.3573
10974TIP3    H254414   5.264   3.691  12.526 -0.0817  0.8768  2.3208
10975TIP3   OH254415   2.207   6.225   4.753  0.2667 -0.3160 -0.0926
10975TIP3    H154416   2.136   6.288   4.767  0.2916 -0.4667  0.7744
10975TIP3    H254417   2.286   6.278   4.758  0.2183 -0.1072 -1.3029
10976TIP3   OH254418   6.581   4.624  16.776  0.0792  0.0987 -0.0535
10976TIP3    H154419   6.593   4.708  16.820  1.4531  0.0574 -0.3037
10976TIP3    H254420   6.565   4.562  16.847 -1.6830  0.6678  0.0818
10977TIP3   OH254421   1.367   5.292   4.742 -0.5021 -0.1873  0.3151
10977TIP3    H154422   1.358   5.215   4.798 -1.8109 -1.0419 -0.9979
10977TIP3    H254423   1.337   5.263   4.656 -0.2193  1.5602 -0.4203
10978TIP3   OH254424   1.027   5.910  11.213 -0.2407  0.1309  0.2186
10978TIP3    H154425   1.033   5.969  11.288  1.2607  0.7517 -0.3564
10978TIP3    H254426   0.952   5.942  11.163  0.9789  2.0668 -0.4701
10979TIP3   OH254427   3.951   1.578  16.582  0.0138  0.0399  0.4517
10979TIP3    H154428   4.041   1.545  16.585 -0.5978 -1.7060  0.2689
10979TIP3    H254429   3.930   1.582  16.489 -0.6222 -1.0405  0.5468
10980TIP3   OH254430   3.372   0.009   3.882 -0.1789  0.4517  0.2909
10980TIP3    H154431   3.360  -0.034   3.798 -1.1462 -0.1556  0.7163
10980TIP3    H254432   3.413   0.093   3.861  1.6279 -0.5760 -0.5737
10981TIP3   OH254433   4.949   0.895   1.218 -0.1043  0.4822 -0.3247
10981TIP3    H154434   4.964   0.816   1.270 -0.9226  2.0159  2.4475
10981TIP3    H254435   4.858   0.888   1.188  0.0110  0.1275 -0.5995
10982TIP3   OH254436   4.645   0.503   0.407  0.0846 -0.3719 -1.4294
10982TIP3    H154437   4.674   0.418   0.440 -0.1334 -0.3805 -1.2554
10982TIP3    H254438   4.674   0.505   0.316 -1.2603 -1.2806 -1.9100
10983TIP3   OH254439   6.243   5.395   0.819  0.0004 -0.5160  0.0536
10983TIP3    H154440   6.280   5.455   0.755  0.0647 -0.1671  0.4143
10983TIP3    H254441   6.274   5.428   0.904 -0.3771 -0.7633  0.2901
10984TIP3   OH254442   0.425   5.465  15.092 -0.3110 -0.1433 -0.4935
10984TIP3    H154443   0.348   5.410  15.110 -0.8937 -0.2484 -2.9722
10984TIP3    H254444   0.407   5.547  15.138 -1.9480 -0.1526 -1.0495
10985TIP3   OH254445   3.198   3.441  14.505 -0.0913 -0.0498  0.2454
10985TIP3    H154446   3.231   3.414  14.419  0.2886 -1.6457  0.8584
10985TIP3    H254447   3.138   3.514  14.486 -0.5454 -0.8081 -1.4270
10986TIP3   OH254448   3.198   3.353  14.203 -0.1845 -0.7308 -0.7169
10986TIP3    H154449   3.246   3.328  14.124 -0.6132 -0.6375 -1.0144
10986TIP3    H254450   3.174   3.445  14.188  3.1370  0.6342  1.2335
10987TIP3   OH254451   1.351   0.021   5.736 -0.0544 -0.0775 -0.0035
10987TIP3    H154452   1.376  -0.050   5.677  0.3878 -0.4214  0.5831
10987TIP3    H254453   1.370  -0.013   5.823 -1.2528  0.2018  0.3843
10988TIP3   OH254454   2.347   1.324  11.437  0.2189 -0.1705  0.1471
10988TIP3    H154455   2.283   1.393  11.418 -2.3725 -1.2710  3.8516
10988TIP3    H254456   2.326   1.253  11.376 -0.2471  0.4828 -0.4676
10989TIP3   OH254457   1.952   0.630   3.792  0.1512 -0.0488 -0.5735
10989TIP3    H154458   2.045   0.623   3.772 -0.0569 -0.7378 -1.3606
10989TIP3    H254459   1.909   0.573   3.728 -0.7296 -0.5590  0.4407
10990TIP3   OH254460   3.222   1.198   3.069  0.7232 -0.1398  0.2735
10990TIP3    H154461   3.255   1.284   3.095  1.8118 -1.0277  2.0215
10990TIP3    H254462   3.179   1.164   3.147  0.3281 -1.2077 -0.3913
10991TIP3   OH254463   3.674   4.970  15.473  0.3409 -0.0544 -0.1647
10991TIP3    H154464   3.648   4.892  15.425 -0.7820 -0.1950  0.6345
10991TIP3    H254465   3.697   4.938  15.561 -0.4487  0.5449  0.2698
10992TIP3   OH254466   2.288   1.656   5.332 -0.9451  0.8666  0.3857
10992TIP3    H154467   2.301   1.733   5.387  2.9266 -0.3381  1.4802
10992TIP3    H254468   2.334   1.677   5.250  0.3943 -0.2928  0.8015
10993TIP3   OH254469   4.165   1.301   3.552  0.0827 -0.2591 -0.6931
10993TIP3    H154470   4.085   1.352   3.539  0.2677 -0.0137 -0.8803
10993TIP3    H254471   4.215   1.314   3.472  0.8840  0.6302 -0.0791
10994TIP3   OH254472   4.140   6.018   2.405  0.4190  0.4208  0.1662
10994TIP3    H154473   4.103   5.933   2.430  1.5640 -0.7861 -1.9621
10994TIP3    H254474   4.222   5.996   2.362  2.1452  2.8101  1.9378
10995TIP3   OH254475   4.597   5.596  15.790  0.6042 -0.7301  0.6165
10995TIP3    H154476   4.589   5.677  15.840 -1.0294  0.1061 -0.8700
10995TIP3    H254477   4.691   5.581  15.784  0.8867 -0.2846  2.9314
10996TIP3   OH254478   5.454   3.414   3.495 -0.3680 -0.1812  0.0261
10996TIP3    H154479   5.519   3.429   3.426 -2.1643  2.7341 -1.2054
10996TIP3    H254480   5.389   3.357   3.455 -0.9792  0.8316 -0.4728
10997TIP3   OH254481   2.971   6.156  12.791 -0.1333 -0.6488 -0.5084
10997TIP3    H154482   2.935   6.241  12.765  1.3577 -0.1097 -0.9610
10997TIP3    H254483   3.063   6.160  12.763  0.0613 -2.2729 -0.1993
10998TIP3   OH254484   6.808   1.650   5.025  0.5461 -0.3049 -0.1621
10998TIP3    H154485   6.856   1.628   4.946  1.8099 -1.3449  0.8508
10998TIP3    H254486   6.784   1.565   5.063  2.3505  0.0216  1.9468
10999TIP3   OH254487   1.602   0.827   0.402  0.5447 -0.4737 -0.4781
10999TIP3    H154488   1.564   0.747   0.437  0.1305  0.4549  1.3641
10999TIP3    H254489   1.534   0.864   0.346 -0.0302 -0.4345  0.2352
11000TIP3   OH254490   4.329   5.414  10.803 -0.1622  0.1876  0.3946
11000TIP3    H154491   4.412   5.440  10.762 -0.6693 -0.5329 -1.1606
11000TIP3    H254492   4.344   5.424  10.897  0.9873  2.1268  0.0602
11001TIP3   OH254493   3.720   0.427   2.433  0.5283  0.4006 -0.0648
11001TIP3    H154494   3.738   0.438   2.339  0.2587  0.0014 -0.1690
11001TIP3    H254495   3.766   0.346   2.456 -0.6925 -0.3712 -0.2267
11002TIP3   OH254496   5.954   4.760  11.785  0.4116  0.0408  0.1537
11002TIP3    H154497   5.991   4.834  11.736  1.9104 -0.7435  0.0433
11002TIP3    H254498   5.982   4.776  11.876 -1.1870  0.7661  0.5534
11003TIP3   OH254499   4.068   6.644   0.924  0.0629 -0.2018  0.4862
11003TIP3    H154500   4.154   6.670   0.955  0.5759  0.3855 -1.2855
11003TIP3    H254501   4.026   6.725   0.897 -0.2912 -0.6635 -0.4140
11004TIP3   OH254502   0.936   6.310   4.478  0.1654 -0.3074  0.0686
11004TIP3    H154503   0.870   6.243   4.459  1.7447 -1.9124 -0.0821
11004TIP3    H254504   0.924   6.331   4.571 -1.8024  0.9296 -0.4154
11005TIP3   OH254505   0.428   3.954   4.434  0.1223 -0.1905  0.1981
11005TIP3    H154506   0.356   3.892   4.444  0.1909 -0.4768 -0.9089
11005TIP3    H254507   0.503   3.899   4.411  0.3160  0.2426 -0.2315
11006TIP3   OH254508   1.610   4.155  16.658 -0.0366 -0.2738  0.1059
11006TIP3    H154509   1.704   4.167  16.665  0.1505 -1.3755 -0.2650
11006TIP3    H254510   1.596   4.124  16.568 -0.5704 -1.4963  0.5766
11007TIP3   OH254511   2.004   2.241  13.734  0.3174 -0.4653 -0.4363
11007TIP3    H154512   1.956   2.293  13.669 -0.9094  1.6552  1.9800
11007TIP3    H254513   2.083   2.292  13.751 -0.2391 -0.0239  0.9736
11008TIP3   OH254514   1.068   2.869  15.305 -0.0024  0.3382  0.2362
11008TIP3    H154515   1.147   2.825  15.337  2.6288  3.0855 -1.9357
11008TIP3    H254516   1.045   2.821  15.225 -0.2137 -0.1126  0.5626
11009TIP3   OH254517   5.281   4.917   5.283  0.2569  0.2879  0.1603
11009TIP3    H154518   5.373   4.930   5.261 -0.2782  4.5500 -0.4108
11009TIP3    H254519   5.235   4.917   5.199 -0.4101 -0.1585  0.5131
11010TIP3   OH254520   1.265   6.758   3.722  0.4345 -0.1237 -0.6982
11010TIP3    H154521   1.203   6.733   3.654 -0.3020  0.0563 -0.1159
11010TIP3    H254522   1.254   6.853   3.730  0.1216 -0.2113  0.0260
11011TIP3   OH254523   0.719   6.504  12.075  0.3880 -0.2070 -0.0515
11011TIP3    H154524   0.767   6.434  12.031 -2.3092 -1.6073 -0.9809
11011TIP3    H254525   0.708   6.571  12.008  2.3021  0.8446  0.6189
11012TIP3   OH254526   4.105   1.068  12.419  0.6298  0.6104  0.4311
11012TIP3    H154527   4.135   0.977  12.414 -0.8790 -0.0853  2.5395
11012TIP3    H254528   4.011   1.062  12.434  0.8420  2.3606  3.2009
11013TIP3   OH254529   0.931   4.247   4.681 -0.4307  0.1345  0.6436
11013TIP3    H154530   0.975   4.162   4.677  1.9291  1.3064 -0.9645
11013TIP3    H254531   0.905   4.266   4.591  0.6066  1.7847  0.6389
11014TIP3   OH254532   2.239   0.516   1.276 -0.0470 -0.5308  0.5873
11014TIP3    H154533   2.322   0.521   1.324 -0.0137 -0.8632  0.5706
11014TIP3    H254534   2.208   0.427   1.292  0.4363 -0.9673 -0.7632
11015TIP3   OH254535   5.756   4.038  14.583 -0.6780  0.2187  0.1608
11015TIP3    H154536   5.835   4.091  14.571 -1.8370  1.5331 -2.4950
11015TIP3    H254537   5.787   3.955  14.617  1.9049  0.5785 -1.1000
11016TIP3   OH254538   0.962   0.241  15.463  0.4994 -0.4747  0.3887
11016TIP3    H154539   0.924   0.226  15.376  0.7820  0.0111  0.1703
11016TIP3    H254540   1.041   0.187  15.464  0.9112  0.1069  0.0397
11017TIP3   OH254541   4.588   2.336  17.106  0.3897 -0.1679 -0.2743
11017TIP3    H154542   4.616   2.368  17.192 -0.4769  0.0345 -0.0616
11017TIP3    H254543   4.541   2.255  17.125  0.4988 -0.3084 -0.5954
11018TIP3   OH254544   5.159   3.905  12.497 -0.5646  0.3002  0.3470
11018TIP3    H154545   5.116   3.830  12.539 -1.2410  1.3709  1.6395
11018TIP3    H254546   5.154   3.975  12.562 -0.2551  1.5747 -0.9576
11019TIP3   OH254547   6.287   2.931   5.441  0.0941  0.4154  0.0774
11019TIP3    H154548   6.206   2.963   5.402  1.0332  0.6097 -1.8220
11019TIP3    H254549   6.272   2.837   5.455  0.1782  0.0198 -2.1312
11020TIP3   OH254550   4.045   2.767   4.648 -0.6697  0.1007  0.6737
11020TIP3    H154551   4.111   2.807   4.591 -0.2997  0.5608  1.4082
11020TIP3    H254552   3.961   2.794   4.609 -0.5172 -1.9059 -1.2741
11021TIP3   OH254553   3.437   2.775  16.231  0.1774  0.3094 -0.0756
11021TIP3    H154554   3.453   2.853  16.284 -0.3913  1.6535 -1.7616
11021TIP3    H254555   3.509   2.773  16.169  1.4503 -1.8782  1.3387
11022TIP3   OH254556   0.005   1.291   3.424  0.4818  0.0152  0.4143
11022TIP3    H154557   0.007   1.369   3.368  0.7245 -0.8528 -0.8247
11022TIP3    H254558  -0.015   1.325   3.511 -0.4520  1.3508 -0.2808
11023TIP3   OH254559   1.407   2.359   5.428 -0.1882 -0.1684  0.4681
11023TIP3    H154560   1.350   2.296   5.473 -0.0495 -0.2259  0.5617
11023TIP3    H254561   1.391   2.442   5.473 -0.9393  0.0313 -0.1403
11024TIP3   OH254562   5.634   0.961  12.117  0.7733 -0.4838 -0.2936
11024TIP3    H154563   5.719   0.918  12.127  0.8031 -0.0944  1.3815
11024TIP3    H254564   5.623   0.970  12.022  3.0325  0.3131 -0.5418
11025TIP3   OH254565   5.000   5.688  13.737 -0.2338 -0.9535  0.1079
11025TIP3    H154566   5.059   5.649  13.801 -0.2354 -1.4275 -0.1714
11025TIP3    H254567   5.033   5.658  13.652 -0.0683 -0.1111 -0.1320
11026TIP3   OH254568   6.765   6.504  15.996  0.2677  0.3374 -0.5129
11026TIP3    H154569   6.791   6.525  16.085 -1.7986 -0.0093  0.2198
11026TIP3    H254570   6.837   6.537  15.942  0.9269  1.8151  1.1640
11027TIP3   OH254571   0.365   6.627  16.134 -0.1485 -0.4373 -0.0706
11027TIP3    H154572   0.390   6.535  16.145  1.7693  0.2716  2.3743
11027TIP3    H254573   0.346   6.657  16.223 -0.6680  1.5862 -0.8064
11028TIP3   OH254574   0.623   3.395  14.723 -0.1072 -0.5942  0.3982
11028TIP3    H154575   0.568   3.452  14.777  0.3318  0.3660 -0.1510
11028TIP3    H254576   0.684   3.355  14.785 -1.1246 -1.3540  0.9524
11029TIP3   OH254577   1.434   2.493  16.499 -0.1514 -0.2112 -0.2616
11029TIP3    H154578   1.510   2.538  16.461 -0.0988 -1.6753 -2.0346
11029TIP3    H254579   1.383   2.563  16.539  1.0372  1.1096 -0.9432
11030TIP3   OH254580   3.962   0.960  13.845 -0.5138 -0.6170 -0.0631
11030TIP3    H154581   3.975   1.035  13.903  0.9490  0.7341 -2.0278
11030TIP3    H254582   3.996   0.885  13.896  0.5534  0.4789  0.9144
11031TIP3   OH254583   3.987   0.547   5.203  0.1614  0.1502  0.0875
11031TIP3    H154584   3.908   0.497   5.182 -0.7910  1.1157  1.2435
11031TIP3    H254585   4.037   0.489   5.261 -0.5189  0.1816  0.7188
11032TIP3   OH254586   5.237   2.834   2.710  0.2692 -0.2357 -0.1800
11032TIP3    H154587   5.295   2.891   2.760  1.2075 -1.5894  0.3493
11032TIP3    H254588   5.280   2.748   2.713 -0.8486 -0.8674 -1.3413
11033TIP3   OH254589   6.596   5.523  14.413 -0.0788  0.4105 -0.3730
11033TIP3    H154590   6.611   5.611  14.449  1.0684 -0.7087  2.0998
11033TIP3    H254591   6.666   5.511  14.348 -0.4148  1.3865 -0.9409
11034TIP3   OH254592   4.489   3.052  14.300  0.0671 -0.3276  0.2461
11034TIP3    H154593   4.406   3.012  14.275 -0.7378  1.2999  0.1838
11034TIP3    H254594   4.467   3.110  14.374  1.4113 -0.9217  1.1671
11035TIP3   OH254595   6.298   1.591   1.877  0.6448 -0.3232 -0.2149
11035TIP3    H154596   6.276   1.601   1.970 -0.8708 -2.1097 -0.3120
11035TIP3    H254597   6.259   1.668   1.835 -0.5280 -0.5577  0.3863
11036TIP3   OH254598   2.948   2.079  16.482 -0.0105 -0.3063 -0.5945
11036TIP3    H154599   2.896   2.009  16.441 -1.0296 -0.4555  0.8834
11036TIP3    H254600   2.967   2.139  16.410 -0.8752 -1.0673 -1.4993
11037TIP3   OH254601   4.548   6.313   5.365  0.0879  0.2343 -0.1684
11037TIP3    H154602   4.567   6.231   5.320  0.6535  0.1940  0.1368
11037TIP3    H254603   4.452   6.315   5.371  0.0921 -0.7754  0.4886
11038TIP3   OH254604   4.552   0.849   2.034 -0.3867  0.8316  0.5746
11038TIP3    H154605   4.564   0.938   2.001 -2.1854  0.9623  0.1963
11038TIP3    H254606   4.488   0.857   2.104  0.9630  0.0927  1.9460
11039TIP3   OH254607   6.538   6.273  16.741 -0.3280  0.5726  0.3139
11039TIP3    H154608   6.569   6.235  16.660 -0.9496  0.3374  0.1751
11039TIP3    H254609   6.447   6.242  16.749 -0.0941  0.1044  1.3903
11040TIP3   OH254610   4.303   2.866   0.449  0.6564 -0.3028  0.2543
11040TIP3    H154611   4.271   2.778   0.469  0.2927 -0.4266 -0.7978
11040TIP3    H254612   4.278   2.880   0.358 -1.7039  1.9508  1.1258
11041TIP3   OH254613   3.856   0.148  14.191  0.7279 -0.3443  0.0192
11041TIP3    H154614   3.878   0.127  14.100  0.9159  1.5291 -0.4141
11041TIP3    H254615   3.765   0.176  14.188  0.9220  0.3324  0.2846
11042TIP3   OH254616   6.339   2.410   1.070  0.3848 -0.5502  0.2279
11042TIP3    H154617   6.395   2.409   0.993  0.4889 -1.1706  0.3055
11042TIP3    H254618   6.268   2.349   1.050  0.5246 -0.8793  0.6928
11043TIP3   OH254619   2.287   4.192   5.222 -0.0548  0.7185  0.8034
11043TIP3    H154620   2.242   4.114   5.188  3.3541 -1.3775  0.6102
11043TIP3    H254621   2.304   4.171   5.314  0.6691  1.3538  0.8186
11044TIP3   OH254622   1.174   3.227   2.159  0.6602 -0.9659  0.7830
11044TIP3    H154623   1.216   3.241   2.074  0.2957  1.1781  0.9022
11044TIP3    H254624   1.245   3.229   2.223  0.7762 -1.1596  0.6610
11045TIP3   OH254625   1.482   6.818   1.853  0.2179 -0.1103 -0.3113
11045TIP3    H154626   1.578   6.826   1.855  0.4423 -2.3613  1.2549
11045TIP3    H254627   1.460   6.829   1.761  1.6781  2.8755 -0.4137
11046TIP3   OH254628   5.078   3.402   4.295 -0.6367 -0.6230  0.2786
11046TIP3    H154629   5.115   3.409   4.207  0.8972 -0.6697  0.8760
11046TIP3    H254630   4.991   3.441   4.288  0.7112  2.5608 -0.5350
11047TIP3   OH254631   0.197   4.638   5.795 -0.2209 -0.5324 -0.3682
11047TIP3    H154632   0.186   4.688   5.876  0.7788 -0.8150 -0.0334
11047TIP3    H254633   0.110   4.636   5.755 -0.5552  0.3128  0.2866
11048TIP3   OH254634   1.272   3.242   0.849 -0.2278  0.1222  0.1800
11048TIP3    H154635   1.260   3.309   0.782 -1.3597  1.0327  1.2250
11048TIP3    H254636   1.362   3.211   0.838 -0.1532  0.7913 -1.2383
11049TIP3   OH254637   0.306   2.863  12.541 -0.1989  0.1353  0.1005
11049TIP3    H154638   0.226   2.842  12.589 -0.5578 -0.0989 -0.5865
11049TIP3    H254639   0.278   2.924  12.473  0.1673 -0.0960 -0.2642
11050TIP3   OH254640   0.532   2.344  10.542 -0.3910  0.3360 -0.1650
11050TIP3    H154641   0.529   2.325  10.448 -0.2261 -2.0438  0.2578
11050TIP3    H254642   0.440   2.360  10.565 -0.7431 -1.2632 -0.3546
11051TIP3   OH254643   0.311   3.418  15.187 -0.5006 -0.4770  0.3220
11051TIP3    H154644   0.375   3.473  15.232 -0.4518 -1.3776  1.4244
11051TIP3    H254645   0.233   3.421  15.243 -0.1390 -2.3313  1.0193
11052TIP3   OH254646   4.729   2.817  11.851  0.4567 -0.8291 -0.3889
11052TIP3    H154647   4.794   2.785  11.915  0.1277  1.1508  1.0184
11052TIP3    H254648   4.675   2.740  11.833  0.8807 -1.6012  1.3406
11053TIP3   OH254649   0.234   2.067   2.335  0.6599  0.6990 -0.2672
11053TIP3    H154650   0.177   2.099   2.264  1.2052  1.6258 -0.3134
11053TIP3    H254651   0.239   2.141   2.396  1.4236  0.4608 -0.0303
11054TIP3   OH254652   1.858   1.176   4.998 -0.5413 -0.4752 -0.3759
11054TIP3    H154653   1.903   1.250   5.039 -0.1920 -0.6910 -0.3695
11054TIP3    H254654   1.769   1.180   5.034 -1.1700  1.1982 -1.9652
11055TIP3   OH254655   6.628   2.022   2.560 -0.6989 -0.0918 -0.6313
11055TIP3    H154656   6.685   1.950   2.532 -1.0887 -0.2098 -1.1206
11055TIP3    H254657   6.594   1.994   2.645  0.3030  0.1662 -0.1175
11056TIP3   OH254658   4.795   1.799   5.761  0.3033  0.0245 -0.0201
11056TIP3    H154659   4.869   1.782   5.819  1.2714 -0.0008 -1.2165
11056TIP3    H254660   4.754   1.713   5.748 -0.2831  0.1183  1.0520
11057TIP3   OH254661   2.042   2.239   3.744 -0.4470  0.0030  0.5515
11057TIP3    H154662   2.129   2.235   3.706 -1.3548 -2.8319 -1.6318
11057TIP3    H254663   2.025   2.151   3.776 -1.3422  1.2831  4.0818
11058TIP3   OH254664   6.831   6.105  14.843  0.2635  0.1379  0.4578
11058TIP3    H154665   6.832   6.060  14.759 -0.9668  1.8401 -0.5325
11058TIP3    H254666   6.804   6.038  14.906  2.5482 -1.5148 -0.1974
11059TIP3   OH254667   3.625   3.870  13.647  0.0829  0.4567 -0.0531
11059TIP3    H154668   3.582   3.851  13.731  0.7835  3.1270  1.0392
11059TIP3    H254669   3.570   3.827  13.582  0.8939 -3.9597  1.7880
11060TIP3   OH254670   3.090   2.844  10.314  0.1338  0.3423 -0.1318
11060TIP3    H154671   3.044   2.896  10.248  0.5196 -1.9953 -2.4416
11060TIP3    H254672   3.039   2.763  10.320  1.6593 -0.6290  0.3348
11061TIP3   OH254673   1.604   4.325   6.122  0.4833 -0.1272  0.0935
11061TIP3    H154674   1.555   4.404   6.143  1.4517  0.5427 -0.0854
11061TIP3    H254675   1.655   4.306   6.200  1.8206  0.6434 -0.5567
11062TIP3   OH254676   0.314   5.548  13.634  0.4019 -0.2016 -0.4267
11062TIP3    H154677   0.227   5.509  13.646  0.4465 -0.0216  0.5943
11062TIP3    H254678   0.298   5.642  13.639  0.6770 -0.1725 -0.0433
11063TIP3   OH254679   1.626   2.912   4.645  0.1302 -0.1618 -0.0550
11063TIP3    H154680   1.706   2.877   4.686 -0.3973  0.1249  1.2777
11063TIP3    H254681   1.657   2.959   4.568  1.3332  0.4828  0.7839
11064TIP3   OH254682   5.721   0.865   4.114 -0.1137  0.3365  0.0207
11064TIP3    H154683   5.752   0.801   4.049  0.3186  1.5483 -1.0221
11064TIP3    H254684   5.750   0.830   4.198 -0.6983 -1.2928 -0.4143
11065TIP3   OH254685   2.642   0.733   2.225 -1.0149  0.0994 -0.0521
11065TIP3    H154686   2.565   0.736   2.168 -0.5045  0.2905 -0.7536
11065TIP3    H254687   2.642   0.818   2.270 -1.7704 -0.3022  0.7145
11066TIP3   OH254688   0.718   6.327  13.723  0.5124  0.1233 -0.5063
11066TIP3    H154689   0.794   6.332  13.782  0.6105 -0.6521 -0.5627
11066TIP3    H254690   0.713   6.415  13.684  1.7584  0.0073 -0.9788
11067TIP3   OH254691   3.054   4.284   2.682 -0.3025 -0.0731 -0.4586
11067TIP3    H154692   3.096   4.366   2.658  0.0946 -0.2075 -0.2207
11067TIP3    H254693   3.024   4.247   2.598 -1.0755  0.6241 -0.5057
11068TIP3   OH254694   5.060   5.022  15.647  0.6857 -0.1155 -0.4523
11068TIP3    H154695   5.090   4.969  15.721 -1.0099  0.1895  0.4999
11068TIP3    H254696   5.135   5.077  15.625  1.4374 -0.6722  0.6222
11069TIP3   OH254697   1.524   6.328  11.652 -0.6992  0.2424 -0.0709
11069TIP3    H154698   1.529   6.310  11.559 -1.4321  0.7076 -0.2127
11069TIP3    H254699   1.599   6.283  11.690  0.1735  0.8692 -1.0137
11070TIP3   OH254700   2.367   2.449  15.089  0.6040 -0.2430  0.4989
11070TIP3    H154701   2.309   2.433  15.014  0.0918  2.5435  0.2054
11070TIP3    H254702   2.310   2.487  15.156  1.7312  0.9297  0.8387
11071TIP3   OH254703   2.754   3.418  12.251 -0.2483 -0.5579  0.5585
11071TIP3    H154704   2.734   3.508  12.224  0.6600 -0.2001  1.0303
11071TIP3    H254705   2.721   3.364  12.180 -0.3018  0.1958 -0.0055
11072TIP3   OH254706   3.698   3.791   4.011 -0.1805 -0.0438 -0.2007
11072TIP3    H154707   3.675   3.872   3.966 -0.5479  1.3501  2.3241
11072TIP3    H254708   3.674   3.721   3.950 -1.1869  1.6883 -1.8645
11073TIP3   OH254709   6.402   1.332   4.623 -0.0737  0.3097 -0.2458
11073TIP3    H154710   6.371   1.243   4.607  0.2028  0.3542 -1.0919
11073TIP3    H254711   6.324   1.381   4.650 -0.5806  0.2116 -1.4745
11074TIP3   OH254712   5.716   4.301  15.668 -0.1582 -0.3993  0.1295
11074TIP3    H154713   5.748   4.233  15.727  0.8645  0.7221  0.9142
11074TIP3    H254714   5.781   4.304  15.597 -0.8804 -1.0875 -0.5913
11075TIP3   OH254715   1.137   3.866   5.238  0.2338 -0.8083  0.2997
11075TIP3    H154716   1.181   3.950   5.221  0.8044 -0.8874  1.2973
11075TIP3    H254717   1.201   3.800   5.212  0.8535 -0.9269  1.9941
11076TIP3   OH254718   4.242   4.142  13.199  0.0467 -0.2084  0.0163
11076TIP3    H154719   4.193   4.171  13.276  0.6676  0.3069  0.2287
11076TIP3    H254720   4.176   4.106  13.140 -0.7177  1.3663 -0.1336
11077TIP3   OH254721   1.713   0.258  10.980 -0.1530  0.5553  0.7887
11077TIP3    H154722   1.693   0.265  11.073  0.1792 -0.2534  0.9268
11077TIP3    H254723   1.710   0.349  10.948 -0.4834  0.8162  1.5330
11078TIP3   OH254724   2.013   4.430  15.842  0.6157  0.0012 -0.3763
11078TIP3    H154725   2.035   4.499  15.780  1.6780  1.1836  1.2435
11078TIP3    H254726   2.047   4.350  15.803  0.9885  0.6665 -1.4410
11079TIP3   OH254727   4.790   6.252   4.333 -0.0146  0.1807  0.1311
11079TIP3    H154728   4.731   6.176   4.335 -1.3012  1.1482  0.5204
11079TIP3    H254729   4.870   6.219   4.292  0.3942 -2.0327  2.4212
11080TIP3   OH254730   3.791   5.604   0.632 -0.0683  0.0230 -0.0375
11080TIP3    H154731   3.875   5.570   0.600 -0.7483 -1.5671 -0.2253
11080TIP3    H254732   3.802   5.699   0.630  1.7067 -0.1393 -0.1091
11081TIP3   OH254733   4.377   6.730   2.585 -0.1765  0.2336 -0.0311
11081TIP3    H154734   4.378   6.711   2.491 -2.6279  1.7487 -0.4634
11081TIP3    H254735   4.353   6.646   2.626 -1.2138  0.0399 -0.9738
11082TIP3   OH254736   0.036   0.990   2.334 -1.0332  0.2539 -0.0449
11082TIP3    H154737   0.107   1.054   2.339 -0.0936 -0.7157 -0.4742
11082TIP3    H254738   0.062   0.921   2.396  0.5657 -2.1122 -3.0753
11083TIP3   OH254739   2.877   2.851   0.192 -0.2901  0.3748 -0.4591
11083TIP3    H154740   2.929   2.841   0.271 -1.7141  2.0618  0.7775
11083TIP3    H254741   2.795   2.804   0.210 -0.2002 -0.1475 -1.3659
11084TIP3   OH254742   3.056   6.003  17.151 -0.6728 -0.2025  0.4821
11084TIP3    H154743   2.995   6.067  17.189  0.8295  0.4297  1.9399
11084TIP3    H254744   3.012   5.919  17.162 -1.8273  0.3585  0.3501
11085TIP3   OH254745   5.039   4.256   0.425 -0.4349 -0.2539  0.1071
11085TIP3    H154746   5.073   4.290   0.342 -1.2163 -0.5075 -0.3180
11085TIP3    H254747   4.944   4.263   0.417 -0.5367 -0.8714  0.7285
11086TIP3   OH254748   5.853   0.519   5.680 -0.4634 -0.5347  0.2811
11086TIP3    H154749   5.789   0.562   5.737 -1.0119  0.6651 -1.1683
11086TIP3    H254750   5.937   0.552   5.710 -0.7036 -0.2656  0.6742
11087TIP3   OH254751   3.337   3.129   2.674  0.3154  0.0768 -0.1444
11087TIP3    H154752   3.426   3.099   2.691 -0.0527 -0.6426  0.6193
11087TIP3    H254753   3.283   3.076   2.733 -0.7073 -0.1866 -1.2852
11088TIP3   OH254754   4.274   4.736  11.297  0.2811 -0.0058 -0.0484
11088TIP3    H154755   4.342   4.712  11.359  0.2827 -2.4906 -0.8820
11088TIP3    H254756   4.320   4.745  11.213 -0.2133 -0.3661 -0.3670
11089TIP3   OH254757   3.189   3.217   1.436 -0.3645 -0.1070 -0.4207
11089TIP3    H154758   3.204   3.244   1.345  0.0331 -0.6393 -0.5168
11089TIP3    H254759   3.203   3.297   1.487 -0.5095  0.1786 -0.8198
11090TIP3   OH254760   1.323   5.385  16.567  0.3874  0.0657 -0.1802
11090TIP3    H154761   1.284   5.361  16.651 -0.5449  0.4423 -0.4891
11090TIP3    H254762   1.249   5.415  16.514  1.1291  0.9982 -0.7220
11091TIP3   OH254763   6.357   4.194  14.159  0.5768 -0.5367  1.0436
11091TIP3    H154764   6.443   4.161  14.184  1.3037 -0.7393 -1.4015
11091TIP3    H254765   6.323   4.128  14.098 -1.1167 -0.2134  1.5770
11092TIP3   OH254766   1.924   2.785  10.281 -0.8587 -0.4168  0.3870
11092TIP3    H154767   1.977   2.854  10.321  1.4553 -1.3578 -0.8646
11092TIP3    H254768   1.986   2.715  10.261 -2.7115 -1.9008 -0.5542
11093TIP3   OH254769   3.407   0.763   1.542 -0.3371  0.3204  0.0617
11093TIP3    H154770   3.390   0.682   1.590 -0.6339  0.5450  0.3451
11093TIP3    H254771   3.502   0.773   1.544 -0.3342  0.2415  0.4674
11094TIP3   OH254772   3.615   3.095   1.934  0.3287 -0.1192  0.6807
11094TIP3    H154773   3.638   3.005   1.912 -1.2728 -0.0204 -1.7423
11094TIP3    H254774   3.662   3.149   1.870  0.1132  0.6649  1.1688
11095TIP3   OH254775   5.954   0.089   3.676  0.6789  0.2882 -0.1442
11095TIP3    H154776   5.945   0.175   3.717  0.6890  0.5644 -0.7208
11095TIP3    H254777   5.943   0.027   3.749  0.3446  0.7632  0.2143
11096TIP3   OH254778   6.416   3.143   0.141 -0.0411 -0.0201  0.0011
11096TIP3    H154779   6.477   3.115   0.073 -0.8116 -0.5373 -0.4911
11096TIP3    H254780   6.441   3.234   0.160  1.1454 -0.3586  0.1172
11097TIP3   OH254781   4.809   4.948   6.888  0.8201 -0.0142  0.3423
11097TIP3    H154782   4.800   5.009   6.961  0.9620 -1.4454  1.6065
11097TIP3    H254783   4.888   4.976   6.842  1.3144  0.2940  1.3605
11098TIP3   OH254784   5.958   4.178   1.639 -0.2495  0.1025 -0.2371
11098TIP3    H154785   5.888   4.115   1.619 -0.3535  0.6378 -1.6284
11098TIP3    H254786   5.917   4.241   1.699 -0.7309 -0.0410 -0.4136
11099TIP3   OH254787   5.463   5.032   3.190  0.4556 -0.3640 -0.4990
11099TIP3    H154788   5.537   5.003   3.245 -1.3605 -2.0352  1.2430
11099TIP3    H254789   5.502   5.044   3.103  3.0147  0.1155  0.6006
11100TIP3   OH254790   5.726   6.193  14.691  0.4498 -0.5059 -0.1381
11100TIP3    H154791   5.793   6.163  14.630 -0.7589 -1.4140 -1.0830
11100TIP3    H254792   5.680   6.113  14.718 -0.0999  0.0630  0.6711
11101TIP3   OH254793   5.339   4.424  14.778  0.3028  0.0235 -0.0165
11101TIP3    H154794   5.351   4.419  14.683  2.5636 -3.8530  0.2482
11101TIP3    H254795   5.400   4.492  14.806  1.4853 -0.4953 -1.1851
11102TIP3   OH254796   6.565   1.049   2.441 -0.3984  0.4048  0.2692
11102TIP3    H154797   6.512   1.090   2.508 -1.8054 -0.4441 -0.2808
11102TIP3    H254798   6.609   0.977   2.486 -0.3324  0.6289  0.5607
11103TIP3   OH254799   0.125   4.091  14.233  0.5275  0.4113 -0.1215
11103TIP3    H154800   0.163   4.112  14.148 -1.9946  0.6308 -1.2870
11103TIP3    H254801   0.101   4.176  14.271 -0.3333  0.2263 -0.2123
11104TIP3   OH254802   5.679   3.087   2.009  0.0968  0.0787 -0.6803
11104TIP3    H154803   5.751   3.033   2.041 -0.1261  0.6949  0.9329
11104TIP3    H254804   5.699   3.175   2.039 -0.1654  0.6952 -2.2392
11105TIP3   OH254805   3.171   1.724   1.869 -0.0410 -0.2827  0.4573
11105TIP3    H154806   3.159   1.795   1.931  0.9923 -1.0361  1.5743
11105TIP3    H254807   3.083   1.704   1.838 -0.3640  1.3837  0.1933
11106TIP3   OH254808   5.263   6.165  11.851 -0.4382  0.8679  0.3972
11106TIP3    H154809   5.282   6.085  11.900  0.3081 -0.4634 -1.9138
11106TIP3    H254810   5.303   6.235  11.903  2.2587 -0.7234  0.6744
11107TIP3   OH254811   3.207   6.755  11.258 -0.4549  0.6419 -0.1738
11107TIP3    H154812   3.233   6.814  11.329 -0.5510 -0.0713  0.4655
11107TIP3    H254813   3.285   6.744  11.205 -0.6757  2.0764 -0.8388
11108TIP3   OH254814   1.556   6.697   0.633 -0.2765  0.2670  0.6020
11108TIP3    H154815   1.472   6.677   0.676 -0.3009  2.4639  1.7099
11108TIP3    H254816   1.577   6.785   0.662  0.4620  1.3599 -2.8004
11109TIP3   OH254817   1.193   5.446  10.726  0.1628 -0.2349 -0.0846
11109TIP3    H154818   1.187   5.360  10.685  3.4109 -1.1212  0.9615
11109TIP3    H254819   1.164   5.431  10.816  2.5462 -0.8164  0.6557
11110TIP3   OH254820   3.074   6.119   2.060  0.0225 -0.0405  0.1979
11110TIP3    H154821   3.076   6.129   1.965 -0.1764 -0.6774  0.1227
11110TIP3    H254822   3.153   6.164   2.090  0.2701 -0.1307 -0.3016
11111TIP3   OH254823   3.237   3.786   1.521 -0.0467 -0.3088  0.6103
11111TIP3    H154824   3.322   3.742   1.524  0.1712  0.1400  1.0479
11111TIP3    H254825   3.183   3.728   1.468  0.3903 -0.8504  0.7407
11112TIP3   OH254826   3.684   3.690  16.891 -0.2495  0.1362 -0.2207
11112TIP3    H154827   3.681   3.678  16.796 -0.1625 -1.2882 -0.0703
11112TIP3    H254828   3.598   3.662  16.921 -0.3570  0.8003  0.1132
11113TIP3   OH254829   6.619   5.602   2.843  0.5299 -0.4393 -0.4702
11113TIP3    H154830   6.625   5.555   2.760  1.2104 -2.9131  0.8952
11113TIP3    H254831   6.526   5.600   2.866  0.6296 -1.6829 -0.1442
11114TIP3   OH254832   3.386   5.879   4.102  0.2338  0.5589  0.2601
11114TIP3    H154833   3.378   5.792   4.062  0.9702  0.3577  0.5406
11114TIP3    H254834   3.477   5.905   4.087  0.1661  1.0531  0.6453
11115TIP3   OH254835   4.153   6.572   5.102 -0.6211 -0.1458 -0.5095
11115TIP3    H154836   4.143   6.614   5.188 -2.0859 -0.6831 -0.3821
11115TIP3    H254837   4.069   6.587   5.059 -0.7684 -1.9185 -0.9109
11116TIP3   OH254838   4.923   4.399   2.517 -0.1917 -0.4212 -0.3464
11116TIP3    H154839   4.852   4.341   2.491 -0.2237 -0.4160 -0.2726
11116TIP3    H254840   4.912   4.477   2.462 -2.0582  0.8605  1.6772
11117TIP3   OH254841   5.594   4.652   3.786 -0.1726 -0.0018  0.6267
11117TIP3    H154842   5.557   4.569   3.758 -2.6225  1.3204 -0.2958
11117TIP3    H254843   5.687   4.634   3.799 -0.3359 -2.4606 -1.1428
11118TIP3   OH254844   1.093   3.325  13.390  0.1736 -0.7370  0.5975
11118TIP3    H154845   1.146   3.337  13.312  1.6046 -0.7322  1.5262
11118TIP3    H254846   1.014   3.281  13.359  0.3723 -0.0637 -0.9429
11119TIP3   OH254847   1.039   0.802  10.877 -0.7067  0.3432  0.7658
11119TIP3    H154848   1.098   0.814  10.951 -0.4178 -0.2953  0.6450
11119TIP3    H254849   1.093   0.761  10.810 -1.6366 -1.6560  1.1694
11120TIP3   OH254850   4.934   5.334   0.535 -0.0007  0.0540 -0.3359
11120TIP3    H154851   5.016   5.365   0.496  0.3865  0.8763  1.0520
11120TIP3    H254852   4.956   5.320   0.627 -2.0155  2.8073  0.6949
11121TIP3   OH254853   3.158   0.062   6.637  0.2412 -0.0357  1.1073
11121TIP3    H154854   3.118   0.149   6.631 -0.2526 -0.3352 -2.5962
11121TIP3    H254855   3.233   0.066   6.579  0.8265 -1.8071  1.6757
11122TIP3   OH254856   1.669   6.432  15.857 -0.0023  0.1016 -0.2830
11122TIP3    H154857   1.748   6.481  15.836  0.4829 -0.3861  0.3614
11122TIP3    H254858   1.675   6.416  15.951 -0.2060 -1.0955 -0.4606
11123TIP3   OH254859   2.548   5.777   6.321  0.5247  0.3290 -0.1237
11123TIP3    H154860   2.514   5.865   6.340  0.2830  0.4085 -0.8717
11123TIP3    H254861   2.496   5.719   6.377  0.3751  0.6164  0.0401
11124TIP3   OH254862   1.775   0.472  11.158 -0.4353  0.7150  0.1556
11124TIP3    H154863   1.771   0.550  11.103  0.9387  1.1205  0.6070
11124TIP3    H254864   1.697   0.478  11.214 -0.0810  2.0382  0.5423
11125TIP3   OH254865   3.157   5.001  14.276  0.0917 -0.3641  0.0508
11125TIP3    H154866   3.082   4.999  14.217  0.0913  0.1935  0.0290
11125TIP3    H254867   3.118   5.007  14.364  0.0428 -2.5684  0.2511
11126TIP3   OH254868   2.110   5.367  12.660 -0.2674  0.7090 -0.0170
11126TIP3    H154869   2.125   5.392  12.568 -2.0557 -0.6770 -0.7594
11126TIP3    H254870   2.015   5.359  12.667 -0.1116  0.0075  1.7476
11127TIP3   OH254871   2.755   2.617  11.848  0.3806 -0.0876 -0.2784
11127TIP3    H154872   2.765   2.598  11.941  0.1864  1.0937  0.0020
11127TIP3    H254873   2.702   2.545  11.814  0.4108 -0.5040  0.5339
11128TIP3   OH254874   1.676   3.303  13.981 -0.2947  0.4029  0.4391
11128TIP3    H154875   1.592   3.341  14.005  0.9421  2.1057  2.3045
11128TIP3    H254876   1.706   3.258  14.060  1.9341  2.5158  0.9321
11129TIP3   OH254877   5.189   3.513   1.334 -0.1203  0.0128  0.2629
11129TIP3    H154878   5.269   3.563   1.351  0.7727 -1.3138  0.1633
11129TIP3    H254879   5.139   3.567   1.273  0.2076  1.3354  1.1397
11130TIP3   OH254880   2.238   3.609   0.893 -0.4857 -0.3728  0.2970
11130TIP3    H154881   2.186   3.659   0.830 -0.4393 -1.7146 -0.8628
11130TIP3    H254882   2.328   3.640   0.880 -0.4971 -0.5466 -0.2160
11131TIP3   OH254883   4.496   1.930  15.983  0.7077 -0.0420  0.1044
11131TIP3    H154884   4.523   1.903  16.071 -0.3900  1.2117  0.8693
11131TIP3    H254885   4.510   1.852  15.929  0.2692 -1.2415  1.6374
11132TIP3   OH254886   6.180   3.409   1.241 -0.6619 -0.1469  0.3113
11132TIP3    H154887   6.123   3.337   1.213 -0.7772 -0.4067  1.1833
11132TIP3    H254888   6.198   3.458   1.161  1.4526 -2.5422 -0.7799
11133TIP3   OH254889   2.939   6.373   4.658 -0.3035 -0.7314  0.3268
11133TIP3    H154890   3.017   6.352   4.710 -0.4292  0.7296  1.1539
11133TIP3    H254891   2.866   6.358   4.718 -0.4353  1.2001  0.7146
11134TIP3   OH254892   4.425   3.973  13.374 -0.3265  0.0063 -0.0737
11134TIP3    H154893   4.362   4.027  13.328 -0.3488  0.9025  0.9773
11134TIP3    H254894   4.489   4.035  13.410  0.6566 -0.8090 -0.3693
11135TIP3   OH254895   0.143   1.837   2.735 -0.2286  0.5684 -0.5014
11135TIP3    H154896   0.145   1.744   2.716  4.4671  0.7664 -2.2147
11135TIP3    H254897   0.147   1.842   2.830  0.2995 -1.0061 -0.4102
11136TIP3   OH254898   6.554   6.828  11.919 -0.5531 -0.2904 -0.1257
11136TIP3    H154899   6.625   6.782  11.874  0.2551  0.2727  0.5649
11136TIP3    H254900   6.480   6.767  11.914 -0.3418 -0.4578 -1.7564
11137TIP3   OH254901   5.454   6.014  12.029 -0.2753 -0.8393 -0.9310
11137TIP3    H154902   5.419   5.940  12.079  0.4910 -0.3341  0.4255
11137TIP3    H254903   5.532   6.041  12.078  0.5737 -0.3542 -2.4725
11138TIP3   OH254904   4.748   2.400  11.988  0.2626  0.2945  0.1947
11138TIP3    H154905   4.670   2.454  11.977 -0.0143  0.2723  1.7919
11138TIP3    H254906   4.792   2.403  11.903 -0.2838  2.1914 -0.0656
11139TIP3   OH254907   1.876   1.792  14.890 -0.0097  0.3611  0.3094
11139TIP3    H154908   1.812   1.738  14.936  0.2246  0.0670  0.2967
11139TIP3    H254909   1.828   1.824  14.813 -0.0051 -0.2525  0.0418
11140TIP3   OH254910   1.019   5.004   4.788 -0.4553  0.0383  0.4661
11140TIP3    H154911   0.964   4.975   4.861  1.0389 -0.5318  1.4058
11140TIP3    H254912   1.107   5.005   4.823  0.1754  0.8308 -1.0416
11141TIP3   OH254913   5.983   5.313  17.146  0.0269 -0.8687 -0.1463
11141TIP3    H154914   5.977   5.219  17.164 -1.8690 -1.2613 -2.3455
11141TIP3    H254915   5.917   5.329  17.079  0.9001  1.9049 -0.4799
11142TIP3   OH254916   2.798   4.244   2.255 -0.2641  0.8782 -0.2972
11142TIP3    H154917   2.798   4.325   2.205  0.3385  1.5020  0.6828
11142TIP3    H254918   2.755   4.266   2.338  1.3942  0.6769  0.6768
11143TIP3   OH254919   2.587   4.692  11.020  0.2858  0.6356  0.0297
11143TIP3    H154920   2.493   4.682  11.003  0.4090  1.1990 -1.1066
11143TIP3    H254921   2.627   4.686  10.933  1.5833 -2.2332  0.6906
11144TIP3   OH254922   0.256   2.442   0.396  0.3904  0.0535 -0.1682
11144TIP3    H154923   0.205   2.504   0.344 -2.0078 -0.3825  1.4996
11144TIP3    H254924   0.284   2.492   0.473  0.0924 -0.4172  0.2536
11145TIP3   OH254925   4.688   1.880  12.098 -0.1303 -0.5230  0.4154
11145TIP3    H154926   4.677   1.955  12.157 -0.3327 -1.3913  1.5146
11145TIP3    H254927   4.733   1.916  12.022  1.5763  0.3625  1.7584
11146TIP3   OH254928   3.452   6.545   3.989 -0.0570 -0.4203  0.1844
11146TIP3    H154929   3.393   6.511   3.922 -2.3898  0.6320  1.5734
11146TIP3    H254930   3.534   6.560   3.944 -0.9020 -1.7182 -1.9200
11147TIP3   OH254931   1.435   6.144   5.723  0.2188  0.3150 -0.1596
11147TIP3    H154932   1.473   6.102   5.800 -1.2397  0.4719  0.6846
11147TIP3    H254933   1.507   6.196   5.686  1.1435 -0.3360  0.6626
11148TIP3   OH254934   0.280   6.814   1.406 -0.0062  0.3758  0.1180
11148TIP3    H154935   0.375   6.826   1.418  0.2530 -1.1524 -0.3205
11148TIP3    H254936   0.264   6.722   1.427 -1.0221 -0.0078 -2.0488
11149TIP3   OH254937   4.051   1.541  16.326  0.2480  0.4058  0.5554
11149TIP3    H154938   3.986   1.471  16.316  0.6907 -0.0774  1.0020
11149TIP3    H254939   4.132   1.503  16.292  0.0857  1.3479 -0.9171
11150TIP3   OH254940   4.097   6.730  15.544 -0.3210  0.5895 -0.2748
11150TIP3    H154941   4.192   6.736  15.550 -0.4308  2.7346  0.3037
11150TIP3    H254942   4.078   6.734  15.450  0.1333  0.6131 -0.3667
11151TIP3   OH254943   4.706   3.211  11.938 -0.4262  0.1529  0.2671
11151TIP3    H154944   4.614   3.235  11.931 -0.4952  0.0113  0.6857
11151TIP3    H254945   4.752   3.295  11.949 -0.4682  0.2512 -0.2708
11152TIP3   OH254946   4.928   1.806  14.266  0.3863  0.4447  0.1772
11152TIP3    H154947   4.871   1.830  14.339  2.6767 -2.0924  3.0840
11152TIP3    H254948   5.001   1.869  14.270  2.0136 -1.3916  2.2101
11153TIP3   OH254949   4.446   0.149   2.066 -0.3199 -0.0241 -0.3957
11153TIP3    H154950   4.389   0.187   2.000  0.3326  2.3971  0.3097
11153TIP3    H254951   4.531   0.191   2.051  0.3055 -0.7875  0.8383
11154TIP3   OH254952   0.516   6.189   1.483  0.5740 -0.1302 -0.5768
11154TIP3    H154953   0.463   6.255   1.438 -2.6003 -1.7266  0.5197
11154TIP3    H254954   0.544   6.231   1.564  0.4201  0.5431 -0.8656
11155TIP3   OH254955   2.110   5.108  15.910  0.2033 -0.6661  0.2209
11155TIP3    H154956   2.199   5.143  15.902  0.0916 -0.3653  0.2993
11155TIP3    H254957   2.109   5.062  15.994 -0.1085  0.4874  0.8714
11156TIP3   OH254958   6.307   5.629  12.408 -0.7899  0.3838 -0.5339
11156TIP3    H154959   6.228   5.595  12.367 -0.1201 -1.3044 -0.4833
11156TIP3    H254960   6.373   5.626  12.340  0.2535 -2.1584  0.4600
11157TIP3   OH254961   6.208   2.582   5.487  0.4723  0.5868 -0.4159
11157TIP3    H154962   6.213   2.537   5.404  0.1745  1.5205 -0.9564
11157TIP3    H254963   6.241   2.519   5.551 -1.6294 -1.0326 -0.8598
11158TIP3   OH254964   0.641   3.769  14.228 -0.1937  0.2093  0.3680
11158TIP3    H154965   0.725   3.744  14.266 -0.0741  1.5948  1.0526
11158TIP3    H254966   0.655   3.763  14.133  1.4307  2.6490  0.3786
11159TIP3   OH254967   4.588   6.315  11.895  0.5838 -0.3227  0.0996
11159TIP3    H154968   4.635   6.347  11.972  0.3487 -3.1833  1.5597
11159TIP3    H254969   4.535   6.390  11.867  2.1767  1.4245  1.4713
11160TIP3   OH254970   4.338   4.082   2.189  0.2487  0.1352  0.0278
11160TIP3    H154971   4.255   4.067   2.144 -0.3417  1.7650  0.4823
11160TIP3    H254972   4.349   4.004   2.244 -2.3465  0.9453  1.9176
11161TIP3   OH254973   3.252   1.680   2.642 -0.6894  0.3419  0.0244
11161TIP3    H154974   3.311   1.605   2.646 -1.3609 -0.1845  0.2945
11161TIP3    H254975   3.305   1.755   2.670 -0.1848 -0.1355  0.3539
11162TIP3   OH254976   1.077   5.271   1.952  0.3810 -0.0723  0.6556
11162TIP3    H154977   1.109   5.259   1.862 -0.2936  1.8431  0.1024
11162TIP3    H254978   1.052   5.183   1.981 -0.3895 -0.5984 -1.4268
11163TIP3   OH254979   6.242   1.383   1.722 -0.4378 -0.6614 -0.0927
11163TIP3    H154980   6.264   1.418   1.809 -0.2663 -1.6107  0.2597
11163TIP3    H254981   6.182   1.448   1.685 -1.3430 -0.7403  1.1592
11164TIP3   OH254982   4.356   2.533  16.423  0.2881  0.0935 -0.1843
11164TIP3    H154983   4.427   2.518  16.485 -0.1007 -1.3457 -0.0466
11164TIP3    H254984   4.332   2.445  16.392 -2.1114  0.4009  0.5549
11165TIP3   OH254985   6.109   5.335  13.208  0.2741  0.1186 -0.4319
11165TIP3    H154986   6.016   5.360  13.205  0.8612  2.3893 -2.1425
11165TIP3    H254987   6.148   5.398  13.268  0.9615  0.2138 -0.9702
11166TIP3   OH254988   3.869   1.539   3.080  0.4323 -0.9556 -0.4545
11166TIP3    H154989   3.787   1.575   3.047  1.5335 -0.5065 -3.0170
11166TIP3    H254990   3.887   1.464   3.024  1.1869 -1.7854  0.8462
11167TIP3   OH254991   6.552   4.205  11.353 -0.5509  0.2455  1.1672
11167TIP3    H154992   6.482   4.258  11.390 -0.0954  1.7258  0.0034
11167TIP3    H254993   6.581   4.253  11.275 -2.7651 -3.5690 -2.4270
11168TIP3   OH254994   2.226   5.346  11.910 -0.0032  0.1134  0.0342
11168TIP3    H154995   2.292   5.370  11.974 -1.4267 -0.7128  1.8980
11168TIP3    H254996   2.240   5.253  11.895  0.1729  0.2516 -0.7116
11169TIP3   OH254997   0.402   4.487   6.314 -0.4151 -0.5267  0.5660
11169TIP3    H154998   0.358   4.571   6.302 -0.2039 -0.5273 -0.2639
11169TIP3    H254999   0.346   4.439   6.375 -0.5807  0.1866  0.9790
11170TIP3   OH255000   1.741   2.804  16.566  0.1354 -0.1828  0.1324
11170TIP3    H155001   1.708   2.891  16.587 -0.5699 -0.4484  0.1528
11170TIP3    H255002   1.801   2.818  16.493  1.7559  0.6047  1.5533
11171TIP3   OH255003   3.792   6.306   0.057 -0.2942  0.0923  0.3902
11171TIP3    H155004   3.742   6.335   0.133  1.7906  0.9454  1.5314
11171TIP3    H255005   3.855   6.377   0.042  1.5670 -1.5524  0.0134
11172TIP3   OH255006   3.823   4.240   3.331 -0.0241  0.0124 -0.3156
11172TIP3    H155007   3.866   4.162   3.367 -3.2406 -1.2329  1.2547
11172TIP3    H255008   3.875   4.313   3.363  0.7930 -1.3480  1.6549
11173TIP3   OH255009   6.469   6.562  16.751  0.2407  0.5165 -0.2393
11173TIP3    H155010   6.495   6.472  16.728  0.1481  0.1992  0.8377
11173TIP3    H255011   6.470   6.609  16.668  1.1979 -0.2572 -0.6941
11174TIP3   OH255012   1.605   2.390   5.218  0.6386  0.1402  0.7610
11174TIP3    H155013   1.611   2.294   5.215  0.0710  0.0986  0.7392
11174TIP3    H255014   1.564   2.408   5.302 -1.6128  0.2048 -0.2579
11175TIP3   OH255015   0.371   2.218  16.353 -0.0594  0.4924  0.6108
11175TIP3    H155016   0.310   2.146  16.369 -0.6917  1.2553  1.8365
11175TIP3    H255017   0.340   2.257  16.271  0.4579 -0.7737 -0.2060
11176TIP3   OH255018   5.983   4.221   2.303  0.5166  0.3612  0.1079
11176TIP3    H155019   5.994   4.179   2.388 -0.7285  1.1412  0.6899
11176TIP3    H255020   5.943   4.153   2.248  1.0244 -0.0464  0.2355
11177TIP3   OH255021   5.617   4.288  15.243 -0.9741  0.2032  0.3066
11177TIP3    H155022   5.663   4.212  15.278 -1.0286  0.0497  0.0448
11177TIP3    H255023   5.647   4.361  15.298 -0.5762  0.0705  0.2691
11178TIP3   OH255024   1.969   2.735  14.390  0.3480 -0.1700  0.4398
11178TIP3    H155025   2.016   2.738  14.307 -0.4580 -0.7034 -0.0474
11178TIP3    H255026   1.886   2.692  14.369  0.0210 -0.0596  1.4647
11179TIP3   OH255027   3.674   5.673   3.637 -0.2642  0.2018  0.3833
11179TIP3    H155028   3.749   5.614   3.639  0.4189  1.0556  1.6698
11179TIP3    H255029   3.710   5.757   3.608 -0.3966  0.9676  2.2857
11180TIP3   OH255030   6.623   4.749   5.960 -0.2832 -0.4344  0.2935
11180TIP3    H155031   6.619   4.657   5.987 -2.7332 -0.2280  0.8166
11180TIP3    H255032   6.591   4.749   5.870  1.9590 -0.3261 -0.5699
11181TIP3   OH255033   3.281   0.214  14.385  0.1573  0.0072  0.0324
11181TIP3    H155034   3.203   0.170  14.350 -1.2753  1.4935  1.1595
11181TIP3    H255035   3.314   0.155  14.452  0.0306 -0.6531 -0.4700
11182TIP3   OH255036   1.265   3.410  13.191  0.1152  0.0496 -0.4746
11182TIP3    H155037   1.223   3.418  13.105  1.2228  1.1840 -0.9315
11182TIP3    H255038   1.342   3.466  13.186  1.2011 -1.2486  0.6554
11183TIP3   OH255039   6.642   3.019  12.866 -0.4665  0.4931  0.2348
11183TIP3    H155040   6.616   3.005  12.957 -0.1165 -0.0911  0.2523
11183TIP3    H255041   6.689   3.102  12.867  0.0936  0.1825  0.7165
11184TIP3   OH255042   6.429   5.372   3.544 -1.0194  0.4459  0.2555
11184TIP3    H155043   6.472   5.380   3.459  1.8644 -1.4199  1.3551
11184TIP3    H255044   6.467   5.442   3.597 -1.4814  0.5437  0.4575
11185TIP3   OH255045   6.692   5.760  16.575  0.4887 -0.2340  0.2790
11185TIP3    H155046   6.706   5.761  16.480  4.4307 -0.9654  0.6916
11185TIP3    H255047   6.730   5.843  16.605 -2.1282  0.7394  1.2026
11186TIP3   OH255048   5.304   0.817   5.653 -0.0135  0.1023 -0.0046
11186TIP3    H155049   5.358   0.887   5.689  0.0599  0.2733 -0.4440
11186TIP3    H255050   5.214   0.850   5.659 -0.2382 -0.6995  1.9413
11187TIP3   OH255051   1.563   2.977   6.198 -0.3231 -0.5773 -0.1724
11187TIP3    H155052   1.518   3.042   6.143  0.2273 -0.5336 -0.5760
11187TIP3    H255053   1.534   2.997   6.287 -1.9533 -1.2230 -0.5156
11188TIP3   OH255054   5.465   6.663  13.281  0.3848 -0.3363  0.1761
11188TIP3    H155055   5.525   6.732  13.255 -0.9088  0.6397 -0.3614
11188TIP3    H255056   5.515   6.609  13.341  1.0280  1.8810  1.7584
11189TIP3   OH255057   2.151   6.737  11.639 -0.1199  0.6839  0.3123
11189TIP3    H155058   2.076   6.678  11.632  0.5345 -0.3147  1.4377
11189TIP3    H255059   2.190   6.738  11.552 -0.4213 -0.1564  0.1675
11190TIP3   OH255060   0.817   5.522  13.538  0.4412 -0.1940 -0.0505
11190TIP3    H155061   0.776   5.553  13.619 -0.3798 -0.2014 -0.4537
11190TIP3    H255062   0.838   5.430  13.556  1.5802  0.1857  0.6459
11191TIP3   OH255063   4.782   6.616  13.898 -0.7541 -0.3059 -0.3217
11191TIP3    H155064   4.763   6.707  13.879  1.2405  0.4042  0.7215
11191TIP3    H255065   4.719   6.591  13.966 -0.3485  0.7933  0.4822
11192TIP3   OH255066   2.961   1.909   0.219  0.4983 -0.3323 -0.3981
11192TIP3    H155067   3.020   1.836   0.240 -0.3922 -0.9447  0.0222
11192TIP3    H255068   2.875   1.879   0.247 -0.2933 -0.0750 -2.3986
11193TIP3   OH255069   1.796   2.920  12.712 -0.1952  0.2474 -0.2112
11193TIP3    H155070   1.880   2.885  12.741 -0.5032  0.2558  0.7102
11193TIP3    H255071   1.801   3.013  12.731 -0.5553  0.1860  0.1945
11194TIP3   OH255072   4.903   0.672   1.948  0.6050 -0.3602 -0.3721
11194TIP3    H155073   4.883   0.741   1.884  1.0869  0.6823  0.5662
11194TIP3    H255074   4.849   0.693   2.024  0.8868 -0.9251 -0.0090
11195TIP3   OH255075   1.430   1.033   4.249  0.1590  0.0633 -0.1975
11195TIP3    H155076   1.498   1.019   4.183 -0.7812 -2.5845 -0.7161
11195TIP3    H255077   1.474   1.018   4.332  0.6833  0.4534 -0.3988
11196TIP3   OH255078   4.284   0.141   0.766  0.4615 -0.3926  0.2262
11196TIP3    H155079   4.209   0.098   0.807  0.1217  0.5381  0.5999
11196TIP3    H255080   4.309   0.209   0.828  1.8011 -0.8571  0.2402
11197TIP3   OH255081   4.549   4.050  15.011 -0.8309 -0.0634  0.2058
11197TIP3    H155082   4.492   4.053  15.087  0.1974 -0.6473  1.0155
11197TIP3    H255083   4.529   3.967  14.968  0.1451 -0.7706  1.0874
11198TIP3   OH255084   4.347   4.951  15.974 -0.0842 -0.1104 -0.1408
11198TIP3    H155085   4.289   4.948  16.051 -0.4286  2.3905 -0.2022
11198TIP3    H255086   4.334   5.039  15.939  1.1523 -0.7147 -2.2515
11199TIP3   OH255087   4.739   5.684   1.584  0.1027 -0.2517 -0.4607
11199TIP3    H155088   4.681   5.653   1.515 -0.9424  0.0698  0.2541
11199TIP3    H255089   4.798   5.745   1.541 -2.5474  2.4578 -0.5718
11200TIP3   OH255090   5.806   0.304   5.464 -0.4917 -0.0998 -0.0143
11200TIP3    H155091   5.782   0.252   5.541 -0.4315 -0.4971 -0.2631
11200TIP3    H255092   5.832   0.389   5.500  1.3797 -0.8871  0.6007
11201TIP3   OH255093   4.598   5.749  15.472  0.1273  0.3813  0.2559
11201TIP3    H155094   4.595   5.656  15.450  0.3440  0.3661  0.2944
11201TIP3    H255095   4.658   5.787  15.408 -1.1377  0.7616 -0.7399
11202TIP3   OH255096   6.731   4.132  12.000 -0.1838  0.4879  0.1792
11202TIP3    H155097   6.792   4.150  11.929  1.8903 -0.0620  1.7124
11202TIP3    H255098   6.702   4.042  11.985  0.8618  0.0976  0.4317
11203TIP3   OH255099   1.270   5.009   4.876  0.1825  0.3975  0.3210
11203TIP3    H155100   1.317   4.930   4.903 -0.2844 -0.3134 -0.8967
11203TIP3    H255101   1.282   5.070   4.949  1.6388 -0.3319  0.7275
11204TIP3   OH255102   2.305   2.571  16.524  0.0594  0.4794 -0.0405
11204TIP3    H155103   2.363   2.502  16.494 -1.6227 -0.5947 -0.9768
11204TIP3    H255104   2.307   2.637  16.454 -0.5498  0.0091 -0.5053
11205TIP3   OH255105   4.082   5.611   6.188 -0.0581 -0.1009 -0.5538
11205TIP3    H155106   4.070   5.689   6.134 -1.1128 -2.0735 -3.4302
11205TIP3    H255107   4.160   5.569   6.152 -0.8030 -1.4855 -0.6163
11206TIP3   OH255108   6.389   2.446   0.634 -0.3167 -0.1652  0.1423
11206TIP3    H155109   6.301   2.468   0.663 -1.1080 -1.5411 -1.1008
11206TIP3    H255110   6.444   2.460   0.712 -1.4913  1.3163  0.7576
11207TIP3   OH255111   1.780   3.914  11.692  0.0072  0.0769 -0.3012
11207TIP3    H155112   1.689   3.891  11.713 -0.5352  1.9260 -0.4135
11207TIP3    H255113   1.773   3.962  11.609  1.1276  0.0129 -0.4425
11208TIP3   OH255114   2.360   1.188   5.998 -0.2674 -0.0678  0.6340
11208TIP3    H155115   2.452   1.186   6.025  0.3602  0.2455 -1.2779
11208TIP3    H255116   2.331   1.097   6.003  1.6140 -1.0851 -3.0815
11209TIP3   OH255117   3.758   2.475  13.115 -0.2262  0.4846  0.1542
11209TIP3    H155118   3.821   2.415  13.155 -0.8036 -0.7030 -0.6643
11209TIP3    H255119   3.716   2.518  13.190 -1.0881 -1.4918  0.8699
11210TIP3   OH255120   1.988   3.879  11.082  0.0205 -0.3240 -0.0719
11210TIP3    H155121   1.942   3.951  11.039 -0.4719  0.0235  1.0108
11210TIP3    H255122   2.080   3.892  11.059 -0.2684 -0.3763 -1.3287
11211TIP3   OH255123   5.791   6.651  10.624 -0.2076 -0.3580 -0.4899
11211TIP3    H155124   5.750   6.575  10.665 -0.5866 -0.0594 -0.3131
11211TIP3    H255125   5.885   6.636  10.634 -0.2877 -0.0751  0.8871
11212TIP3   OH255126   6.269   2.253  14.334  0.9196  0.1163  0.5048
11212TIP3    H155127   6.242   2.257  14.426  0.7223  1.1367  0.4149
11212TIP3    H255128   6.234   2.170  14.302  0.9638 -0.2320  1.3406
11213TIP3   OH255129   2.629   1.330  17.024  0.6508  0.5476 -0.0783
11213TIP3    H155130   2.574   1.397  17.064  2.3831  2.4081 -0.6453
11213TIP3    H255131   2.578   1.299  16.949 -0.0473  1.4772 -0.0050
11214TIP3   OH255132   5.970   2.622   3.168  0.2025  0.4320  0.0550
11214TIP3    H155133   5.952   2.651   3.257  1.4849  0.4748  0.3093
11214TIP3    H255134   5.991   2.529   3.176  0.0848  0.3764 -0.2433
11215TIP3   OH255135   0.527   2.421   3.854 -0.0671 -0.3246 -0.3482
11215TIP3    H155136   0.536   2.361   3.780 -0.5907  1.4143 -1.9024
11215TIP3    H255137   0.518   2.508   3.813 -0.9374  0.6303  1.7424
11216TIP3   OH255138   2.112   0.279   5.909 -0.2395  0.1319  0.1930
11216TIP3    H155139   2.207   0.292   5.912 -0.3741  1.4690 -0.6470
11216TIP3    H255140   2.076   0.354   5.957 -0.8698 -0.3812  0.5350
11217TIP3   OH255141   6.183   2.224   1.481 -0.2365  0.1549  0.2521
11217TIP3    H155142   6.146   2.308   1.507 -1.0389  0.1845 -0.9034
11217TIP3    H255143   6.156   2.213   1.390  0.2340 -1.1518  0.2494
11218TIP3   OH255144   0.960   1.306  12.091  0.1557  0.0627 -0.3008
11218TIP3    H155145   1.013   1.357  12.030  1.9297 -1.0671  0.2518
11218TIP3    H255146   0.954   1.361  12.169  0.2504  0.3032 -0.4583
11219TIP3   OH255147   0.285   5.986   0.292 -0.2209 -0.1068 -0.1743
11219TIP3    H155148   0.207   6.040   0.305  0.1519  0.5855 -0.7396
11219TIP3    H255149   0.308   6.000   0.200 -0.1723 -1.3172 -0.3580
11220TIP3   OH255150   6.041   2.503   1.378 -0.1719 -0.0442 -0.7105
11220TIP3    H155151   5.959   2.520   1.424 -0.0737  1.5717 -1.0791
11220TIP3    H255152   6.016   2.492   1.287  0.1100  1.8659 -1.0639
11221TIP3   OH255153   3.380   2.458  11.440  0.0583  0.0957  0.9771
11221TIP3    H155154   3.416   2.393  11.501 -0.4834 -0.3150  0.8654
11221TIP3    H255155   3.359   2.534  11.495  0.6321  0.1585  1.1181
11222TIP3   OH255156   1.330   4.943  15.495  0.0786 -0.1044 -0.0696
11222TIP3    H155157   1.312   4.968  15.405  0.6106  0.3443 -0.0599
11222TIP3    H255158   1.278   4.864  15.510  0.2549 -0.3785 -0.8801
11223TIP3   OH255159   4.907   0.773   0.656  0.1275 -0.6915  0.5995
11223TIP3    H155160   4.877   0.850   0.609  0.8510  0.1713  1.4925
11223TIP3    H255161   4.995   0.796   0.686  0.4584 -1.9611  0.6841
11224TIP3   OH255162   3.311   6.475   5.858 -0.0808 -0.9258 -0.4357
11224TIP3    H155163   3.263   6.393   5.851 -0.6655 -0.9106  2.1269
11224TIP3    H255164   3.399   6.448   5.884  0.2045 -0.8010 -1.2687
11225TIP3   OH255165   1.010   1.547   1.278  0.1073  0.2117  0.2195
11225TIP3    H155166   1.080   1.612   1.271 -0.8088  1.1195 -1.0518
11225TIP3    H255167   0.991   1.522   1.187  0.0284 -1.4027  0.6545
11226TIP3   OH255168   6.741   0.478  16.695  0.1528 -0.8129 -0.5035
11226TIP3    H155169   6.766   0.532  16.770  0.1057 -0.3337 -0.8330
11226TIP3    H255170   6.675   0.418  16.730  0.3116 -0.7560 -0.1042
11227TIP3   OH255171   2.555   3.911   4.114 -0.7649 -0.0647 -0.0662
11227TIP3    H155172   2.599   3.971   4.174 -0.3965 -1.3164  0.9850
11227TIP3    H255173   2.489   3.964   4.070 -0.2752  1.1519  0.6183
11228TIP3   OH255174   0.361   1.894   1.668 -0.5531  0.1572  0.3874
11228TIP3    H155175   0.456   1.898   1.676 -0.6377  0.0905  1.6545
11228TIP3    H255176   0.331   1.979   1.699 -1.0195 -0.7735  2.7013
11229TIP3   OH255177   0.064   2.064  11.317  0.9351  0.2928  0.4765
11229TIP3    H155178   0.008   2.109  11.253  1.0337 -0.5196 -0.2055
11229TIP3    H255179   0.150   2.102  11.304  0.8007  0.6666  0.6611
11230TIP3   OH255180   5.470   2.160  15.014 -0.0860  0.4827 -0.1293
11230TIP3    H155181   5.485   2.106  14.936  1.0499 -2.0613  1.6944
11230TIP3    H255182   5.378   2.186  15.007 -1.1948 -2.9281 -0.5265
11231TIP3   OH255183   5.744   3.722  14.220  0.0241  0.6225  0.0434
11231TIP3    H155184   5.778   3.725  14.131 -0.3979  0.5349 -0.1226
11231TIP3    H255185   5.804   3.777  14.271  0.4584  0.3995 -0.2272
11232TIP3   OH255186   0.257   2.583  13.580 -0.7009  0.2791  0.2443
11232TIP3    H155187   0.288   2.560  13.667 -1.2871  3.0010  1.2709
11232TIP3    H255188   0.239   2.499  13.538  2.3066 -1.2276  1.6642
11233TIP3   OH255189   2.933   1.689  17.189 -0.4656  0.1248 -0.3249
11233TIP3    H155190   2.894   1.627  17.127 -0.7151 -0.2192  0.1643
11233TIP3    H255191   2.933   1.642  17.272 -1.1354  0.9718  0.1649
11234TIP3   OH255192   2.777   6.754   0.045 -0.0150 -0.4631 -0.0987
11234TIP3    H155193   2.686   6.780   0.029  0.0075 -0.6337 -0.5093
11234TIP3    H255194   2.795   6.784   0.134 -0.6598 -0.9382  0.1998
11235TIP3   OH255195   3.400   6.296   3.624 -0.2367 -0.0576  0.5646
11235TIP3    H155196   3.388   6.370   3.683  0.5457 -1.0954  2.1279
11235TIP3    H255197   3.341   6.229   3.657 -1.1478 -0.0637 -1.0010
11236TIP3   OH255198   6.139   5.708  11.877  0.1782 -0.4926 -0.3276
11236TIP3    H155199   6.160   5.775  11.812  3.1048  0.2894  1.2382
11236TIP3    H255200   6.078   5.751  11.938  0.1580 -0.0634 -0.6486
11237TIP3   OH255201   0.218   4.708   2.603  0.4587  0.2715 -0.0836
11237TIP3    H155202   0.169   4.670   2.676 -1.1449 -0.8552 -1.6713
11237TIP3    H255203   0.294   4.650   2.592 -0.3754 -0.7442 -0.5766
11238TIP3   OH255204   6.498   3.823  12.935 -0.2711 -0.5097  0.2134
11238TIP3    H155205   6.409   3.848  12.960 -0.9329 -2.6131  0.1885
11238TIP3    H255206   6.494   3.815  12.840 -0.0115 -0.5100  0.2025
11239TIP3   OH255207   6.632   1.092  14.687  0.4240  0.0209  0.2644
11239TIP3    H155208   6.670   1.096  14.775  1.1987 -0.0985 -0.0578
11239TIP3    H255209   6.697   1.133  14.631 -0.7777  1.6214 -0.0404
11240TIP3   OH255210   3.192   5.703   2.051  0.3741  0.0429 -0.4742
11240TIP3    H155211   3.233   5.754   2.121 -0.0004 -0.9103  0.4838
11240TIP3    H255212   3.237   5.618   2.055  0.4878  0.0346 -1.5474
11241TIP3   OH255213   4.487   4.955   6.828  0.1669 -0.6325  0.7527
11241TIP3    H155214   4.534   5.034   6.854  1.8987 -1.1859 -0.4820
11241TIP3    H255215   4.544   4.883   6.856  0.1091 -1.3311 -0.8050
11242TIP3   OH255216   4.695   4.025  12.508 -0.1108  0.0413 -0.1633
11242TIP3    H155217   4.685   4.032  12.413 -0.1866  0.6618 -0.1156
11242TIP3    H255218   4.763   4.088  12.530  0.7119 -0.8935  0.0705
11243TIP3   OH255219   0.514   6.053  12.543 -0.1953  0.2123  0.1594
11243TIP3    H155220   0.436   6.033  12.594  0.6187 -0.3599  1.2369
11243TIP3    H255221   0.541   5.969  12.506  0.4178  0.2285  0.5524
11244TIP3   OH255222   0.634   5.292  15.881  0.1395  0.0383 -0.0703
11244TIP3    H155223   0.567   5.342  15.835 -2.1430 -1.2126  1.6799
11244TIP3    H255224   0.585   5.235  15.940  2.6047 -3.0368 -0.7083
11245TIP3   OH255225   2.618   2.713   3.577 -0.6057 -0.2503 -0.8529
11245TIP3    H155226   2.560   2.649   3.536 -0.4210 -0.3959 -0.8869
11245TIP3    H255227   2.620   2.687   3.669  0.2953 -0.9278 -1.0501
11246TIP3   OH255228   4.093   4.721  14.627 -0.3261  0.2826 -0.3764
11246TIP3    H155229   4.178   4.740  14.586 -0.2701 -0.3466 -0.5692
11246TIP3    H255230   4.031   4.774  14.578 -0.6109 -2.1914 -2.9296
11247TIP3   OH255231   2.130   1.342  13.086 -0.9218 -0.0729 -0.6530
11247TIP3    H155232   2.175   1.360  13.168 -0.8871 -0.7235 -0.5248
11247TIP3    H255233   2.037   1.359  13.106 -1.2632 -2.5474  0.2641
11248TIP3   OH255234   6.227   3.874   4.552 -0.2523 -0.4651  0.5817
11248TIP3    H155235   6.203   3.792   4.508 -1.2886  0.0025  0.2389
11248TIP3    H255236   6.308   3.853   4.599  0.3703 -1.2464 -0.7689
11249TIP3   OH255237   4.428   3.457   5.240 -0.2634  0.6144  0.1245
11249TIP3    H155238   4.416   3.432   5.332  1.6039 -0.1870  0.1917
11249TIP3    H255239   4.422   3.374   5.192 -0.1943  0.8881 -0.3693
11250TIP3   OH255240   5.038   6.645   2.834 -0.4375 -0.2914 -0.4403
11250TIP3    H155241   5.049   6.629   2.928 -1.5475 -1.2029 -0.4478
11250TIP3    H255242   5.108   6.707   2.812 -0.5795  0.4670  1.1113
11251TIP3   OH255243   3.616   1.216  11.406 -0.3206  0.3169 -0.0146
11251TIP3    H155244   3.665   1.192  11.485 -2.6027  1.4923  1.9182
11251TIP3    H255245   3.628   1.311  11.398 -0.1542  0.2157 -1.0719
11252TIP3   OH255246   1.356   5.751   1.862  0.1892 -0.0700 -0.2364
11252TIP3    H155247   1.289   5.817   1.843 -0.6420 -1.1986 -1.4306
11252TIP3    H255248   1.318   5.669   1.830  1.2130 -1.1273  1.1571
11253TIP3   OH255249   4.927   5.316  14.109  0.6637 -0.1410 -0.0764
11253TIP3    H155250   4.991   5.362  14.055 -0.3550  0.2151 -1.0068
11253TIP3    H255251   4.941   5.350  14.197  2.9105 -1.3329  0.0886
11254TIP3   OH255252   2.224   1.622   0.772  0.0889 -0.3655 -0.0195
11254TIP3    H155253   2.247   1.533   0.799 -1.8545 -1.0202 -0.3510
11254TIP3    H255254   2.247   1.625   0.679  0.3110 -0.4642  0.0304
11255TIP3   OH255255   3.699   6.132   5.926 -0.2809  0.2216 -0.2276
11255TIP3    H155256   3.622   6.075   5.933 -1.9032  2.2613 -0.2870
11255TIP3    H255257   3.662   6.221   5.926  2.1372  1.2895  0.1740
11256TIP3   OH255258   0.738   3.134  13.025 -0.3784 -0.5481 -0.4589
11256TIP3    H155259   0.657   3.161  13.069 -0.9935 -0.7027 -1.4560
11256TIP3    H255260   0.727   3.163  12.935  0.9774  0.0102 -0.4690
11257TIP3   OH255261   3.220   2.053   0.432  0.2638  0.2039  0.9361
11257TIP3    H155262   3.258   2.087   0.513 -2.6333  0.1142  2.4383
11257TIP3    H255263   3.184   1.968   0.456  1.6689 -1.0805 -1.1672
11258TIP3   OH255264   5.788   3.582   5.344  0.0133  0.3175  0.9974
11258TIP3    H155265   5.841   3.585   5.424  0.1514 -0.6251  0.9485
11258TIP3    H255266   5.729   3.508   5.358  0.6449 -0.4280 -0.1558
11259TIP3   OH255267   1.923   5.942   1.310  0.1186  0.1266 -0.2309
11259TIP3    H155268   1.829   5.963   1.304  0.2712  0.6514 -0.9525
11259TIP3    H255269   1.925   5.851   1.338 -0.5929  0.4217  0.8582
11260TIP3   OH255270   6.152   1.567  14.240  0.4106  0.0965 -0.5113
11260TIP3    H155271   6.240   1.564  14.204  1.6685  0.6255  2.2674
11260TIP3    H255272   6.110   1.640  14.196  2.4435  1.8091  0.2337
11261TIP3   OH255273   3.411   0.232  16.369  0.2476  0.2948 -0.5933
11261TIP3    H155274   3.358   0.217  16.291  0.8207  0.7842 -1.0868
11261TIP3    H255275   3.494   0.267  16.335 -0.5125  3.3422  0.3642
11262TIP3   OH255276   1.155   2.986   2.529 -0.0369  0.6420  0.1527
11262TIP3    H155277   1.114   3.044   2.593 -0.4535  1.2847 -0.6787
11262TIP3    H255278   1.090   2.917   2.515 -0.5768  1.2929 -0.6539
11263TIP3   OH255279   2.321   4.702   3.759 -0.1798  0.2500 -0.1751
11263TIP3    H155280   2.301   4.637   3.691  1.0434 -0.2551 -0.0781
11263TIP3    H255281   2.248   4.764   3.755 -1.9706 -1.6850  0.4241
11264TIP3   OH255282   6.096   3.027  13.983  0.6014 -0.1644 -0.2537
11264TIP3    H155283   6.145   3.097  13.939  0.0489  0.8205  0.6721
11264TIP3    H255284   6.005   3.044  13.961  0.4057 -0.2115  0.4962
11265TIP3   OH255285   2.911   5.127  11.551  0.0433  0.6638 -0.5057
11265TIP3    H155286   2.928   5.033  11.547 -2.7061  0.0414  0.1172
11265TIP3    H255287   2.840   5.141  11.488  0.0153  2.2280 -0.1844
11266TIP3   OH255288   6.674   3.423  14.513 -0.4686  0.0955  0.7332
11266TIP3    H155289   6.666   3.342  14.462 -0.1654  0.1010  0.6725
11266TIP3    H255290   6.729   3.398  14.588  0.2086  0.4118  0.3514
11267TIP3   OH255291   2.095   4.586   4.946 -0.0165 -0.1119 -0.0687
11267TIP3    H155292   2.070   4.666   4.899  2.5705  0.8129 -0.0278
11267TIP3    H255293   2.041   4.587   5.025 -0.2648  1.4317 -0.2265
11268TIP3   OH255294   2.287   3.802   1.413 -0.1360 -0.5720  0.1944
11268TIP3    H155295   2.243   3.729   1.370 -0.8476 -0.8019  1.2738
11268TIP3    H255296   2.272   3.787   1.506  0.8063  0.2656  0.4935
11269TIP3   OH255297   3.730   2.130   1.821 -0.0700 -0.2739  0.5277
11269TIP3    H155298   3.730   2.134   1.917  1.5234 -0.5156  0.5670
11269TIP3    H255299   3.641   2.102   1.798 -0.3621 -0.5977  1.9486
11270TIP3   OH255300   2.672   2.949   0.459 -0.5404 -0.7857  0.5010
11270TIP3    H155301   2.627   3.023   0.500 -0.7228 -0.8863  0.4854
11270TIP3    H255302   2.765   2.970   0.466 -0.6077 -0.3735  0.1498
11271TIP3   OH255303   1.224   0.731  10.668 -0.0389  0.2241 -0.1582
11271TIP3    H155304   1.244   0.638  10.673  0.2282  0.2161 -1.1265
11271TIP3    H255305   1.251   0.757  10.580 -0.1831  1.2004  0.0674
11272TIP3   OH255306   4.878   1.374  16.891  0.1981  0.1388  0.1662
11272TIP3    H155307   4.950   1.437  16.883  0.4360  0.0305  1.2573
11272TIP3    H255308   4.880   1.348  16.983 -1.2363  0.1268  0.2089
11273TIP3   OH255309   0.416   1.822  14.059  0.3958  0.5323 -0.4687
11273TIP3    H155310   0.403   1.807  14.153  0.8848  0.8507 -0.3444
11273TIP3    H255311   0.343   1.777  14.017 -0.8417  1.8638  0.1633
11274TIP3   OH255312   3.254   6.507   3.776  1.0595  0.6058 -0.7317
11274TIP3    H155313   3.200   6.495   3.854 -0.3076  0.0857 -1.7265
11274TIP3    H255314   3.231   6.594   3.744  0.2003  0.0790 -1.5914
11275TIP3   OH255315   4.592   3.970   3.713  0.3237  0.2350 -0.7266
11275TIP3    H155316   4.619   3.880   3.731 -2.8914 -0.7752 -0.2912
11275TIP3    H255317   4.630   4.021   3.784  1.0685 -1.0149 -0.1981
11276TIP3   OH255318   3.873   0.571  16.554 -0.3387 -0.3375  0.2375
11276TIP3    H155319   3.820   0.629  16.500  0.3291  0.5743  0.5306
11276TIP3    H255320   3.877   0.489  16.505 -2.8355 -0.7877  0.6809
11277TIP3   OH255321   2.398   2.779   4.786  0.3523  0.0367 -0.6166
11277TIP3    H155322   2.392   2.711   4.853  1.6653  1.2744  0.8062
11277TIP3    H255323   2.329   2.755   4.723 -1.0396 -1.0823  1.2144
11278TIP3   OH255324   6.106   6.550   3.389 -0.3355 -0.0100  0.1648
11278TIP3    H155325   6.106   6.640   3.421 -0.6265  0.0503  0.0012
11278TIP3    H255326   6.198   6.531   3.372 -0.2619  0.2219  0.2947
11279TIP3   OH255327   6.519   0.781  12.177 -0.1369 -0.7045  0.3063
11279TIP3    H155328   6.492   0.808  12.265 -2.3502 -3.2454  0.5508
11279TIP3    H255329   6.442   0.797  12.123  0.0843 -2.0859 -0.4539
11280TIP3   OH255330   5.571   6.471  13.455  0.0716 -0.0954 -0.0298
11280TIP3    H155331   5.533   6.510  13.534  0.8960 -0.8818  0.7683
11280TIP3    H255332   5.655   6.437  13.483  0.2153 -0.7132 -1.1756
11281TIP3   OH255333   6.721   1.868  15.581  0.0211 -0.5407 -0.3966
11281TIP3    H155334   6.708   1.788  15.632 -0.5082 -1.0864 -1.3545
11281TIP3    H255335   6.637   1.883  15.537  0.3623  0.0799 -0.8694
11282TIP3   OH255336   3.640   2.517  13.346  0.0050 -0.3177  0.1785
11282TIP3    H155337   3.643   2.428  13.382 -0.3355 -0.4669 -0.1452
11282TIP3    H255338   3.644   2.574  13.422 -2.0140 -0.6422  0.5809
11283TIP3   OH255339   4.806   3.296  11.532 -0.0959 -0.4065 -0.3343
11283TIP3    H155340   4.750   3.373  11.540  1.7232  0.7943  1.7189
11283TIP3    H255341   4.778   3.238  11.603 -0.2987 -0.8929 -0.8000
11284TIP3   OH255342   0.351   1.643  14.961 -0.1466  0.4411  0.2844
11284TIP3    H155343   0.375   1.714  14.901 -0.0889  2.7722  2.8765
11284TIP3    H255344   0.389   1.669  15.045 -1.5124 -1.8944  1.7280
11285TIP3   OH255345   1.783   0.301   6.076 -0.0707  0.0834 -0.0537
11285TIP3    H155346   1.696   0.295   6.116 -0.4433  0.4076 -0.7986
11285TIP3    H255347   1.843   0.275   6.146 -0.6950  0.7829  0.7693
11286TIP3   OH255348   2.212   1.715   2.781 -0.2930  0.0319 -0.1301
11286TIP3    H155349   2.146   1.672   2.726 -0.7601  0.2582  0.2457
11286TIP3    H255350   2.167   1.730   2.864 -0.2066  1.4281 -0.3207
11287TIP3   OH255351   6.633   6.046  12.702 -0.1734 -0.7334 -0.3530
11287TIP3    H155352   6.701   6.105  12.735  0.3657 -0.0869 -2.4428
11287TIP3    H255353   6.613   5.989  12.776  1.8055 -0.1940  0.6911
11288TIP3   OH255354   6.698   5.656  13.825  0.0034 -0.0595 -0.0725
11288TIP3    H155355   6.720   5.743  13.793 -1.9085  0.1594 -0.8972
11288TIP3    H255356   6.715   5.660  13.919 -0.6140  1.4010  0.0010
11289TIP3   OH255357   5.493   0.442   5.558 -0.1893 -0.0952 -0.1033
11289TIP3    H155358   5.432   0.478   5.623 -2.0914  0.0984 -1.8773
11289TIP3    H255359   5.520   0.517   5.505 -1.5200 -0.6767 -1.7191
11290TIP3   OH255360   6.298   0.424   2.120 -0.1506 -0.3195 -0.1122
11290TIP3    H155361   6.218   0.376   2.101  0.2132 -0.6413 -0.8771
11290TIP3    H255362   6.271   0.492   2.182 -0.8234 -1.0074  0.3676
11291TIP3   OH255363   0.726   0.426   4.975 -0.2429 -0.0764  0.3466
11291TIP3    H155364   0.756   0.427   5.066 -0.5974  2.8837  0.5270
11291TIP3    H255365   0.644   0.377   4.978  0.2009 -0.7987  1.4567
11292TIP3   OH255366   2.410   0.576  15.589  0.3832  0.4975  0.1948
11292TIP3    H155367   2.328   0.568  15.540 -0.2223  1.0628  1.0935
11292TIP3    H255368   2.465   0.634  15.535 -0.3104  1.1919  0.2259
11293TIP3   OH255369   1.262   2.629  10.368 -0.2624 -0.0178  0.3459
11293TIP3    H155370   1.167   2.621  10.367 -0.5172  2.3413  0.6277
11293TIP3    H255371   1.278   2.723  10.362  2.0863 -0.4346 -1.0696
11294TIP3   OH255372   1.560   1.025   1.839 -0.6045  0.7246  0.0168
11294TIP3    H155373   1.466   1.041   1.846 -0.8496  0.0377 -1.3227
11294TIP3    H255374   1.566   0.936   1.804  0.4840  1.5749 -2.1202
11295TIP3   OH255375   6.483   2.272  13.288  0.3248  0.1422  0.1637
11295TIP3    H155376   6.426   2.223  13.345  0.3999  1.3887  1.3613
11295TIP3    H255377   6.491   2.218  13.209 -1.5313 -0.5890  0.4384
11296TIP3   OH255378   5.984   2.142  14.679  0.5081 -0.3025  0.1287
11296TIP3    H155379   6.000   2.197  14.602 -0.6461 -0.6599 -0.4009
11296TIP3    H255380   6.068   2.102  14.698  1.0820  0.6791 -0.2488
11297TIP3   OH255381   2.229   1.742  15.736  0.5149 -0.5407  0.2682
11297TIP3    H155382   2.137   1.719  15.738 -0.4582  2.4825 -1.7203
11297TIP3    H255383   2.253   1.739  15.644  1.3902  1.8065  0.3269
11298TIP3   OH255384   6.814   4.843  10.494 -0.2020 -0.0955  0.4581
11298TIP3    H155385   6.774   4.757  10.488 -0.3171  0.0171 -0.4995
11298TIP3    H255386   6.767   4.887  10.565 -1.0452 -0.3505  0.0669
11299TIP3   OH255387   3.684   6.563  13.764 -0.1835 -0.6070 -0.2209
11299TIP3    H155388   3.719   6.476  13.742 -0.3505 -0.5395 -0.7574
11299TIP3    H255389   3.649   6.596  13.682 -0.8735 -0.3767  0.1578
11300TIP3   OH255390   1.012   4.275  14.476  0.2466 -0.1895  0.6510
11300TIP3    H155391   1.097   4.263  14.517  0.3758  0.6146  0.6314
11300TIP3    H255392   1.032   4.299  14.385 -0.0398 -2.9616 -0.2315
11301TIP3   OH255393   4.882   5.629  17.121 -0.6957  0.6034 -0.0515
11301TIP3    H155394   4.856   5.621  17.029  1.3064  0.5621 -0.6515
11301TIP3    H255395   4.967   5.673  17.118 -0.5354  0.4793  1.7765
11302TIP3   OH255396   4.681   1.786  16.559  0.2974  0.8341  0.3912
11302TIP3    H155397   4.671   1.817  16.469  1.4067 -0.2149 -0.1220
11302TIP3    H255398   4.742   1.712  16.552  0.6380  0.9267  2.0463
11303TIP3   OH255399   2.990   0.024  13.987 -0.3177  0.1611  0.3921
11303TIP3    H155400   2.917   0.047  14.045 -0.8585  2.3796 -1.0438
11303TIP3    H255401   2.985  -0.071  13.980 -3.6594  0.2348 -0.2970
11304TIP3   OH255402   4.579   5.235   4.465  0.4210 -0.1033 -0.1777
11304TIP3    H155403   4.667   5.269   4.483  0.0550  1.5306 -1.2162
11304TIP3    H255404   4.554   5.277   4.382 -1.2817 -0.6407  0.0280
11305TIP3   OH255405   4.876   4.662  17.139 -0.1309  0.6299 -0.1064
11305TIP3    H155406   4.795   4.709  17.158 -1.1215 -0.5734 -1.1620
11305TIP3    H255407   4.929   4.724  17.090 -0.5734  1.3114  0.2672
11306TIP3   OH255408   4.232   0.349   3.904  0.4046  0.7529  0.4863
11306TIP3    H155409   4.262   0.379   3.989  0.7982 -0.1833  0.6833
11306TIP3    H255410   4.141   0.321   3.919  1.1218 -1.4199  1.1153
11307TIP3   OH255411   5.258   2.948   1.548  0.5057 -0.9160  0.4705
11307TIP3    H155412   5.233   3.021   1.491  0.4565  1.8173  3.6888
11307TIP3    H255413   5.175   2.916   1.584  0.7178 -0.6468  1.2113
11308TIP3   OH255414   3.305   3.653   3.378  0.0101 -0.2441  1.1364
11308TIP3    H155415   3.254   3.733   3.393 -2.9275 -1.7044 -0.0607
11308TIP3    H255416   3.285   3.630   3.287 -0.0161 -2.7911  1.7193
11309TIP3   OH255417   1.309   5.326  12.697 -0.0477  0.0105 -0.0476
11309TIP3    H155418   1.336   5.290  12.613  0.8012  0.6813 -0.0814
11309TIP3    H255419   1.214   5.315  12.699 -0.0402 -0.2933 -0.9570
11310TIP3   OH255420   3.414   2.282  14.833 -0.4456 -0.3849 -0.0991
11310TIP3    H155421   3.353   2.311  14.901 -0.1150 -1.6191  0.7641
11310TIP3    H255422   3.411   2.351  14.767  0.6554  1.8504  2.0166
11311TIP3   OH255423   1.298   2.777  14.289 -0.3357  0.2146  0.1475
11311TIP3    H155424   1.214   2.755  14.331 -0.3591  1.4946  0.8023
11311TIP3    H255425   1.281   2.859  14.243  0.9222  1.2678  1.4892
11312TIP3   OH255426   0.964   1.173   6.538 -0.0347  0.2314 -0.1321
11312TIP3    H155427   1.022   1.124   6.596 -0.8324  0.6293  1.0351
11312TIP3    H255428   0.969   1.263   6.569 -0.2030  0.5254 -0.9204
11313TIP3   OH255429   3.563   4.613   0.504 -0.4990 -0.0103 -0.2921
11313TIP3    H155430   3.623   4.611   0.429 -0.6843  0.8708 -0.4735
11313TIP3    H255431   3.483   4.573   0.470 -0.3973 -0.1259 -0.3982
11314TIP3   OH255432   4.535   6.575   4.506  0.0913  0.1882  0.0497
11314TIP3    H155433   4.623   6.538   4.498 -0.1076 -0.1152 -0.8348
11314TIP3    H255434   4.477   6.502   4.484 -0.3364  0.7406 -0.6999
11315TIP3   OH255435   6.260   4.295   2.135  0.2504 -0.9728  0.0673
11315TIP3    H155436   6.247   4.204   2.108 -0.2458 -0.6578 -0.8301
11315TIP3    H255437   6.171   4.328   2.152  0.4528 -0.7481  0.7100
11316TIP3   OH255438   6.595   0.527   3.849  0.0097 -0.0923 -0.2794
11316TIP3    H155439   6.548   0.538   3.932 -0.5612 -0.0876 -0.5992
11316TIP3    H255440   6.526   0.507   3.785  0.6288 -1.8556 -0.4245
11317TIP3   OH255441   0.614   1.303   3.923 -0.2345  0.4943  0.6514
11317TIP3    H155442   0.588   1.263   4.006 -1.5768  0.6402  0.3144
11317TIP3    H255443   0.636   1.229   3.866 -3.8767  0.0033 -0.3703
11318TIP3   OH255444   4.193   4.018  13.869 -0.7331 -0.5810  0.8503
11318TIP3    H155445   4.218   3.931  13.899 -1.4769 -0.9433  0.4390
11318TIP3    H255446   4.119   4.003  13.811  0.2542  0.1587 -0.6780
11319TIP3   OH255447   6.473   1.012   5.452  0.1972 -0.6653  0.1263
11319TIP3    H155448   6.417   1.045   5.382  2.1148 -1.3858 -1.8730
11319TIP3    H255449   6.537   0.956   5.407  1.1735 -1.6432  2.5438
11320TIP3   OH255450   5.125   2.592   5.441 -0.1720 -0.0184 -0.0275
11320TIP3    H155451   5.076   2.510   5.440  0.1892 -0.3335  2.0499
11320TIP3    H255452   5.060   2.659   5.465  0.3294 -0.4725  2.9708
11321TIP3   OH255453   0.613   6.242   5.957  0.1434  0.2947 -0.0001
11321TIP3    H155454   0.695   6.211   5.917  0.9350 -0.4260  2.0451
11321TIP3    H255455   0.609   6.195   6.041 -2.4248  0.2664 -0.0825
11322TIP3   OH255456   6.821   5.354   5.316 -0.7076  0.1290 -0.4370
11322TIP3    H155457   6.739   5.378   5.360 -0.1889  5.2321 -1.6721
11322TIP3    H255458   6.888   5.404   5.362  1.4034 -1.8627 -1.1507
11323TIP3   OH255459   4.688   6.616  13.064 -0.2152  0.4192 -0.1622
11323TIP3    H155460   4.653   6.704  13.046  0.4281  1.1961  2.0913
11323TIP3    H255461   4.611   6.559  13.064 -0.5406  0.7189 -2.6662
11324TIP3   OH255462   0.199   3.052  13.916 -0.5752  0.0463  0.1392
11324TIP3    H155463   0.251   3.131  13.931 -0.0497 -0.4827  1.2065
11324TIP3    H255464   0.130   3.080  13.856  0.2324  1.0537 -0.3559
11325TIP3   OH255465   2.091   4.935   0.010  0.2539  0.4656  0.1553
11325TIP3    H155466   2.075   4.893   0.095 -0.7165  0.9717  0.2329
11325TIP3    H255467   2.173   4.982   0.022  1.5845 -1.6740 -0.0541
11326TIP3   OH255468   3.204   3.482  12.193 -0.0111 -0.6572  0.1845
11326TIP3    H155469   3.149   3.558  12.208 -0.4636 -0.8548 -0.4282
11326TIP3    H255470   3.260   3.506  12.120  0.9784 -0.3260  1.0394
11327TIP3   OH255471   1.321   1.074   5.444 -0.6331  0.4359 -0.6183
11327TIP3    H155472   1.399   1.123   5.470  1.3403 -2.3955 -0.7587
11327TIP3    H255473   1.271   1.136   5.391  1.3192  2.4717 -0.2624
11328TIP3   OH255474   2.326   2.023  15.539 -0.1633 -0.2558  0.5523
11328TIP3    H155475   2.298   2.089  15.602  0.4215 -1.0609  1.6799
11328TIP3    H255476   2.413   1.997  15.568 -0.6504 -2.0022  0.5308
11329TIP3   OH255477   3.214   4.212  14.914  0.2892  0.0185 -0.1351
11329TIP3    H155478   3.244   4.177  14.998  2.5408 -0.7069 -1.1547
11329TIP3    H255479   3.144   4.153  14.887  1.2085 -1.2554  0.1447
11330TIP3   OH255480   6.095   2.194  16.047 -0.9183 -0.1432  0.0694
11330TIP3    H155481   6.076   2.134  15.975  0.5098  0.8728 -1.2011
11330TIP3    H255482   6.037   2.165  16.118 -1.6194 -1.8123 -1.1253
11331TIP3   OH255483   3.444   5.737   3.445  0.0378  0.5185 -0.4206
11331TIP3    H155484   3.432   5.820   3.398  1.3575 -0.2977 -2.3506
11331TIP3    H255485   3.536   5.738   3.471 -0.3381  0.3349  1.0187
11332TIP3   OH255486   6.663   1.482   1.301  0.2831 -0.1973 -0.5509
11332TIP3    H155487   6.636   1.538   1.374 -0.8460  0.2753 -1.3062
11332TIP3    H255488   6.709   1.409   1.343 -3.5641 -1.9752  1.0410
11333TIP3   OH255489   0.048   1.867   1.963 -0.5228 -0.2544  0.0810
11333TIP3    H155490   0.037   1.930   1.892  2.1165 -0.5725 -0.6981
11333TIP3    H255491   0.028   1.917   2.042 -0.9975  0.8372 -0.7001
11334TIP3   OH255492   3.190   2.707   2.723  0.4240 -0.2413  0.1651
11334TIP3    H155493   3.199   2.783   2.781  1.2247  2.0199 -2.6303
11334TIP3    H255494   3.096   2.689   2.721  0.1623  0.9963  0.5667
11335TIP3   OH255495   3.402   1.603  12.623  0.2375  0.4324  1.0181
11335TIP3    H155496   3.393   1.662  12.698 -0.2281  2.1706 -0.3386
11335TIP3    H255497   3.320   1.613  12.575 -0.2145 -2.0121  1.1574
11336TIP3   OH255498   6.671   0.326   0.020 -0.2552 -0.5972 -0.1810
11336TIP3    H155499   6.647   0.418   0.008  0.2169 -0.5184 -0.5734
11336TIP3    H255500   6.749   0.314  -0.034  1.1243 -0.6269  1.7128
11337TIP3   OH255501   5.238   3.629  12.829 -0.3057  0.1215 -0.1863
11337TIP3    H155502   5.155   3.670  12.856 -1.3819 -2.2030  0.2741
11337TIP3    H255503   5.303   3.667  12.888 -1.7194 -0.7808  2.0855
11338TIP3   OH255504   6.268   6.111   5.223  0.2414 -0.5366  0.2739
11338TIP3    H155505   6.212   6.034   5.218 -0.7150  0.2086 -1.0329
11338TIP3    H255506   6.286   6.121   5.317 -1.4729 -1.0332  0.6955
11339TIP3   OH255507   5.869   5.881  11.072 -0.2353 -0.1244  0.0044
11339TIP3    H155508   5.820   5.924  11.003  0.0344  0.0406 -0.0829
11339TIP3    H255509   5.960   5.892  11.048 -0.1312  0.1358  0.5093
11340TIP3   OH255510   5.683   2.159   5.207 -0.4547  0.1514 -0.2884
11340TIP3    H155511   5.674   2.191   5.117  2.1123  0.8939 -0.3528
11340TIP3    H255512   5.747   2.218   5.247  1.8496 -2.7983  0.6839
11341TIP3   OH255513   1.090   3.723   5.491 -0.5077 -0.8651 -0.3942
11341TIP3    H155514   1.097   3.801   5.437 -1.9674  1.2640  2.2720
11341TIP3    H255515   0.996   3.713   5.507 -0.0857 -0.7016  2.6020
11342TIP3   OH255516   0.323   3.561   1.352  0.5334 -0.2104 -0.0518
11342TIP3    H155517   0.309   3.470   1.377  0.6984 -0.2350 -0.0445
11342TIP3    H255518   0.236   3.601   1.355  0.7412  0.2527  2.3926
11343TIP3   OH255519   4.347   0.114   0.395  0.9399 -0.1927 -0.0583
11343TIP3    H155520   4.282   0.149   0.456  0.3936 -2.2078  0.5736
11343TIP3    H255521   4.379   0.191   0.348 -2.2022  0.8596 -0.7231
11344TIP3   OH255522   2.751   3.727  14.048  0.3494 -0.5651 -0.8888
11344TIP3    H155523   2.712   3.774  13.975 -0.1298  1.5055  0.6145
11344TIP3    H255524   2.807   3.791  14.091  0.5757 -1.6967  0.6088
11345TIP3   OH255525   2.559   6.802   1.436  0.2059  0.1823  1.0642
11345TIP3    H155526   2.550   6.794   1.341  0.1027  0.9645  1.0010
11345TIP3    H255527   2.543   6.895   1.453  1.8923  0.3958  1.6506
11346TIP3   OH255528   6.194   1.871  13.013 -0.2274  0.3048  0.4480
11346TIP3    H155529   6.239   1.937  13.066 -0.6135 -0.7489  2.1819
11346TIP3    H255530   6.105   1.905  13.002 -0.1277  0.5602  0.4347
11347TIP3   OH255531   1.989   3.742  12.798 -0.3264  0.1557 -0.3236
11347TIP3    H155532   2.077   3.730  12.761 -0.3022 -0.8025  0.0386
11347TIP3    H255533   1.943   3.793  12.731 -0.0570 -0.9275 -1.3694
11348TIP3   OH255534   1.567   3.187  11.454  0.2341  0.2551  0.2033
11348TIP3    H155535   1.541   3.227  11.537  0.3323 -3.8135  2.4350
11348TIP3    H255536   1.486   3.183  11.403 -0.2581  0.9970  0.8958
11349TIP3   OH255537   0.993   4.675   0.865  0.5586  0.1179  0.1443
11349TIP3    H155538   1.082   4.677   0.901  1.1089 -3.3485 -0.6576
11349TIP3    H255539   0.936   4.670   0.942  1.1453  0.9039  0.6441
11350TIP3   OH255540   6.809   2.748  15.589  0.4057 -0.7842  0.0636
11350TIP3    H155541   6.805   2.722  15.681  1.7972 -0.2311  0.3122
11350TIP3    H255542   6.899   2.777  15.577 -0.4612  1.8537 -0.7397
11351TIP3   OH255543   6.011   2.863  14.816  0.2146  0.0728  0.1434
11351TIP3    H155544   6.072   2.817  14.873  1.4032  0.0932 -1.0547
11351TIP3    H255545   6.050   2.856  14.729 -0.9126  1.0985 -0.4729
11352TIP3   OH255546   6.033   2.413  13.188  0.4156 -0.8808  0.3914
11352TIP3    H155547   5.982   2.384  13.113  1.7080 -0.9664 -0.5011
11352TIP3    H255548   5.969   2.442  13.252 -0.6906  0.4753 -1.2753
11353TIP3   OH255549   5.683   2.897  11.755  0.2141 -0.0472  0.1063
11353TIP3    H155550   5.679   2.904  11.850 -1.2870  0.8029  0.0136
11353TIP3    H255551   5.740   2.968  11.728  0.1812  0.0659  0.3315
11354TIP3   OH255552   4.745   3.679   1.521  0.1524  0.0466 -0.0756
11354TIP3    H155553   4.739   3.696   1.615  1.6131  0.0919  0.0329
11354TIP3    H255554   4.677   3.734   1.482 -1.3103 -0.8983  1.0286
11355TIP3   OH255555   2.961   3.071   0.031  0.0760  0.1138 -0.7186
11355TIP3    H155556   2.933   2.987   0.068 -0.0818  0.3748 -0.2452
11355TIP3    H255557   2.943   3.063  -0.063  2.0335 -1.1960 -1.0424
11356TIP3   OH255558   1.175   0.261  14.253  0.0669 -0.8759 -0.2811
11356TIP3    H155559   1.178   0.350  14.219  0.9515  0.3163  2.6008
11356TIP3    H255560   1.218   0.208  14.186  0.3962  0.9979 -1.6444
11357TIP3   OH255561   6.052   2.500  16.001 -0.3640 -0.1946  0.2701
11357TIP3    H155562   6.046   2.464  16.089 -0.6286  0.2526  0.4368
11357TIP3    H255563   5.990   2.449  15.949  0.6829 -1.2832  0.0582
11358TIP3   OH255564   3.685   3.082  14.203 -0.4141 -0.0896 -0.0935
11358TIP3    H155565   3.667   3.005  14.149  0.6124  0.4559 -1.2659
11358TIP3    H255566   3.710   3.045  14.289  0.1179 -1.0695 -0.6475
11359TIP3   OH255567   4.666   2.257  15.574  0.7046 -0.5830  0.3928
11359TIP3    H155568   4.592   2.257  15.513  2.0837  0.5690 -1.3563
11359TIP3    H255569   4.667   2.346  15.609  1.4223 -0.5117  0.1950
11360TIP3   OH255570   1.313   3.920   2.891 -0.4322 -0.2670  0.1041
11360TIP3    H155571   1.345   4.010   2.899 -1.1277  0.1834 -1.6279
11360TIP3    H255572   1.318   3.901   2.797 -4.0344 -0.5350 -0.1831
11361TIP3   OH255573   6.762   0.089  16.702  0.2525 -0.0409 -0.0891
11361TIP3    H155574   6.816   0.161  16.670  0.5110  0.6554  1.7908
11361TIP3    H255575   6.820   0.038  16.758 -0.5813 -0.2642  0.5956
11362TIP3   OH255576   3.358   4.832   1.925 -0.3558  0.3677  0.1029
11362TIP3    H155577   3.403   4.781   1.992  1.8521  0.9232 -0.8765
11362TIP3    H255578   3.288   4.775   1.894 -0.2291 -0.6170  1.5438
11363TIP3   OH255579   3.081   0.172   4.431  0.3828  0.0091  0.6081
11363TIP3    H155580   2.995   0.156   4.392  0.5940  1.2897 -0.4955
11363TIP3    H255581   3.125   0.087   4.429 -0.5143 -0.4612  0.2824
11364TIP3   OH255582   2.042   6.550   4.839 -0.1187 -0.5115  0.1657
11364TIP3    H155583   2.103   6.502   4.894 -0.3390  1.1686  2.0228
11364TIP3    H255584   2.094   6.620   4.800  0.0431 -1.7165 -1.8921
11365TIP3   OH255585   5.903   2.765  15.469 -0.6221  0.1105  0.4311
11365TIP3    H155586   5.964   2.700  15.435 -1.1993  0.5114 -1.4433
11365TIP3    H255587   5.940   2.849  15.442 -1.6566  0.3852 -0.1844
11366TIP3   OH255588   5.090   1.296  14.273 -0.3679  0.3987 -0.5283
11366TIP3    H155589   5.008   1.259  14.239 -0.1156 -0.6173 -0.0771
11366TIP3    H255590   5.064   1.342  14.353 -0.5121  0.1481 -0.4307
11367TIP3   OH255591   1.273   4.087  13.221 -0.5034  0.4567  0.0590
11367TIP3    H155592   1.274   4.081  13.316  0.8660  0.2264  0.0516
11367TIP3    H255593   1.181   4.082  13.197 -0.9058  1.0746  1.3999
11368TIP3   OH255594   3.432   3.392  15.611 -0.2697 -0.1712  0.1954
11368TIP3    H155595   3.471   3.405  15.698  0.7872 -1.0547 -0.1203
11368TIP3    H255596   3.475   3.456  15.556  1.1100 -1.4192 -0.2433
11369TIP3   OH255597   2.814   0.595   1.210 -0.6772  0.3076  0.5707
11369TIP3    H155598   2.813   0.690   1.222 -1.8120  0.3451  0.3425
11369TIP3    H255599   2.854   0.582   1.124 -0.4464  0.5779  0.6369
11370TIP3   OH255600   1.996   3.303  12.105  0.7687  0.2794  0.3335
11370TIP3    H155601   1.989   3.339  12.194  0.2704 -0.0309  0.4256
11370TIP3    H255602   2.022   3.212  12.118 -1.3125 -0.3832  0.2894
11371TIP3   OH255603   2.698   4.936  13.334 -0.4851 -0.5246 -0.3521
11371TIP3    H155604   2.684   4.844  13.358  1.4833 -0.5305  1.0090
11371TIP3    H255605   2.767   4.933  13.268 -1.5419 -0.0823 -1.5215
11372TIP3   OH255606   5.097   0.214   2.845 -0.4103  0.1247  0.3543
11372TIP3    H155607   5.116   0.121   2.849  2.5229  0.6121  0.0327
11372TIP3    H255608   5.099   0.235   2.752 -1.5053  0.4663  0.3926
11373TIP3   OH255609   0.884   2.228  16.332  0.4642 -0.4667  0.1368
11373TIP3    H155610   0.795   2.227  16.297  0.4587 -0.5679  0.1550
11373TIP3    H255611   0.924   2.148  16.299  1.0635  0.3489 -1.2234
11374TIP3   OH255612   6.274   5.870  14.090  0.2240 -0.1725 -0.5536
11374TIP3    H155613   6.289   5.814  14.014 -0.5940  0.0760 -0.9075
11374TIP3    H255614   6.198   5.922  14.067  0.2339  0.2224  0.2650
11375TIP3   OH255615   5.745   3.222   0.913  0.2596  1.0903 -0.0575
11375TIP3    H155616   5.712   3.163   0.846  1.4457  0.9363 -0.5383
11375TIP3    H255617   5.667   3.260   0.953 -0.5783 -1.1327  0.5914
11376TIP3   OH255618   2.787   6.312  14.077 -0.3012 -0.4353 -0.4680
11376TIP3    H155619   2.811   6.222  14.098  1.2648  0.1110  0.2392
11376TIP3    H255620   2.766   6.310  13.984  0.7384 -1.3475 -0.7057
11377TIP3   OH255621   0.469   1.395   0.467  0.6263 -0.1482 -0.1520
11377TIP3    H155622   0.489   1.488   0.457 -0.6692  0.1181 -0.4428
11377TIP3    H255623   0.458   1.383   0.561 -0.5418  0.3141 -0.2079
11378TIP3   OH255624   4.209   6.539  12.730 -0.3583 -0.0989 -0.0280
11378TIP3    H155625   4.252   6.624  12.736 -1.9975  0.6694  2.4288
11378TIP3    H255626   4.172   6.524  12.817 -1.7778 -2.4414 -0.9123
11379TIP3   OH255627   0.983   4.067  15.734 -0.0372 -0.6944 -0.2483
11379TIP3    H155628   0.954   4.154  15.709 -0.1228 -0.8249 -0.6203
11379TIP3    H255629   1.078   4.069  15.724  0.0507 -0.3967  0.5522
11380TIP3   OH255630   3.791   5.482   1.643  0.1154 -0.0602  0.1808
11380TIP3    H155631   3.773   5.458   1.734  0.7780  0.8291  0.5536
11380TIP3    H255632   3.752   5.411   1.592 -1.0792 -0.1046  1.1094
11381TIP3   OH255633   4.256   4.426  15.056 -0.3779 -0.4683 -0.0718
11381TIP3    H155634   4.351   4.421  15.049 -0.3519  0.0461 -0.1094
11381TIP3    H255635   4.229   4.480  14.982 -0.5942  0.3612  0.5962
11382TIP3   OH255636   6.755   2.208   2.898  0.0962  0.0045  0.3150
11382TIP3    H155637   6.740   2.115   2.884 -2.5646  0.3196  0.6425
11382TIP3    H255638   6.708   2.229   2.979  0.8108  1.5907  0.3697
11383TIP3   OH255639   2.122   0.551   1.794 -0.4636  0.1138 -0.0290
11383TIP3    H155640   2.059   0.495   1.748  1.9123 -1.1273 -2.0042
11383TIP3    H255641   2.103   0.639   1.761 -0.9675 -0.2916 -0.8778
11384TIP3   OH255642   5.131   4.958   4.819  0.2698 -0.1554  0.5170
11384TIP3    H155643   5.122   5.010   4.899 -0.6063  2.2441 -1.0413
11384TIP3    H255644   5.068   4.887   4.829 -1.0190  1.0540  1.2668
11385TIP3   OH255645   2.357   5.622  17.042 -0.0903 -0.4329 -0.1076
11385TIP3    H155646   2.369   5.631  17.136  2.8416 -1.0023 -0.3269
11385TIP3    H255647   2.392   5.535  17.022 -2.4168 -1.1350 -1.5298
11386TIP3   OH255648   2.260   2.525   5.247 -0.5370 -0.1755  0.7468
11386TIP3    H155649   2.300   2.584   5.312 -1.7455  1.5121  0.0204
11386TIP3    H255650   2.198   2.472   5.298 -1.0148  0.7011  1.0984
11387TIP3   OH255651   4.309   5.995   6.597 -0.0207  0.1258 -0.8827
11387TIP3    H155652   4.286   6.059   6.530  0.5541  0.7779 -0.4744
11387TIP3    H255653   4.251   6.016   6.670  1.7604  1.8015  0.1671
11388TIP3   OH255654   1.177   1.798   2.315  0.2435 -0.0541  0.2497
11388TIP3    H155655   1.251   1.836   2.363  0.1283  0.5980 -0.0761
11388TIP3    H255656   1.100   1.822   2.367 -0.1447  2.7120 -1.3914
11389TIP3   OH255657   0.889   6.241   5.978  1.1553 -0.0419 -0.4476
11389TIP3    H155658   0.836   6.224   6.056 -1.7700  1.1577 -2.0191
11389TIP3    H255659   0.960   6.297   6.010 -0.3482  1.0061  1.2880
11390TIP3   OH255660   0.537   5.510  15.391  0.1989 -0.0564 -0.0086
11390TIP3    H155661   0.590   5.445  15.345  0.0806 -1.3262  1.5339
11390TIP3    H255662   0.451   5.469  15.402  0.2403  0.1465  1.3583
11391TIP3   OH255663   6.333   1.392  13.270 -0.1631 -0.0522 -0.4474
11391TIP3    H155664   6.273   1.460  13.240 -0.2893 -0.4930 -1.2148
11391TIP3    H255665   6.356   1.418  13.359 -2.3761 -0.4578  0.3044
11392TIP3   OH255666   4.890   3.740  13.828  0.4452  0.4320 -0.5427
11392TIP3    H155667   4.812   3.785  13.862  1.0972  1.2933 -0.1540
11392TIP3    H255668   4.937   3.807  13.780  1.2615  0.0823 -0.2472
11393TIP3   OH255669   1.588   4.153   2.561  0.6093 -0.4233  0.1981
11393TIP3    H155670   1.505   4.145   2.513 -0.0766  0.3806  1.2169
11393TIP3    H255671   1.639   4.217   2.511 -0.2633  0.7194  0.7358
11394TIP3   OH255672   3.838   3.094  10.844 -0.4911  0.7097  0.5858
11394TIP3    H155673   3.822   3.184  10.872  0.2667  1.0694 -0.0995
11394TIP3    H255674   3.837   3.099  10.748 -0.7140 -0.0669  0.5425
11395TIP3   OH255675   3.262   2.503   2.242 -0.7505  0.3577 -0.6570
11395TIP3    H155676   3.204   2.442   2.288 -1.2284  0.6788 -0.8245
11395TIP3    H255677   3.212   2.531   2.165 -0.6026  1.0737 -0.5026
11396TIP3   OH255678   4.185   4.579   4.132  0.2675  0.1081 -0.4534
11396TIP3    H155679   4.123   4.543   4.068  1.1409 -0.5224 -0.9651
11396TIP3    H255680   4.174   4.673   4.125  0.9230  0.1023 -2.1705
11397TIP3   OH255681   0.311   5.956  11.604  0.3767  0.1619 -0.1818
11397TIP3    H155682   0.309   6.032  11.662  0.4858 -1.1911  1.7081
11397TIP3    H255683   0.404   5.938  11.590  0.3541  0.7541 -1.2065
11398TIP3   OH255684   1.212   0.909  16.122  0.1447 -0.2539  0.3836
11398TIP3    H155685   1.175   0.823  16.107  1.9721 -0.7677 -1.7033
11398TIP3    H255686   1.172   0.964  16.055  0.5209  0.0385  0.3988
11399TIP3   OH255687   5.279   1.624   0.371  0.4714 -0.1862 -0.3625
11399TIP3    H155688   5.300   1.545   0.320  1.1019 -0.2462 -0.0170
11399TIP3    H255689   5.362   1.650   0.411 -0.0795 -0.3943  0.9883
11400TIP3   OH255690   4.022   0.018  16.581  0.7447  0.6250 -0.2553
11400TIP3    H155691   4.041   0.083  16.649  0.1979  1.9605 -1.3289
11400TIP3    H255692   4.062   0.055  16.502  0.4521 -0.3728 -0.8820
11401TIP3   OH255693   5.515   1.379   3.700  0.2882 -0.2806  0.3009
11401TIP3    H155694   5.509   1.309   3.765 -1.4848  0.1335  0.6410
11401TIP3    H255695   5.495   1.459   3.749  2.0457  0.4658 -0.1286
11402TIP3   OH255696   1.342   0.955  13.164 -0.8871  0.5219  0.1622
11402TIP3    H155697   1.303   0.987  13.245 -0.7493 -0.6746  0.7130
11402TIP3    H255698   1.434   0.982  13.168 -0.6688 -0.2818  0.8249
11403TIP3   OH255699   3.164   1.726   2.248  0.3287  0.6343  0.0102
11403TIP3    H155700   3.232   1.704   2.184  1.2797  2.4240  0.3550
11403TIP3    H255701   3.099   1.656   2.238  0.7943  0.4369 -2.3914
11404TIP3   OH255702   5.950   6.231  12.352 -0.3023  0.9317 -0.0280
11404TIP3    H155703   6.040   6.264  12.357 -0.4020  1.2007  0.0020
11404TIP3    H255704   5.911   6.253  12.436 -0.6998  1.7167 -0.4077
11405TIP3   OH255705   1.991   0.563   2.040 -0.1458  0.3240 -0.2031
11405TIP3    H155706   2.040   0.634   2.081 -1.4287  0.0709  1.8968
11405TIP3    H255707   2.050   0.530   1.972  1.8771  1.1772  1.0432
11406TIP3   OH255708   5.537   6.083   0.544  0.1917  0.4476 -0.1853
11406TIP3    H155709   5.520   5.996   0.508  3.2928 -0.5026  0.3150
11406TIP3    H255710   5.602   6.121   0.485 -1.9736  3.0490 -1.1006
11407TIP3   OH255711   5.017   0.240   2.049 -0.6668 -0.6137  0.3105
11407TIP3    H155712   4.978   0.176   1.989 -2.3862 -0.5916  1.3432
11407TIP3    H255713   5.008   0.201   2.135  3.0637 -1.2904  0.5447
11408TIP3   OH255714   4.891   5.898   3.778 -0.0848  0.0070 -0.3136
11408TIP3    H155715   4.883   5.828   3.843 -0.3110 -0.8706 -1.2572
11408TIP3    H255716   4.801   5.928   3.764 -0.2899 -1.1223 -1.5966
11409TIP3   OH255717   2.996   5.529   1.904  0.3475  0.6560 -0.4323
11409TIP3    H155718   3.048   5.602   1.938 -1.7241  1.8023  0.5047
11409TIP3    H255719   2.994   5.465   1.975 -0.3089  1.0733 -0.0565
11410TIP3   OH255720   1.159   0.521   3.697  0.1162  0.0964  0.6928
11410TIP3    H155721   1.194   0.481   3.618 -0.3810 -1.4629  1.2123
11410TIP3    H255722   1.237   0.537   3.752  0.3496  0.0469  0.3781
11411TIP3   OH255723   2.745   6.284  15.774  0.4737  0.4537 -0.1594
11411TIP3    H155724   2.812   6.238  15.825  0.3127  0.0907 -0.2721
11411TIP3    H255725   2.782   6.371  15.758  1.4637 -0.1646 -1.3160
11412TIP3   OH255726   1.719   4.940  14.322 -0.2811 -0.3422 -0.1307
11412TIP3    H155727   1.650   4.873  14.327 -0.6496 -0.0795 -1.3194
11412TIP3    H255728   1.681   5.009  14.267 -0.7163  1.8570  2.7211
11413TIP3   OH255729   3.263   3.679  14.882  0.9737 -0.0914  0.0578
11413TIP3    H155730   3.237   3.722  14.963  1.2461 -1.7300  1.0693
11413TIP3    H255731   3.277   3.750  14.820 -0.4148  1.1420  1.0923
11414TIP3   OH255732   1.552   3.999   2.204 -0.5232  0.2719  0.5128
11414TIP3    H155733   1.501   4.033   2.277  0.2567  1.1174  0.6852
11414TIP3    H255734   1.607   3.931   2.242  0.8984  1.6534  1.0412
11415TIP3   OH255735   1.304   0.285   2.557 -0.1402 -0.2841  0.2104
11415TIP3    H155736   1.395   0.309   2.572  1.1732 -3.0908 -2.1656
11415TIP3    H255737   1.302   0.190   2.570 -3.3073 -0.0927  2.2909
11416TIP3   OH255738   6.746   5.180   4.385  0.9074  0.0173  0.4345
11416TIP3    H155739   6.673   5.238   4.366 -1.6452 -3.3658 -1.2906
11416TIP3    H255740   6.744   5.170   4.481 -0.5828  0.4125  0.4740
11417TIP3   OH255741   0.050   6.826   4.550 -0.5893  0.2531  0.4040
11417TIP3    H155742   0.068   6.880   4.473 -1.4361  0.1447  0.1106
11417TIP3    H255743  -0.046   6.822   4.554 -0.5587  0.3385  1.5228
11418TIP3   OH255744   1.366   4.797   5.811  0.8776 -0.2451 -0.2895
11418TIP3    H155745   1.433   4.731   5.792  0.7113  0.0773 -2.2205
11418TIP3    H255746   1.412   4.866   5.857  1.8830 -0.0838 -1.4828
11419TIP3   OH255747   1.179   0.123  16.798 -0.1209 -0.8285 -0.6183
11419TIP3    H155748   1.095   0.153  16.831 -0.0055 -0.2664 -0.8202
11419TIP3    H255749   1.188   0.164  16.712  1.0323  0.3844  0.0318
11420TIP3   OH255750   5.441   3.807  15.283 -0.0660 -0.4501 -0.4109
11420TIP3    H155751   5.349   3.786  15.297 -0.1260  1.3545  2.9456
11420TIP3    H255752   5.441   3.883  15.226 -0.6420 -0.4956 -0.4690
11421TIP3   OH255753   3.958   0.180   3.729  0.0972 -0.0552 -0.4982
11421TIP3    H155754   3.898   0.226   3.670 -1.2365  0.1691  0.9550
11421TIP3    H255755   3.928   0.089   3.728 -0.2807  0.0532  0.2190
11422TIP3   OH255756   0.085   3.172  11.368  0.2382 -0.3138  0.1858
11422TIP3    H155757   0.108   3.201  11.279 -0.6761  2.5930  0.7950
11422TIP3    H255758   0.030   3.095  11.354  1.1265 -0.6771 -1.6910
11423TIP3   OH255759   1.526   5.009  12.745 -0.6337  0.7380 -0.3507
11423TIP3    H155760   1.440   4.985  12.778  0.4891 -2.3874  0.7400
11423TIP3    H255761   1.520   5.000  12.650 -1.3515 -0.1625 -0.2296
11424TIP3   OH255762   5.900   6.428  15.647  0.2040  0.0037 -0.3480
11424TIP3    H155763   5.879   6.492  15.715 -0.8331 -0.0817 -0.5692
11424TIP3    H255764   5.900   6.479  15.566 -0.6691 -0.2756 -0.5302
11425TIP3   OH255765   4.577   3.162  12.274 -0.7293  0.0886  0.1546
11425TIP3    H155766   4.621   3.233  12.230 -1.6186 -0.8316 -2.3781
11425TIP3    H255767   4.601   3.172  12.366  2.0378  1.4952 -0.6377
11426TIP3   OH255768   0.253   4.639   3.565  0.8147  0.9825 -0.2551
11426TIP3    H155769   0.259   4.554   3.522  0.4897  0.6117  0.4215
11426TIP3    H255770   0.344   4.666   3.577  0.9608  0.1126  0.7149
11427TIP3   OH255771   5.591   3.342   5.419  0.3503 -0.0207  0.4984
11427TIP3    H155772   5.508   3.390   5.418  1.1405  1.4659 -1.5856
11427TIP3    H255773   5.590   3.291   5.338  1.5822  0.2538  0.2930
11428TIP3   OH255774   2.876   2.587  14.618 -0.1838 -0.0209 -0.0097
11428TIP3    H155775   2.930   2.550  14.687  0.5748 -0.7303 -0.9489
11428TIP3    H255776   2.931   2.655  14.578  0.7593 -1.8626 -2.0632
11429TIP3   OH255777   0.171   1.939  14.780 -0.1579  0.2135 -0.4783
11429TIP3    H155778   0.188   1.909  14.690 -1.3641 -0.6212 -0.4434
11429TIP3    H255779   0.077   1.956  14.783 -0.2043 -0.1599  0.7399
11430TIP3   OH255780   4.590   6.231  13.364 -0.9631  0.4826 -0.5330
11430TIP3    H155781   4.511   6.182  13.386 -0.3984  1.0108  3.2678
11430TIP3    H255782   4.637   6.173  13.303 -2.5892 -1.4500 -0.0724
11431TIP3   OH255783   4.931   2.795   4.504 -0.6498 -0.8572  0.5784
11431TIP3    H155784   4.867   2.830   4.566 -0.5262 -1.0370  0.8102
11431TIP3    H255785   4.879   2.768   4.428 -1.1842 -3.2836  1.7159
11432TIP3   OH255786   0.368   3.213   4.891 -0.3517  0.3278  0.6803
11432TIP3    H155787   0.409   3.172   4.968 -0.8341  1.1444  1.3825
11432TIP3    H255788   0.356   3.304   4.916 -1.8904  0.2813  0.2047
11433TIP3   OH255789   5.414   6.279  16.007  0.5980 -0.1397  0.1250
11433TIP3    H155790   5.426   6.370  16.033 -0.0505  0.4372 -1.4496
11433TIP3    H255791   5.369   6.284  15.923 -0.6366 -1.9507  0.6197
11434TIP3   OH255792   4.090   3.521  15.038 -0.2432 -0.4676  0.9887
11434TIP3    H155793   4.048   3.594  14.993 -1.1635 -0.2259  2.1683
11434TIP3    H255794   4.174   3.556  15.066 -0.2007 -0.2193  0.5637
11435TIP3   OH255795   6.561   5.183  16.634  0.5346 -0.3402 -0.3141
11435TIP3    H155796   6.590   5.160  16.722  0.1642 -0.3585 -0.1967
11435TIP3    H255797   6.472   5.216  16.645 -0.5389 -2.8293 -0.9920
11436TIP3   OH255798   4.088   6.037   4.706 -0.2083  0.0116  0.2150
11436TIP3    H155799   4.138   6.093   4.765 -0.5345  0.5875 -0.0499
11436TIP3    H255800   4.146   5.963   4.688  1.0023  1.1860 -0.9528
11437TIP3   OH255801   6.618   0.362  12.278  0.2547 -0.3691  0.0873
11437TIP3    H155802   6.690   0.381  12.218  0.2305 -0.6559 -0.0315
11437TIP3    H255803   6.569   0.291  12.237 -0.8624  0.6829 -0.4559
11438TIP3   OH255804   4.146   2.128   1.422 -0.2551  0.1097 -0.1889
11438TIP3    H155805   4.216   2.063   1.434 -0.1224  0.3535  0.3784
11438TIP3    H255806   4.110   2.140   1.510 -0.7230  0.3119 -0.4079
11439TIP3   OH255807   2.347   2.076   0.728  0.0022 -0.4210  0.1204
11439TIP3    H155808   2.264   2.082   0.680 -1.0659  0.5415  1.9867
11439TIP3    H255809   2.352   1.984   0.756 -0.0935 -0.6344 -0.5352
11440TIP3   OH255810   2.705   4.139  17.124  0.4070 -0.1467  0.6762
11440TIP3    H155811   2.742   4.197  17.057  2.3072 -0.9322  0.9667
11440TIP3    H255812   2.729   4.051  17.096 -1.2767 -0.7280  0.9318
11441TIP3   OH255813   2.108   3.984  12.147  0.3395  0.7142 -0.2474
11441TIP3    H155814   2.195   4.022  12.140  1.0696 -0.4637  1.5953
11441TIP3    H255815   2.057   4.028  12.079  1.5652  3.5933  0.5320
11442TIP3   OH255816   5.508   5.650   0.218  0.5053 -0.1642 -0.4217
11442TIP3    H155817   5.489   5.576   0.276  0.2908 -1.0611 -1.6094
11442TIP3    H255818   5.450   5.637   0.143  0.6917  1.0494 -0.7961
11443TIP3   OH255819   2.802   3.929  12.833 -0.1418 -0.2566  0.3397
11443TIP3    H155820   2.838   3.843  12.851  0.2590 -0.2709 -0.4827
11443TIP3    H255821   2.709   3.922  12.856 -0.8053 -1.7959 -2.4017
11444TIP3   OH255822   4.703   0.893   3.876  0.1442 -0.9066 -0.4529
11444TIP3    H155823   4.754   0.821   3.914  0.3317 -1.1936 -1.2391
11444TIP3    H255824   4.694   0.955   3.948  0.9943 -1.1730 -0.0958
11445TIP3   OH255825   5.779   4.049  15.305 -0.0371 -0.6152  0.1744
11445TIP3    H155826   5.854   4.096  15.268 -1.0587  0.6982 -0.3171
11445TIP3    H255827   5.770   3.971  15.250  1.6072 -1.3700  0.9193
11446TIP3   OH255828   4.681   6.600  16.958  0.0259  0.1622 -0.2102
11446TIP3    H155829   4.707   6.655  16.884  1.3180 -0.9339 -0.6366
11446TIP3    H255830   4.586   6.609  16.963  0.0935  1.5579 -0.9353
11447TIP3   OH255831   2.589   0.641  16.950  0.0524  0.1355 -0.3190
11447TIP3    H155832   2.585   0.627  16.855 -1.3818  2.2013 -0.6466
11447TIP3    H255833   2.506   0.684  16.971  0.8883  0.9060  1.6654
11448TIP3   OH255834   6.805   4.460  15.796 -0.3112 -0.2227 -0.4962
11448TIP3    H155835   6.788   4.367  15.780 -2.8005  0.0856 -0.1106
11448TIP3    H255836   6.843   4.463  15.884 -1.0547 -0.8213 -0.1418
11449TIP3   OH255837   0.253   0.299  12.575  0.1811 -0.3497  0.0585
11449TIP3    H155838   0.252   0.234  12.505  3.5219  0.8709 -1.3177
11449TIP3    H255839   0.345   0.311  12.595 -0.5429  1.0206  3.1881
11450TIP3   OH255840   1.595   6.454  13.296 -0.7306 -0.6016 -0.9357
11450TIP3    H155841   1.517   6.445  13.243 -2.1584 -0.8551  1.0792
11450TIP3    H255842   1.629   6.365  13.304 -0.7914 -0.6314 -1.0113
11451TIP3   OH255843   3.719   5.478   1.353  0.1610  0.0648 -0.0255
11451TIP3    H155844   3.787   5.454   1.415 -0.7554 -0.7681  0.6966
11451TIP3    H255845   3.648   5.512   1.408  0.3607  1.8997 -0.8304
11452TIP3   OH255846   0.633   5.625  16.429  0.2042 -0.4600  0.2790
11452TIP3    H155847   0.717   5.644  16.388 -0.6004  0.1692 -1.1343
11452TIP3    H255848   0.613   5.703  16.480 -0.2633  0.0601 -0.6809
11453TIP3   OH255849   6.418   2.217  15.980 -0.5485  0.7692 -0.6442
11453TIP3    H155850   6.456   2.258  16.058 -0.0176 -1.8169  0.5967
11453TIP3    H255851   6.328   2.199  16.004 -0.6914  0.9280 -1.0554
11454TIP3   OH255852   4.443   2.714  11.596 -0.5126  0.1735 -0.0243
11454TIP3    H155853   4.387   2.742  11.523  0.4946 -0.0366 -0.9055
11454TIP3    H255854   4.445   2.790  11.655 -1.6763  0.1933  0.0057
11455TIP3   OH255855   4.472   5.974   1.588 -0.6894 -0.4513 -0.0669
11455TIP3    H155856   4.395   6.005   1.540 -0.3749 -1.7943 -1.5317
11455TIP3    H255857   4.442   5.896   1.634 -0.5599 -0.1230  0.5887
11456TIP3   OH255858   5.958   6.416   2.440  0.1797 -0.0832 -0.5140
11456TIP3    H155859   5.997   6.474   2.506  0.3494 -0.7729 -0.0040
11456TIP3    H255860   6.000   6.442   2.358 -1.8132  2.4988 -0.8446
11457TIP3   OH255861   1.824   5.448  15.007 -0.3859  0.2645 -0.2735
11457TIP3    H155862   1.909   5.409  14.987 -0.6985  0.7610 -2.8525
11457TIP3    H255863   1.834   5.541  14.987 -1.0250  0.6954  1.2435
11458TIP3   OH255864   5.770   1.718  16.417  0.2662 -0.1733  0.2166
11458TIP3    H155865   5.693   1.726  16.361  0.0589  0.0651  0.5382
11458TIP3    H255866   5.785   1.624  16.423  1.6311 -0.1742 -2.0764
11459TIP3   OH255867   6.084   0.623  16.608  0.0566 -0.5060 -0.2312
11459TIP3    H155868   6.166   0.591  16.570 -0.7873 -1.3468 -1.4002
11459TIP3    H255869   6.080   0.716  16.584  0.6873 -0.4484 -0.1221
11460TIP3   OH255870   1.714   3.869  12.745 -0.4245 -0.4903 -0.1282
11460TIP3    H155871   1.620   3.882  12.729 -0.3854 -0.3711 -0.2670
11460TIP3    H255872   1.754   3.953  12.722 -0.3958 -0.1980  0.9350
11461TIP3   OH255873   4.742   1.713  11.312 -0.0722  0.1307  0.1543
11461TIP3    H155874   4.777   1.698  11.224  2.7016 -1.4304  1.4002
11461TIP3    H255875   4.685   1.638  11.328  0.4738 -0.2864  0.1686
11462TIP3   OH255876   0.461   6.819  16.909 -0.8595 -0.5020 -0.1724
11462TIP3    H155877   0.534   6.811  16.848 -0.3169  0.3355  0.3455
11462TIP3    H255878   0.386   6.784  16.861 -0.8097  1.6794 -2.0230
11463TIP3   OH255879   3.019   5.015  14.821  0.1585  0.1683  0.0217
11463TIP3    H155880   3.077   4.941  14.838 -0.6273 -0.0093  2.1391
11463TIP3    H255881   3.059   5.088  14.868  0.7073  1.0419 -1.7149
11464TIP3   OH255882   4.479   5.494  16.043 -0.2422 -0.9379  0.1122
11464TIP3    H155883   4.574   5.504  16.049 -0.4452  1.7480 -0.0484
11464TIP3    H255884   4.455   5.531  15.958 -1.5801  0.3666  0.9854
11465TIP3   OH255885   4.874   6.236  13.288  0.2128 -0.1816 -0.5602
11465TIP3    H155886   4.811   6.303  13.314 -1.0902 -0.3645 -2.9632
11465TIP3    H255887   4.910   6.204  13.371 -1.6064  1.0924  0.8193
11466TIP3   OH255888   2.424   1.737  15.257  0.0368  0.1614 -0.5461
11466TIP3    H155889   2.370   1.813  15.236 -2.6505 -1.1678  1.0238
11466TIP3    H255890   2.438   1.694  15.173 -1.9716  0.2114 -0.9714
11467TIP3   OH255891   6.262   0.725  13.674  0.5541 -0.0347 -0.2711
11467TIP3    H155892   6.284   0.729  13.768 -0.4011  0.2009 -0.0459
11467TIP3    H255893   6.167   0.720  13.672  0.5984 -0.6086 -1.2290
11468TIP3   OH255894   0.092   5.069   2.279  0.3349  0.5845 -0.1506
11468TIP3    H155895   0.177   5.063   2.236 -0.0979  1.0078 -1.1070
11468TIP3    H255896   0.095   5.003   2.348  1.5882  0.8764  0.1104
11469TIP3   OH255897   2.725   3.300   3.985 -0.1611 -0.8732 -0.0814
11469TIP3    H155898   2.688   3.387   3.971 -0.2296 -0.5582  1.8278
11469TIP3    H255899   2.715   3.284   4.079  1.5226 -2.1830 -0.0716
11470TIP3   OH255900   2.193   4.587   2.559  0.2751  0.8745 -0.4462
11470TIP3    H155901   2.186   4.553   2.649  0.6446  0.6727 -0.4912
11470TIP3    H255902   2.286   4.606   2.548 -0.0864  3.1716  0.0262
11471TIP3   OH255903   6.423   4.228  11.799  0.4381 -0.4887  0.5178
11471TIP3    H155904   6.483   4.160  11.769 -0.1514 -0.7244 -0.1674
11471TIP3    H255905   6.449   4.306  11.750  1.1817 -0.1736  1.3806
11472TIP3   OH255906   6.517   5.827   3.300 -0.5101 -0.0233  0.7067
11472TIP3    H155907   6.550   5.897   3.244 -1.0736 -0.2093  0.1423
11472TIP3    H255908   6.504   5.753   3.241 -0.7059 -0.3531  1.1599
11473TIP3   OH255909   3.255   2.424   4.765 -0.2820 -0.1421  0.1044
11473TIP3    H155910   3.308   2.396   4.840  0.3243 -0.2983 -0.3723
11473TIP3    H255911   3.180   2.364   4.764 -1.0135  0.7087  1.3768
11474TIP3   OH255912   2.084   6.428   3.346  0.1150 -0.1525  0.1417
11474TIP3    H155913   2.005   6.379   3.366  0.8876 -1.5731 -0.1011
11474TIP3    H255914   2.130   6.436   3.429 -0.5481  1.2213  0.4016
11475TIP3   OH255915   2.174   6.427  12.279 -0.0979  0.2293  0.0437
11475TIP3    H155916   2.153   6.479  12.356 -1.0686  3.2698 -2.0726
11475TIP3    H255917   2.254   6.466  12.244 -0.9788  0.5634 -1.7468
11476TIP3   OH255918   3.703   3.886   3.253 -0.0202 -0.4250  0.0092
11476TIP3    H155919   3.753   3.806   3.267 -2.0372 -1.2700  4.0268
11476TIP3    H255920   3.644   3.866   3.181 -0.4444 -2.6462  0.8750
11477TIP3   OH255921   4.190   1.821   4.812  0.1066  0.2039 -0.3970
11477TIP3    H155922   4.112   1.836   4.866  0.5167 -0.3515  0.3723
11477TIP3    H255923   4.259   1.872   4.854 -0.2935  2.4671 -2.3204
11478TIP3   OH255924   3.407   2.762  11.939 -0.0428 -0.4077 -0.1846
11478TIP3    H155925   3.395   2.692  12.003 -0.6394 -1.2279 -1.1812
11478TIP3    H255926   3.333   2.755  11.880  0.6495  0.1544 -1.1546
11479TIP3   OH255927   1.338   6.040  11.243  0.6440 -0.2801 -0.9573
11479TIP3    H155928   1.289   5.961  11.266  2.0092 -0.9218 -0.1737
11479TIP3    H255929   1.302   6.066  11.158 -1.2807 -0.5134 -0.2673
11480TIP3   OH255930   1.394   6.607  12.992 -0.1344  0.4788  0.1389
11480TIP3    H155931   1.384   6.570  13.080 -0.8692  0.0997 -0.0968
11480TIP3    H255932   1.458   6.677  13.003  0.8067 -0.4247  0.7324
11481TIP3   OH255933   3.033   3.686  10.850 -0.0591  0.1298  0.1880
11481TIP3    H155934   3.093   3.613  10.865  0.9368  1.0262  0.7516
11481TIP3    H255935   3.064   3.755  10.909  1.0492  2.1423 -2.4901
11482TIP3   OH255936   6.159   5.143  13.508 -0.1147  0.5909 -0.0663
11482TIP3    H155937   6.161   5.237  13.491 -0.6129  0.4623 -0.9082
11482TIP3    H255938   6.095   5.133  13.579 -2.5097  0.6293 -2.0868
11483TIP3   OH255939   5.754   2.045   2.451 -0.0184  0.8156  0.0681
11483TIP3    H155940   5.734   2.122   2.504 -0.8842  0.9186 -0.3778
11483TIP3    H255941   5.784   2.080   2.367  0.4439  0.6615  0.1686
11484TIP3   OH255942   1.801   0.708  11.041 -0.0843  0.1399 -0.3277
11484TIP3    H155943   1.883   0.755  11.024  0.0201  0.3013  0.5661
11484TIP3    H255944   1.732   0.768  11.015  0.0487  0.7890  0.7364
11485TIP3   OH255945   5.141   4.065   0.597  0.0793  0.5851  0.2145
11485TIP3    H155946   5.118   4.086   0.687  0.4144 -1.2569  0.7737
11485TIP3    H255947   5.095   4.130   0.544 -1.1561  0.9245  1.6459
11486TIP3   OH255948   4.011   0.710   4.941 -0.2893 -0.9848  0.3404
11486TIP3    H155949   4.088   0.692   4.994  0.3536  0.2479 -0.1400
11486TIP3    H255950   3.962   0.776   4.991  0.5250  0.4924 -0.7290
11487TIP3   OH255951   3.673   2.760  11.261  0.2887 -0.7694  0.3064
11487TIP3    H155952   3.682   2.738  11.354  1.4526 -1.1000  0.1258
11487TIP3    H255953   3.742   2.710  11.217  1.3612  1.2619 -0.4533
11488TIP3   OH255954   5.693   1.791   1.228 -0.3605  0.2585  0.1230
11488TIP3    H155955   5.710   1.701   1.254 -0.5031 -0.0820 -0.9116
11488TIP3    H255956   5.778   1.825   1.201 -0.5708 -0.1010 -1.0431
11489TIP3   OH255957   3.280   3.880   4.080  0.6734  0.7119 -0.2509
11489TIP3    H155958   3.278   3.800   4.028  0.6393  0.3378  0.3093
11489TIP3    H255959   3.299   3.949   4.018 -2.6043  0.7804 -1.3705
11490TIP3   OH255960   0.058   5.888  11.728  0.1583 -0.1377 -0.6080
11490TIP3    H155961   0.074   5.886  11.633 -0.9631 -1.1761 -0.8043
11490TIP3    H255962   0.135   5.844  11.766  1.8760  2.4769 -0.7640
11491TIP3   OH255963   0.549   4.247   3.799 -0.2193  0.1069 -0.3660
11491TIP3    H155964   0.639   4.219   3.784  0.3504  1.5576  0.1794
11491TIP3    H255965   0.511   4.255   3.712 -0.0551 -1.1766 -0.5755
11492TIP3   OH255966   5.334   4.701   1.306  0.0267  0.5451  0.2358
11492TIP3    H155967   5.358   4.790   1.278 -0.4654  0.4221 -0.5991
11492TIP3    H255968   5.270   4.672   1.241 -2.7986  1.0456  2.5913
11493TIP3   OH255969   4.900   3.182   1.860  0.0514 -0.1047 -0.0017
11493TIP3    H155970   4.904   3.170   1.955 -0.6020 -2.3969 -0.2026
11493TIP3    H255971   4.840   3.114   1.829  0.4572  0.3963 -2.0953
11494TIP3   OH255972   0.128   1.770   2.274 -0.5863 -0.1262 -0.1667
11494TIP3    H155973   0.183   1.720   2.214 -1.6278 -0.3766 -0.9507
11494TIP3    H255974   0.173   1.854   2.283 -0.2314 -0.2076 -1.0498
11495TIP3   OH255975   1.524   0.943  17.076  0.8088 -0.6898  0.2557
11495TIP3    H155976   1.548   1.035  17.074  0.3326 -0.5722 -0.3255
11495TIP3    H255977   1.545   0.914  17.165 -1.3940  0.6185  1.2759
11496TIP3   OH255978   0.531   3.356   0.606  0.0380 -0.3912  0.8322
11496TIP3    H155979   0.482   3.378   0.527 -1.1491 -2.3549  0.9479
11496TIP3    H255980   0.464   3.355   0.675  0.3401 -2.2402  1.1607
11497TIP3   OH255981   6.412   3.771  11.206  0.1669 -0.2670 -0.3108
11497TIP3    H155982   6.439   3.821  11.283  0.3354  0.2701 -0.7108
11497TIP3    H255983   6.406   3.836  11.136  1.8981 -1.0412 -1.2231
11498TIP3   OH255984   0.490   0.343   0.203 -0.0484 -0.4038  0.5384
11498TIP3    H155985   0.427   0.415   0.210 -1.6603 -1.7857  0.8387
11498TIP3    H255986   0.554   0.360   0.272  0.2038  1.2734 -0.0547
11499TIP3   OH255987   1.204   3.670   4.841  0.6491 -0.2057 -0.0885
11499TIP3    H155988   1.150   3.749   4.847 -0.1901 -0.8697  1.7600
11499TIP3    H255989   1.143   3.600   4.817  0.9986 -0.6543  0.3042
11500TIP3   OH255990   1.845   0.233   3.790 -0.7084  0.2128 -0.4396
11500TIP3    H155991   1.755   0.247   3.819 -0.6522  0.2267 -0.2694
11500TIP3    H255992   1.837   0.190   3.705 -0.8757  0.1607 -0.3974
11501TIP3   OH255993   2.380   1.777   0.291  0.9178  0.4525  0.6592
11501TIP3    H155994   2.369   1.872   0.283 -1.3361  0.2210  0.2666
11501TIP3    H255995   2.401   1.764   0.384 -1.4440  1.2015  1.3810
11502TIP3   OH255996   5.971   3.594   5.553  0.1748  0.6308  0.2830
11502TIP3    H155997   6.054   3.599   5.600  0.0165 -0.9536  0.7890
11502TIP3    H255998   5.905   3.582   5.622 -0.2587  0.0486 -0.2264
11503TIP3   OH255999   3.955   0.751  13.464 -0.0742 -0.2822 -0.1272
11503TIP3    H156000   3.995   0.786  13.384  1.0457 -2.4231 -0.6068
11503TIP3    H256001   4.017   0.684  13.494 -1.1207 -0.4610  1.8007
11504TIP3   OH256002   1.439   2.757  11.924 -0.1171  0.2709 -0.1706
11504TIP3    H156003   1.414   2.752  12.017 -1.6708  0.4888 -0.5576
11504TIP3    H256004   1.370   2.711  11.878  1.3353 -1.0325 -1.1521
11505TIP3   OH256005   4.482   5.706  12.273  0.2528 -0.4316  0.3000
11505TIP3    H156006   4.456   5.614  12.271 -1.3550 -0.0082 -0.6314
11505TIP3    H256007   4.494   5.726  12.365  1.5565 -1.7963  0.4655
11506TIP3   OH256008   0.349   3.506  14.633  0.2616  0.4072 -0.0638
11506TIP3    H156009   0.361   3.571  14.702 -0.4560 -1.5353  2.0346
11506TIP3    H256010   0.437   3.493  14.597  1.2541 -0.4769  2.4404
11507TIP3   OH256011   5.513   2.139   5.829 -0.3887 -0.2658 -0.5208
11507TIP3    H156012   5.587   2.172   5.779 -0.4708  0.6310 -0.0721
11507TIP3    H256013   5.444   2.125   5.764  0.3924 -1.8635 -1.0652
11508TIP3   OH256014   5.874   5.170   0.856 -0.3366 -0.0352  0.2841
11508TIP3    H156015   5.903   5.122   0.779  1.2890 -0.5592  1.1860
11508TIP3    H256016   5.856   5.102   0.921  0.0527  0.4724  0.9328
11509TIP3   OH256017   6.621   3.609   0.705 -0.3579  0.2902  0.2099
11509TIP3    H156018   6.678   3.534   0.722 -0.0784  0.8159  1.7401
11509TIP3    H256019   6.592   3.597   0.615 -0.9927 -2.1218  0.6580
11510TIP3   OH256020   1.233   2.161   5.553  0.5107  0.5930 -0.1553
11510TIP3    H156021   1.160   2.187   5.609  1.7991  1.4554  1.2020
11510TIP3    H256022   1.192   2.136   5.470 -1.1740  3.1017 -0.1841
11511TIP3   OH256023   3.825   6.782   2.658  0.2012 -0.4731 -0.3414
11511TIP3    H156024   3.882   6.717   2.617 -0.0563 -1.1871  0.4231
11511TIP3    H256025   3.842   6.773   2.752  0.7137  1.0705 -0.2394
11512TIP3   OH256026   4.627   4.036   3.302  0.4951  0.0540  0.5520
11512TIP3    H156027   4.540   4.075   3.316 -0.3412 -1.8792  1.0502
11512TIP3    H256028   4.687   4.098   3.342 -0.4674  2.1489 -0.9953
11513TIP3   OH256029   6.744   1.345   1.730 -0.1343  0.2400 -0.0327
11513TIP3    H156030   6.739   1.311   1.819  0.7736  0.2328  0.0323
11513TIP3    H256031   6.714   1.436   1.737  2.4085  1.1174  0.8358
11514TIP3   OH256032   5.559   6.234  12.576 -0.0469 -0.3763 -0.5431
11514TIP3    H156033   5.510   6.228  12.493 -1.6820 -1.2531  0.4389
11514TIP3    H256034   5.529   6.316  12.615 -1.4232 -1.3020  0.4335
11515TIP3   OH256035   1.132   0.248  10.907 -0.2824 -0.6481 -0.3164
11515TIP3    H156036   1.040   0.240  10.882  0.4117  0.0838 -3.4635
11515TIP3    H256037   1.144   0.183  10.976 -3.6166  0.7189  1.7947
11516TIP3   OH256038   3.832   4.873  14.810  0.2542 -0.3566 -0.2368
11516TIP3    H156039   3.810   4.793  14.762 -1.3988  0.4635 -0.9314
11516TIP3    H256040   3.749   4.919  14.820  1.0387  0.9164  0.8487
11517TIP3   OH256041   2.656   3.029  11.999 -0.3685  0.0647  0.4994
11517TIP3    H156042   2.663   2.971  12.075  1.0969 -2.9333 -1.7103
11517TIP3    H256043   2.613   2.976  11.932 -0.2406  2.0409 -1.2571
11518TIP3   OH256044   1.480   4.930   1.809  0.5158  0.3920 -0.0377
11518TIP3    H156045   1.387   4.951   1.820  0.3381 -0.1320 -0.5074
11518TIP3    H256046   1.512   4.918   1.899  0.0385  0.2029  0.1119
11519TIP3   OH256047   2.348   0.243   4.590  0.6233  0.2276  0.3678
11519TIP3    H156048   2.360   0.160   4.544  0.5406 -0.1985  1.1045
11519TIP3    H256049   2.359   0.310   4.522 -0.4520 -0.4151 -0.4584
11520TIP3   OH256050   5.870   1.649   2.770  0.3438 -0.2162 -0.3944
11520TIP3    H156051   5.935   1.707   2.809 -0.6995  1.3640 -0.9138
11520TIP3    H256052   5.844   1.693   2.689 -1.0587 -1.0201 -0.4093
11521TIP3   OH256053   6.344   6.542  14.699 -0.0476 -0.1836  0.8122
11521TIP3    H156054   6.273   6.485  14.669 -0.6548 -0.3568  2.4602
11521TIP3    H256055   6.322   6.628  14.664 -0.2671 -0.5306  0.0727
11522TIP3   OH256056   1.605   2.893  14.815  0.6469  0.1929 -0.4498
11522TIP3    H156057   1.568   2.856  14.735  0.9369  0.0882 -0.5366
11522TIP3    H256058   1.539   2.874  14.882  1.4734 -1.9116 -0.1593
11523TIP3   OH256059   1.448   0.658   1.031 -0.9284 -0.6443 -0.1611
11523TIP3    H156060   1.458   0.727   0.966 -1.3479 -0.7768 -0.3672
11523TIP3    H256061   1.484   0.580   0.988 -2.5872 -1.0779 -0.8265
11524TIP3   OH256062   1.641   5.630  13.561  0.4468  0.4514 -0.5373
11524TIP3    H156063   1.679   5.605  13.477  0.0497  0.6351 -0.7726
11524TIP3    H256064   1.572   5.566  13.577 -0.3404  1.1643 -0.9776
11525TIP3   OH256065   0.484   6.544  16.600 -0.2959 -0.0573 -0.2405
11525TIP3    H156066   0.476   6.637  16.577 -1.9646 -0.4830 -1.5762
11525TIP3    H256067   0.578   6.527  16.594  0.1567  1.7293  0.9142
11526TIP3   OH256068   4.280   1.621  13.581 -0.5059 -0.6151 -0.2382
11526TIP3    H156069   4.233   1.547  13.542 -0.1746 -0.9434 -0.0253
11526TIP3    H256070   4.351   1.580  13.630  0.4706 -0.0889 -1.1872
11527TIP3   OH256071   5.671   4.041  14.258  0.0937  0.2709  0.3546
11527TIP3    H156072   5.606   3.972  14.270  0.6293  0.1859  3.9192
11527TIP3    H256073   5.755   3.997  14.270  0.6218  1.0418 -0.3702
11528TIP3   OH256074   1.714   3.574  15.804 -0.2327 -0.2355  0.5860
11528TIP3    H156075   1.645   3.560  15.740  0.5374 -0.0172 -0.3221
11528TIP3    H256076   1.710   3.497  15.861 -1.3533 -0.1109  0.6923
11529TIP3   OH256077   1.497   5.785  12.642 -0.1167 -0.0760 -0.8370
11529TIP3    H156078   1.415   5.739  12.659 -0.9022  0.2412 -3.3420
11529TIP3    H256079   1.541   5.789  12.727 -1.0113 -3.4465 -0.0711
11530TIP3   OH256080   1.439   4.703   0.425  0.3051 -0.5484  0.2225
11530TIP3    H156081   1.447   4.787   0.469 -0.7160  0.0899 -0.7671
11530TIP3    H256082   1.500   4.709   0.351 -0.8801 -0.0449 -0.7521
11531TIP3   OH256083   0.987   0.002   4.476 -0.2561  0.6978  0.7395
11531TIP3    H156084   0.952  -0.087   4.467 -0.2826  0.5410  2.1779
11531TIP3    H256085   0.916   0.059   4.444 -0.5465  0.2440  0.5694
11532TIP3   OH256086   0.425   2.628   5.559  0.6414  0.0818 -0.3007
11532TIP3    H156087   0.349   2.626   5.618  2.3376  0.1681  2.0392
11532TIP3    H256088   0.451   2.536   5.550 -0.5358 -0.1139 -2.3149
11533TIP3   OH256089   6.396   0.965  13.454 -0.4137  0.2564 -0.3683
11533TIP3    H156090   6.474   0.986  13.404 -0.4917  3.4850  0.6177
11533TIP3    H256091   6.328   1.022  13.418 -1.6849 -0.7243  0.3781
11534TIP3   OH256092   4.503   2.217  11.087  0.1162  0.2696 -0.5448
11534TIP3    H156093   4.581   2.244  11.038  0.5591 -2.3180 -1.3952
11534TIP3    H256094   4.534   2.201  11.176  0.7595 -1.4281 -1.0415
11535TIP3   OH256095   3.863   1.793  15.560 -0.6013 -0.2228  0.3445
11535TIP3    H156096   3.803   1.724  15.586 -1.2093 -0.9556 -2.6537
11535TIP3    H256097   3.930   1.748  15.508  1.1912  0.9448  1.5192
11536TIP3   OH256098   1.093   1.230  13.545  0.5630  0.2719 -0.1674
11536TIP3    H156099   1.003   1.235  13.512  0.4605 -0.7003 -0.0636
11536TIP3    H256100   1.084   1.215  13.639  0.8444  0.9090 -0.0322
11537TIP3   OH256101   2.359   5.428  16.375 -0.1880  0.1463 -0.3053
11537TIP3    H156102   2.369   5.411  16.469  2.4899  2.8295  0.0096
11537TIP3    H256103   2.409   5.358  16.333  0.5893  0.2892  0.3709
11538TIP3   OH256104   2.557   0.831  12.167 -0.1537  0.0558 -0.8826
11538TIP3    H156105   2.473   0.799  12.134  0.1574 -0.4967 -1.1607
11538TIP3    H256106   2.595   0.756  12.212 -0.5346  0.7840  0.7008
11539TIP3   OH256107   1.288   5.768  16.252 -0.1976 -0.2488 -0.3335
11539TIP3    H156108   1.356   5.711  16.217 -0.2344  0.2162 -1.1789
11539TIP3    H256109   1.325   5.856  16.248 -0.8026 -0.0009 -0.6958
11540TIP3   OH256110   5.916   4.979  12.022  0.0195 -0.2814  0.1701
11540TIP3    H156111   5.872   4.947  12.100 -0.2425 -3.1629 -1.0420
11540TIP3    H256112   6.003   5.004  12.053 -0.0640 -1.3737  1.3802
11541TIP3   OH256113   6.824   0.900   2.748 -0.0002  0.2636 -0.1642
11541TIP3    H156114   6.805   0.985   2.789  0.8400  0.1279  0.5288
11541TIP3    H256115   6.772   0.837   2.799 -0.8776  0.3910 -0.8834
11542TIP3   OH256116   6.120   1.238   3.789 -0.9848 -0.2573 -0.6838
11542TIP3    H156117   6.133   1.282   3.873 -2.1030 -3.6439  1.4536
11542TIP3    H256118   6.026   1.234   3.778 -0.8892 -1.2551 -1.2527
11543TIP3   OH256119   4.869   6.142  14.797 -0.1792  0.2628 -0.0997
11543TIP3    H156120   4.780   6.123  14.769  0.7428 -1.4970 -2.1207
11543TIP3    H256121   4.902   6.203  14.731  0.4734 -0.0252 -0.0440
11544TIP3   OH256122   5.184   2.084  13.753  0.0169  0.3095  0.0533
11544TIP3    H156123   5.226   2.163  13.787  1.2782 -0.3821  0.1943
11544TIP3    H256124   5.125   2.057  13.823 -0.3445  1.0531  0.0464
11545TIP3   OH256125   2.295   3.113   3.076  0.0886  0.1722 -0.2826
11545TIP3    H156126   2.225   3.050   3.062 -0.6779  0.8765  0.2504
11545TIP3    H256127   2.330   3.092   3.163 -2.5555  2.5957  1.5654
11546TIP3   OH256128   6.196   3.854  16.776 -0.3405  0.1540 -0.1783
11546TIP3    H156129   6.233   3.769  16.798  1.9783  0.8776 -0.9730
11546TIP3    H256130   6.268   3.901  16.734 -1.5919  2.4555  0.0982
11547TIP3   OH256131   1.647   6.319   4.694  0.4854  0.0648  0.4580
11547TIP3    H156132   1.586   6.360   4.755  0.6591  0.1591  0.5682
11547TIP3    H256133   1.682   6.391   4.642  2.0699  0.3090  1.7738
11548TIP3   OH256134   2.519   1.420   5.328 -0.0055  0.0382 -0.8396
11548TIP3    H156135   2.477   1.337   5.303 -0.7431 -0.0231  0.4992
11548TIP3    H256136   2.598   1.393   5.375 -0.5189  0.0499  0.0666
11549TIP3   OH256137   1.761   0.538  10.813  0.4786  0.1879 -0.2599
11549TIP3    H156138   1.780   0.575  10.727 -1.4660 -0.1184 -0.8648
11549TIP3    H256139   1.807   0.595  10.875  1.8116  0.4796 -1.4783
11550TIP3   OH256140   6.488   6.392   2.154 -0.1807  0.4614  0.0774
11550TIP3    H156141   6.495   6.363   2.245  1.3287  1.4719  0.3228
11550TIP3    H256142   6.544   6.469   2.149  0.0194  0.2440 -1.7949
11551TIP3   OH256143   4.946   6.274   3.153 -0.5209 -0.1459 -0.2784
11551TIP3    H156144   4.903   6.357   3.172 -0.9759 -0.4541  0.0630
11551TIP3    H256145   4.956   6.273   3.058  0.7354  0.9065 -0.1830
11552TIP3   OH256146   0.823   6.087   4.953  0.1382 -0.4207 -0.1221
11552TIP3    H156147   0.808   6.027   5.026  0.5016  0.1710  0.4547
11552TIP3    H256148   0.907   6.060   4.916  1.2821  0.9085  1.3652
11553TIP3   OH256149   2.560   4.650  13.070 -0.1633  0.1460  0.2578
11553TIP3    H156150   2.503   4.647  12.994  1.6899  0.0684 -1.1822
11553TIP3    H256151   2.610   4.731  13.060  0.5116 -0.1455  1.0812
11554TIP3   OH256152   5.119   5.239  14.741  0.6100  0.0154  0.5070
11554TIP3    H156153   5.178   5.166  14.724  3.0861  1.9833  0.0220
11554TIP3    H256154   5.141   5.304  14.674 -0.9442  1.4952  1.3519
11555TIP3   OH256155   1.395   4.078   4.751  0.6055 -0.0524 -0.0990
11555TIP3    H156156   1.411   4.063   4.658  0.7325  1.1119 -0.2759
11555TIP3    H256157   1.465   4.031   4.795  0.9487 -0.0466 -0.6255
11556TIP3   OH256158   0.211   1.899  13.391 -0.1062  0.1312  0.2502
11556TIP3    H156159   0.245   1.876  13.478 -0.4225 -0.0191  0.3340
11556TIP3    H256160   0.289   1.905  13.336 -0.0816 -3.0837 -0.2475
11557TIP3   OH256161   2.155   4.935   0.450  0.2785 -0.1416 -0.2116
11557TIP3    H156162   2.161   4.863   0.388  0.1273  0.2160 -0.6522
11557TIP3    H256163   2.206   5.006   0.409 -0.8025  0.4915 -0.4987
11558TIP3   OH256164   6.099   4.395  10.357 -0.5996 -0.1313 -0.1722
11558TIP3    H156165   6.184   4.417  10.318 -1.6712  0.0268 -2.5993
11558TIP3    H256166   6.048   4.476  10.350 -1.1727 -0.4098  0.6505
11559TIP3   OH256167   6.304   4.334  16.526  0.3312  0.4986  0.6493
11559TIP3    H156168   6.319   4.412  16.473  1.3920 -1.5234 -2.2236
11559TIP3    H256169   6.383   4.282  16.517 -0.7215 -1.3982  1.6405
11560TIP3   OH256170   3.447   0.444   5.418 -0.2019 -1.0374 -0.1846
11560TIP3    H156171   3.510   0.513   5.440 -1.4699  0.4960 -1.1933
11560TIP3    H256172   3.498   0.363   5.426  0.6959 -0.3250  3.6122
11561TIP3   OH256173   0.644   3.810   3.631 -0.6345 -0.5046  0.1056
11561TIP3    H156174   0.604   3.849   3.709 -1.6851 -1.6327  0.1572
11561TIP3    H256175   0.651   3.717   3.651  1.4591 -0.4496 -0.1758
11562TIP3   OH256176   4.232   0.102  16.938  0.3802  0.1301 -0.2893
11562TIP3    H156177   4.181   0.085  16.859 -0.0661 -0.1975  0.0556
11562TIP3    H256178   4.208   0.191  16.964  2.1018  1.0537 -1.6493
11563TIP3   OH256179   0.762   5.475   1.659  0.0075  0.8619 -0.0361
11563TIP3    H156180   0.776   5.383   1.634 -1.5158  0.6083 -0.1098
11563TIP3    H256181   0.674   5.495   1.625  0.9737  2.9124 -1.5638
11564TIP3   OH256182   0.211   5.332   2.758 -0.0300 -0.0766 -1.1234
11564TIP3    H156183   0.263   5.387   2.699  2.1131  1.5064  1.9602
11564TIP3    H256184   0.273   5.305   2.826 -2.2910 -1.9469  0.3281
11565TIP3   OH256185   2.496   3.431  12.722 -0.0578 -0.7113 -0.0774
11565TIP3    H156186   2.510   3.398  12.633 -0.2621 -0.3889 -0.2291
11565TIP3    H256187   2.442   3.364  12.763 -0.0189 -0.8307 -0.2180
11566TIP3   OH256188   0.194   4.846   5.296 -0.2885  0.0840 -0.1095
11566TIP3    H156189   0.113   4.865   5.343 -0.5493 -1.4122  0.1121
11566TIP3    H256190   0.197   4.911   5.226 -0.6269  1.4378  1.0720
11567TIP3   OH256191   1.510   5.441   5.193 -0.3017 -0.3387  0.0265
11567TIP3    H156192   1.594   5.475   5.162  0.1019 -0.1735  1.2799
11567TIP3    H256193   1.527   5.412   5.282 -1.5736 -0.3327  0.2819
11568TIP3   OH256194   1.843   2.291  17.169 -0.2102  0.1849 -0.1190
11568TIP3    H156195   1.792   2.326  17.242 -0.3400 -2.2269  1.0308
11568TIP3    H256196   1.922   2.344  17.168  0.2703 -0.3398  2.4967
11569TIP3   OH256197   0.699   0.146  14.202 -0.0208  0.2466  0.6200
11569TIP3    H156198   0.694   0.172  14.110 -0.7465  1.6099  1.0124
11569TIP3    H256199   0.657   0.218  14.250 -2.6246 -1.8447  1.7653
11570TIP3   OH256200   1.139   2.677   1.226 -0.8058  0.8334 -0.1467
11570TIP3    H156201   1.233   2.692   1.235 -1.0104  1.0101  2.7241
11570TIP3    H256202   1.098   2.761   1.246 -1.5874  0.2051  1.0801
11571TIP3   OH256203   4.891   4.294  12.346 -0.1654 -0.5464  0.3300
11571TIP3    H156204   4.930   4.250  12.270 -0.3588  0.1440 -0.1844
11571TIP3    H256205   4.817   4.342  12.309 -0.6834 -0.7525  1.0765
11572TIP3   OH256206   5.955   4.787   0.106 -0.1926  0.1221 -0.6644
11572TIP3    H156207   5.990   4.711   0.059  1.9114  1.1035 -0.8064
11572TIP3    H256208   5.927   4.752   0.190 -0.2695 -0.9978 -1.1380
11573TIP3   OH256209   5.026   5.785   2.298  0.1192  0.4378  0.4651
11573TIP3    H156210   5.032   5.779   2.393 -0.8728  2.7968  0.7332
11573TIP3    H256211   5.027   5.879   2.279 -1.5808  0.1061 -1.7230
11574TIP3   OH256212   6.348   4.642  14.766  0.2178  0.0335  0.6447
11574TIP3    H156213   6.252   4.632  14.764  0.0916  1.1767  0.0279
11574TIP3    H256214   6.380   4.557  14.794 -1.0029 -0.2562  1.2442
11575TIP3   OH256215   3.028   4.618   3.559  0.2783 -0.3344  0.1506
11575TIP3    H156216   3.074   4.694   3.594  3.1801 -1.3846 -1.1009
11575TIP3    H256217   3.024   4.633   3.465 -0.9494 -0.8292  0.1040
11576TIP3   OH256218   2.196   1.008   3.975 -0.0646 -0.0971  0.4287
11576TIP3    H156219   2.187   0.949   3.900 -0.8695 -0.2849  0.6585
11576TIP3    H256220   2.226   1.090   3.938 -1.4070  0.1149 -0.2571
11577TIP3   OH256221   2.111   4.318  15.262 -0.1991 -0.2892  0.0819
11577TIP3    H156222   2.158   4.235  15.271 -0.4988 -0.7116 -1.8854
11577TIP3    H256223   2.027   4.302  15.303 -0.3396 -1.0526 -0.4777
11578TIP3   OH256224   2.832   6.554  16.983 -0.5955 -0.2757 -0.1233
11578TIP3    H156225   2.872   6.601  17.057 -2.3948  1.3196 -0.1008
11578TIP3    H256226   2.883   6.473  16.977  1.6652  0.9717  0.8022
11579TIP3   OH256227   2.202   5.297   2.006 -0.0743 -0.1767 -0.8407
11579TIP3    H156228   2.160   5.364   2.059 -1.0342  1.1563 -3.1504
11579TIP3    H256229   2.146   5.220   2.016  2.6725 -2.0213  4.3957
11580TIP3   OH256230   5.940   3.317  10.800 -0.2237 -0.6872  0.0099
11580TIP3    H156231   5.880   3.284  10.734 -1.0859 -1.5366  1.1594
11580TIP3    H256232   6.025   3.280  10.777 -0.8385 -2.3527  0.2742
11581TIP3   OH256233   2.703   5.503   1.437 -0.6258 -0.1104  0.3922
11581TIP3    H156234   2.666   5.531   1.521  0.9923 -1.1354  1.5129
11581TIP3    H256235   2.659   5.420   1.418  0.4589 -0.9212  1.3122
11582TIP3   OH256236   6.085   6.684  14.810  0.1471  0.0513 -0.8896
11582TIP3    H156237   6.082   6.603  14.861  0.2456  0.1698 -0.6944
11582TIP3    H256238   6.151   6.737  14.854 -1.7977  1.3315  0.6258
11583TIP3   OH256239   4.774   5.330  12.077 -0.1263  0.4048  0.2708
11583TIP3    H156240   4.754   5.397  12.012 -0.6485 -1.9275 -2.1858
11583TIP3    H256241   4.863   5.302  12.057 -0.6515 -1.0465 -0.2071
11584TIP3   OH256242   0.667   0.064  11.583  0.3630 -1.1341  0.5560
11584TIP3    H156243   0.672   0.105  11.497  0.2799 -1.6749  0.2868
11584TIP3    H256244   0.756   0.071  11.619  0.5062 -1.3101  0.2369
11585TIP3   OH256245   5.611   4.038  17.197  0.0941  0.1537 -0.4188
11585TIP3    H156246   5.606   4.065  17.105 -1.2354 -0.1367 -0.4414
11585TIP3    H256247   5.619   3.943  17.195 -0.9593  0.0496 -0.2285
11586TIP3   OH256248   5.478   5.857  13.399  0.2433 -0.2228 -0.3116
11586TIP3    H156249   5.567   5.822  13.400 -0.3636 -1.9903  2.2526
11586TIP3    H256250   5.486   5.945  13.434  0.9343 -0.6097  0.5390
11587TIP3   OH256251   4.652   3.729  10.691 -0.0760 -0.3935 -0.1567
11587TIP3    H156252   4.649   3.671  10.615 -0.8023  0.8897 -1.1344
11587TIP3    H256253   4.578   3.788  10.680  0.7153  0.8320  0.7288
11588TIP3   OH256254   3.109   5.164   0.233  0.1413 -0.2732  0.2388
11588TIP3    H156255   3.087   5.195   0.145  0.7493 -0.9524 -0.1640
11588TIP3    H256256   3.113   5.243   0.287 -1.9499  0.0104  0.0555
11589TIP3   OH256257   1.030   2.342  14.712 -0.3955 -0.2014 -0.3914
11589TIP3    H156258   1.077   2.262  14.691 -1.0922 -0.6463 -0.2927
11589TIP3    H256259   0.943   2.329  14.673 -0.2177  0.9052 -1.2063
11590TIP3   OH256260   5.909   4.434   1.293  0.4204  0.2286  0.0391
11590TIP3    H156261   5.831   4.426   1.348 -0.7982 -0.6934 -1.7291
11590TIP3    H256262   5.981   4.410   1.351 -0.7874 -0.5797  1.2815
11591TIP3   OH256263   2.627   1.704   0.150 -0.2136 -0.3908 -0.1895
11591TIP3    H156264   2.556   1.707   0.213  0.1814  1.1077  0.2039
11591TIP3    H256265   2.663   1.615   0.158 -1.8135 -1.0679 -0.1864
11592TIP3   OH256266   2.837   3.958  11.102 -0.5402 -0.5223  0.3544
11592TIP3    H156267   2.820   3.879  11.051  1.0068 -1.5794  1.3840
11592TIP3    H256268   2.931   3.975  11.090 -1.0411  1.9497 -0.8669
11593TIP3   OH256269   4.178   0.814  11.840  0.4247  0.0089  0.0452
11593TIP3    H156270   4.224   0.877  11.896 -1.8893  1.2256  0.6870
11593TIP3    H256271   4.162   0.738  11.896  2.5368 -0.9293 -0.5107
11594TIP3   OH256272   0.265   3.271  13.373  0.2919  0.0557  0.4896
11594TIP3    H156273   0.217   3.214  13.434  1.2563 -0.5747  0.6793
11594TIP3    H256274   0.347   3.225  13.356  0.0101  0.1524 -1.3962
11595TIP3   OH256275   5.921   1.104  16.221  0.2156  0.1571  0.3116
11595TIP3    H156276   5.922   1.014  16.253  0.4877  0.5702  1.5210
11595TIP3    H256277   5.937   1.096  16.127  0.2639 -1.0517  0.4070
11596TIP3   OH256278   3.996   2.742   2.387  0.2883  0.1967 -0.6940
11596TIP3    H156279   4.078   2.696   2.368  0.0502 -0.7114  0.3586
11596TIP3    H256280   3.930   2.672   2.391  0.2181  0.2607  2.8017
11597TIP3   OH256281   2.403   6.124  16.598 -0.2216 -0.2383 -0.5316
11597TIP3    H156282   2.408   6.163  16.511  1.3187 -1.1205 -0.8717
11597TIP3    H256283   2.455   6.182  16.653  2.2630 -1.7999 -1.0849
11598TIP3   OH256284   2.274   4.103   0.040 -0.1801 -0.4234  0.4137
11598TIP3    H156285   2.212   4.124   0.110  0.9603 -1.8444  1.9271
11598TIP3    H256286   2.331   4.036   0.078  2.7239  1.2743 -0.6429
11599TIP3   OH256287   0.502   6.061  17.017  0.2441 -0.0354 -0.2913
11599TIP3    H156288   0.571   6.038  16.954  3.0561  1.2813  2.0924
11599TIP3    H256289   0.445   6.122  16.969  1.3021 -0.3663 -2.0459
11600TIP3   OH256290   4.265   1.491  15.817  0.1379 -0.3022 -0.5850
11600TIP3    H156291   4.316   1.415  15.846 -1.4618 -1.2609 -0.1409
11600TIP3    H256292   4.223   1.524  15.897  2.0846  2.1298 -0.4621
11601TIP3   OH256293   6.601   1.645  15.755  0.1088  0.2120  0.8968
11601TIP3    H156294   6.675   1.591  15.783  0.8202  0.5115 -0.2945
11601TIP3    H256295   6.532   1.626  15.818  0.8088 -0.9955  1.3488
11602TIP3   OH256296   3.993   1.928  11.701  0.5500  0.5256  0.5236
11602TIP3    H156297   4.070   1.958  11.653  0.2611  2.5036  1.2150
11602TIP3    H256298   3.922   1.986  11.673 -0.8467 -1.5059 -0.4102
11603TIP3   OH256299   5.692   4.932   1.323 -0.1982  0.2599 -0.6142
11603TIP3    H156300   5.710   5.010   1.377 -3.0542  0.1832  0.6321
11603TIP3    H256301   5.598   4.934   1.309 -0.3339 -2.8400 -0.7778
11604TIP3   OH256302   6.800   6.411   1.880  0.4263 -0.3999  0.2715
11604TIP3    H156303   6.712   6.433   1.848  0.0613 -1.3152  0.6420
11604TIP3    H256304   6.858   6.434   1.806 -0.1433 -0.0931 -0.0928
11605TIP3   OH256305   6.175   6.598  16.422 -0.6249 -0.3277  0.2536
11605TIP3    H156306   6.265   6.565  16.415 -0.0028  1.3649 -0.2755
11605TIP3    H256307   6.127   6.552  16.353  0.5866  0.9061 -1.5215
11606TIP3   OH256308   6.245   2.011  15.291  0.2009 -0.4090 -0.3294
11606TIP3    H156309   6.184   1.937  15.293  0.1419 -0.4094 -1.5208
11606TIP3    H256310   6.214   2.066  15.220 -0.0192  1.0175  0.8386
11607TIP3   OH256311   0.527   3.093  13.851 -0.1492  0.8380 -0.2478
11607TIP3    H156312   0.480   3.024  13.806  0.5716  1.6454 -2.3792
11607TIP3    H256313   0.459   3.152  13.884 -0.6893  0.5195 -0.7852
11608TIP3   OH256314   5.901   4.197   5.545  0.0359  0.1487  0.0604
11608TIP3    H156315   5.811   4.205   5.574  0.0296  1.6505 -0.2860
11608TIP3    H256316   5.950   4.255   5.603  0.8422 -0.8705  0.4337
11609TIP3   OH256317   1.560   6.045  14.498  0.0796 -0.0472 -0.2210
11609TIP3    H156318   1.499   6.044  14.425  0.3198  0.6964 -0.4407
11609TIP3    H256319   1.507   6.074  14.573  0.2842  1.2083 -0.5409
11610TIP3   OH256320   1.631   1.248  10.838  0.4261 -0.6417 -0.4955
11610TIP3    H156321   1.667   1.319  10.785  0.2571  1.3510  1.9087
11610TIP3    H256322   1.625   1.174  10.778  1.0621  1.2181 -2.9902
11611TIP3   OH256323   4.656   3.968  15.601  0.0222 -0.5979 -0.3309
11611TIP3    H156324   4.623   3.996  15.515 -0.7706  1.5764  0.6091
11611TIP3    H256325   4.588   3.996  15.662  2.3270  1.5930  1.4171
11612TIP3   OH256326   0.175   3.338   1.807 -0.1402  0.0526  0.5354
11612TIP3    H156327   0.116   3.410   1.831  1.6710  1.9150 -0.2406
11612TIP3    H256328   0.245   3.381   1.756  1.2422 -2.2162  0.3955
11613TIP3   OH256329   3.811   0.279  15.964 -0.0073  0.1880 -0.3729
11613TIP3    H156330   3.862   0.334  15.903  1.0327 -0.4881 -0.1348
11613TIP3    H256331   3.838   0.309  16.051  0.1027 -0.2804 -0.2436
11614TIP3   OH256332   5.572   0.193  14.472 -0.2792 -0.6973 -0.2250
11614TIP3    H156333   5.598   0.106  14.501  0.4081 -0.5839 -0.5010
11614TIP3    H256334   5.636   0.252  14.510  0.8850 -0.5800 -2.2439
11615TIP3   OH256335   5.361   0.758   1.833 -0.1263  0.4209 -0.0373
11615TIP3    H156336   5.317   0.821   1.890 -0.2032 -1.0790  1.6413
11615TIP3    H256337   5.445   0.799   1.812 -0.0387  0.9498  1.2720
11616TIP3   OH256338   5.453   0.226  14.193  0.3773 -0.0887 -0.0012
11616TIP3    H156339   5.396   0.303  14.198  1.9586  1.1693 -0.5901
11616TIP3    H256340   5.500   0.225  14.277  0.9566  0.0672 -0.3226
11617TIP3   OH256341   3.251   0.258   1.753 -0.1854 -0.0786 -0.0364
11617TIP3    H156342   3.229   0.280   1.843  0.9761 -0.2673  0.3083
11617TIP3    H256343   3.303   0.178   1.759 -0.6448 -0.4672 -0.9332
11618TIP3   OH256344   1.971   4.653  13.132  0.2984 -0.1307  0.0087
11618TIP3    H156345   2.020   4.692  13.204  1.3314 -1.6720  0.1925
11618TIP3    H256346   1.943   4.567  13.165 -0.9077 -0.0564 -0.7552
11619TIP3   OH256347   6.773   3.584  16.344  0.1316 -0.5164 -0.6039
11619TIP3    H156348   6.704   3.576  16.409  0.6281 -1.1559 -0.1398
11619TIP3    H256349   6.735   3.638  16.275 -1.2294 -1.7551 -0.8782
11620TIP3   OH256350   2.279   3.209   6.182  0.4820  0.0034 -0.0482
11620TIP3    H156351   2.354   3.220   6.124  0.2637  0.2913 -0.2766
11620TIP3    H256352   2.293   3.273   6.251 -0.7020  1.6825 -1.2892
11621TIP3   OH256353   4.241   0.884  13.660 -1.0184  0.2038  0.2506
11621TIP3    H156354   4.241   0.931  13.577 -0.1229  1.5012  0.9578
11621TIP3    H256355   4.188   0.938  13.718 -1.9972 -0.9081  0.4416
11622TIP3   OH256356   6.343   6.158  15.318 -0.0483  0.0341  0.1009
11622TIP3    H156357   6.281   6.158  15.245  0.3383  0.4347 -0.2377
11622TIP3    H256358   6.330   6.243  15.361 -0.8730 -0.5417  1.0327
11623TIP3   OH256359   1.539   0.268  13.080  1.1208  0.7191 -0.4606
11623TIP3    H156360   1.538   0.364  13.081  0.5438  0.7280 -1.2406
11623TIP3    H256361   1.594   0.245  13.005  1.4283  0.4339 -0.1511
11624TIP3   OH256362   1.089   2.918  11.735  0.3383  0.7011  0.0418
11624TIP3    H156363   0.999   2.932  11.766 -0.2970 -0.0623 -1.3516
11624TIP3    H256364   1.118   3.005  11.707  0.2841  1.0726  1.0820
11625TIP3   OH256365   4.732   2.795   0.694 -0.7733 -0.0681 -0.1867
11625TIP3    H156366   4.689   2.768   0.775 -0.1580  0.4007  0.3089
11625TIP3    H256367   4.822   2.815   0.721 -0.0667 -1.5953 -1.2981
11626TIP3   OH256368   2.618   6.637  12.031 -0.0125  0.1817 -0.2636
11626TIP3    H156369   2.584   6.575  11.967  1.4718  0.0791 -0.9763
11626TIP3    H256370   2.572   6.615  12.112 -0.8261 -0.6512 -0.9360
11627TIP3   OH256371   3.002   5.329  16.617 -0.1804 -0.2609  0.4151
11627TIP3    H156372   2.985   5.423  16.614 -1.8491 -0.5442 -0.6067
11627TIP3    H256373   3.068   5.314  16.549  1.9004  0.4151  2.1511
11628TIP3   OH256374   1.653   3.920   5.683 -0.5242  0.3382  0.1999
11628TIP3    H156375   1.718   3.851   5.671 -1.3845 -0.4473 -0.1164
11628TIP3    H256376   1.650   3.935   5.778 -0.9868 -0.7450  0.3749
11629TIP3   OH256377   4.158   6.770  13.706 -0.2238  0.1881  0.1111
11629TIP3    H156378   4.115   6.839  13.655 -1.6841 -1.3652 -0.8903
11629TIP3    H256379   4.097   6.752  13.778 -2.4314 -3.1940 -2.2382
11630TIP3   OH256380   0.888   4.721   2.781 -0.2622 -0.3359  0.0792
11630TIP3    H156381   0.843   4.800   2.752  0.7508 -0.0058 -0.6622
11630TIP3    H256382   0.827   4.650   2.763 -1.3799  0.3120  1.2075
11631TIP3   OH256383   0.128   4.237  13.181 -0.1735 -0.1506  0.5507
11631TIP3    H156384   0.122   4.147  13.148  0.5816 -0.3235  0.8834
11631TIP3    H256385   0.045   4.250  13.227 -1.8608  0.5075 -2.3628
11632TIP3   OH256386   2.821   4.957  14.987 -0.1224  0.7180 -0.2129
11632TIP3    H156387   2.891   4.976  14.925 -0.4587  1.2474 -0.4354
11632TIP3    H256388   2.756   5.026  14.972  0.0577  1.2111  1.1418
11633TIP3   OH256389   5.396   6.315   0.910 -0.2607  0.1984 -0.2283
11633TIP3    H156390   5.386   6.327   1.004  0.5484  0.9029 -0.2272
11633TIP3    H256391   5.337   6.379   0.871 -1.5821 -0.9605 -0.2238
11634TIP3   OH256392   4.671   6.203  16.424 -0.1507 -0.4141  0.4319
11634TIP3    H156393   4.690   6.196  16.518  0.4076  1.2786  0.4836
11634TIP3    H256394   4.588   6.253  16.420  1.3812  2.3125  0.0474
11635TIP3   OH256395   3.199   4.397   4.364  0.3408  0.0372  0.1315
11635TIP3    H156396   3.184   4.303   4.379  0.4064 -0.2420 -1.4184
11635TIP3    H256397   3.292   4.409   4.381  0.6907 -0.5352 -1.2476
11636TIP3   OH256398   0.583   0.054   6.130  0.1533  0.0977 -0.5281
11636TIP3    H156399   0.533   0.094   6.200 -0.2552  0.9235 -1.2820
11636TIP3    H256400   0.604   0.126   6.070  1.8720 -0.2955 -0.4545
11637TIP3   OH256401   2.078   2.496   0.492 -0.1356  0.1419 -0.0809
11637TIP3    H156402   2.029   2.518   0.412 -0.1298 -2.4289 -0.8977
11637TIP3    H256403   2.166   2.476   0.461  0.4445  1.1227  0.8865
11638TIP3   OH256404   5.297   3.364   0.915  0.6717  0.4120 -0.2729
11638TIP3    H156405   5.288   3.459   0.924  0.9589  0.4212 -0.0724
11638TIP3    H256406   5.207   3.332   0.908  0.5155  0.5859  0.8132
11639TIP3   OH256407   5.912   1.037   1.187 -0.2762  0.0685  0.1165
11639TIP3    H156408   5.925   1.066   1.278  1.1659 -2.1179  0.6951
11639TIP3    H256409   5.908   0.941   1.193  0.4945 -0.1731 -2.1918
11640TIP3   OH256410   6.113   5.103  12.159  0.4370 -0.5445  0.2717
11640TIP3    H156411   6.040   5.150  12.201  0.0813 -0.0152 -0.8998
11640TIP3    H256412   6.169   5.172  12.123 -0.3499 -0.9545 -1.9133
11641TIP3   OH256413   4.804   6.809  13.651  0.6172 -0.1745 -0.1597
11641TIP3    H156414   4.821   6.786  13.560 -0.3108 -0.3684 -0.2922
11641TIP3    H256415   4.881   6.778  13.698  0.6542 -0.9763 -0.7319
11642TIP3   OH256416   3.590   0.610   4.231  0.2225  0.3240  0.5547
11642TIP3    H156417   3.590   0.697   4.190 -0.4038 -0.5277 -1.3170
11642TIP3    H256418   3.654   0.560   4.181 -1.0384 -0.9344  0.1361
11643TIP3   OH256419   6.412   5.425  11.609  0.3272 -0.1526  0.1782
11643TIP3    H156420   6.491   5.410  11.661 -0.0991 -1.8831  0.4029
11643TIP3    H256421   6.343   5.379  11.657 -0.2286 -1.1513 -1.4671
11644TIP3   OH256422   2.799   0.102  13.162  0.1072  0.1152 -0.3158
11644TIP3    H156423   2.803   0.071  13.252  4.7928 -3.6368 -1.4375
11644TIP3    H256424   2.838   0.190  13.165 -0.5879  0.3983  1.3362
11645TIP3   OH256425   3.822   2.185  16.602 -0.1367 -0.3648 -0.2347
11645TIP3    H156426   3.862   2.145  16.525 -1.1701  0.5143 -1.2683
11645TIP3    H256427   3.844   2.278  16.596  2.2468 -0.6449  2.1506
11646TIP3   OH256428   5.384   0.609   1.597  0.3205 -0.1749 -0.1143
11646TIP3    H156429   5.385   0.640   1.687  2.9445  2.6426 -0.9673
11646TIP3    H256430   5.334   0.675   1.549  1.7871  0.1853 -1.2136
11647TIP3   OH256431   4.387   6.345  16.677  0.8657  0.2474 -0.0880
11647TIP3    H156432   4.411   6.412  16.741  0.1737 -0.6725  1.1799
11647TIP3    H256433   4.456   6.278  16.685  0.0124 -0.5727  0.8152
11648TIP3   OH256434   1.228   0.888   0.354 -0.2622 -0.1070 -0.6465
11648TIP3    H156435   1.310   0.916   0.394  0.2602 -1.6942 -0.5049
11648TIP3    H256436   1.234   0.917   0.263 -0.2214  1.0792 -0.2850
11649TIP3   OH256437   4.602   1.896  14.895 -0.0072  0.1638  0.1274
11649TIP3    H156438   4.696   1.893  14.880  0.2161  2.1259  0.8110
11649TIP3    H256439   4.580   1.811  14.931  1.2779 -0.7659 -1.1919
11650TIP3   OH256440   4.519   0.708   2.514  1.3458 -0.0777  0.0681
11650TIP3    H156441   4.591   0.728   2.453  0.7257 -1.0211 -1.0032
11650TIP3    H256442   4.550   0.633   2.563  1.7565  0.5496  0.7924
11651TIP3   OH256443   3.606   5.827   2.402  0.2479 -0.0264  0.3456
11651TIP3    H156444   3.668   5.794   2.337 -0.3186  1.1206 -0.8316
11651TIP3    H256445   3.520   5.799   2.370 -0.0505  0.6988  0.4778
11652TIP3   OH256446   4.415   4.021   4.087 -0.0615 -0.1845 -0.2169
11652TIP3    H156447   4.368   4.099   4.057 -0.5467 -0.8646 -1.3028
11652TIP3    H256448   4.363   3.988   4.160  0.0512  0.3975  0.1350
11653TIP3   OH256449   3.084   0.515   1.341  0.0644 -0.0413 -0.2342
11653TIP3    H156450   3.169   0.544   1.311  0.5120  0.0364  1.0424
11653TIP3    H256451   3.037   0.596   1.364 -0.4135 -0.0735 -1.0534
11654TIP3   OH256452   5.998   1.696   3.639 -0.1707 -0.0869 -0.6100
11654TIP3    H156453   6.030   1.720   3.552 -0.6341 -0.1689 -0.8040
11654TIP3    H256454   5.932   1.762   3.660  1.2115  1.0187  0.4660
11655TIP3   OH256455   2.521   0.246  13.961  0.4818 -0.0661 -0.3606
11655TIP3    H156456   2.465   0.169  13.970 -0.9557  1.0750  1.2899
11655TIP3    H256457   2.538   0.274  14.051  1.4719  1.1729 -0.9008
11656TIP3   OH256458   4.375   4.434   2.703  0.0256 -0.6872 -0.5112
11656TIP3    H156459   4.447   4.459   2.646  0.3213 -1.3825 -0.4519
11656TIP3    H256460   4.346   4.349   2.670 -1.0835 -0.2041 -0.8305
11657TIP3   OH256461   0.909   3.491  12.286 -0.0240 -0.2225 -0.2708
11657TIP3    H156462   0.944   3.561  12.231 -0.2080  0.3183  0.2850
11657TIP3    H256463   0.975   3.478  12.353 -0.2997 -0.0977  0.0282
11658TIP3   OH256464   6.663   0.273   4.283  0.0799  0.2848 -0.6480
11658TIP3    H156465   6.639   0.366   4.275  0.3368  0.5797  1.4451
11658TIP3    H256466   6.756   0.275   4.307 -0.9349 -0.1400  4.3980
11659TIP3   OH256467   0.289   4.453  11.121  0.3351  0.5006  0.3242
11659TIP3    H156468   0.379   4.484  11.104 -0.3183  2.1675 -0.3462
11659TIP3    H256469   0.272   4.390  11.052  0.9239  0.3307  0.3299
11660TIP3   OH256470   2.934   2.931   2.055  0.0143  0.1450  0.8059
11660TIP3    H156471   2.974   2.986   2.123 -1.4886  0.9174  1.1206
11660TIP3    H256472   3.002   2.869   2.030  1.6013  1.8103  0.8270
11661TIP3   OH256473   5.601   3.443   2.413  0.1347 -0.0224  0.0024
11661TIP3    H156474   5.626   3.479   2.497  1.1122  2.4169 -1.2510
11661TIP3    H256475   5.655   3.365   2.403  0.9429  0.3858  1.0689
11662TIP3   OH256476   0.710   2.516   5.301 -0.9646  0.4339 -0.4252
11662TIP3    H156477   0.643   2.570   5.260 -0.3331  1.1208 -0.5834
11662TIP3    H256478   0.791   2.566   5.290 -0.4272 -0.3624 -0.2191
11663TIP3   OH256479   5.961   0.592  11.387 -0.2514  0.4622 -0.4004
11663TIP3    H156480   5.908   0.517  11.415  1.3859 -0.1737  1.2423
11663TIP3    H256481   6.011   0.559  11.312 -0.8721  0.4959 -0.8283
11664TIP3   OH256482   4.154   6.626   2.997  0.1026  0.3355 -0.4872
11664TIP3    H156483   4.089   6.659   3.059  0.2712  1.4118 -0.8669
11664TIP3    H256484   4.183   6.703   2.949  0.5511 -0.3672 -1.3692
11665TIP3   OH256485   4.804   3.623  16.487  0.1037 -0.0942  0.0218
11665TIP3    H156486   4.795   3.705  16.535 -1.0366  0.3402 -0.8788
11665TIP3    H256487   4.881   3.581  16.525  0.8047  1.4622  0.3757
11666TIP3   OH256488   2.910   2.494   3.011  0.3896 -0.6269  0.4444
11666TIP3    H156489   2.884   2.438   3.085 -1.1436  0.4332  0.7727
11666TIP3    H256490   2.948   2.572   3.052 -0.0110 -0.2489  0.1161
11667TIP3   OH256491   0.347   3.747   5.852  0.5209 -0.7965  0.1377
11667TIP3    H156492   0.286   3.790   5.912  0.1290  0.4114 -1.0644
11667TIP3    H256493   0.421   3.721   5.908 -0.0111 -0.0978  1.2083
11668TIP3   OH256494   3.186   5.730   1.774  0.7180  0.6489 -0.3728
11668TIP3    H156495   3.267   5.703   1.732 -0.2917 -0.5445 -1.6294
11668TIP3    H256496   3.213   5.759   1.861  2.4887  0.3449 -0.7874
11669TIP3   OH256497   6.631   0.212  14.335  0.5101  0.2871  0.5325
11669TIP3    H156498   6.551   0.230  14.286 -0.0589  0.3747  1.4645
11669TIP3    H256499   6.615   0.249  14.422  1.7501  0.7179  0.6014
11670TIP3   OH256500   1.780   0.392  16.581  0.3527 -0.1797 -0.6657
11670TIP3    H156501   1.848   0.429  16.638 -0.0857 -1.8806  1.1021
11670TIP3    H256502   1.823   0.383  16.496  1.5881  0.9090 -0.1998
11671TIP3   OH256503   5.317   3.288  15.825  0.2264 -0.3384  0.6112
11671TIP3    H156504   5.412   3.279  15.820  0.5404  2.8159 -2.4339
11671TIP3    H256505   5.302   3.382  15.828 -2.8637 -0.7066 -0.1623
11672TIP3   OH256506   3.828   3.347  14.873  0.3492 -0.0160 -0.3670
11672TIP3    H156507   3.794   3.310  14.791 -0.1765  0.8553 -0.5540
11672TIP3    H256508   3.849   3.438  14.852  1.5072 -0.1532  0.1226
11673TIP3   OH256509   4.028   2.465  14.158  0.3768 -0.5208  0.2645
11673TIP3    H156510   3.947   2.413  14.161  0.6363 -0.9352  0.1057
11673TIP3    H256511   4.088   2.420  14.217  0.3401  0.0622  0.7654
11674TIP3   OH256512   5.530   5.061  15.354  0.3383 -0.2884 -0.2178
11674TIP3    H156513   5.470   4.988  15.370  0.7869 -0.5830  0.1712
11674TIP3    H256514   5.617   5.025  15.373  0.4737  0.6772  1.1348
11675TIP3   OH256515   0.857   2.102   2.898 -0.4968  0.0208 -0.0835
11675TIP3    H156516   0.910   2.112   2.978  0.1622  1.7000 -0.6802
11675TIP3    H256517   0.921   2.084   2.829 -0.8329  0.6725 -0.5765
11676TIP3   OH256518   1.299   2.054   2.098 -0.0331 -0.4503  0.3106
11676TIP3    H156519   1.211   2.069   2.132  0.5184  0.2676  1.4630
11676TIP3    H256520   1.293   2.075   2.005 -0.9695  0.0421  0.4766
11677TIP3   OH256521   1.869   6.449  12.441  0.8342  0.7136  0.3590
11677TIP3    H156522   1.840   6.467  12.351  0.3333  2.8296  0.8959
11677TIP3    H256523   1.878   6.535  12.481 -0.9348 -0.2111  2.9793
11678TIP3   OH256524   6.602   3.372  15.238 -0.2678 -0.0138 -0.3272
11678TIP3    H156525   6.659   3.295  15.235  0.1020  0.2907 -1.3297
11678TIP3    H256526   6.548   3.366  15.160 -1.3428 -0.0750  0.4003
11679TIP3   OH256527   0.467   3.702  12.977  0.0839 -0.0114  0.4787
11679TIP3    H156528   0.448   3.766  13.046 -1.6644 -0.4001  0.4120
11679TIP3    H256529   0.415   3.731  12.903  0.2127 -0.8396  0.0498
11680TIP3   OH256530   1.222   1.033  11.534 -0.1168  0.6085  0.3738
11680TIP3    H156531   1.128   1.017  11.527 -0.3914  1.8369  0.8812
11680TIP3    H256532   1.235   1.060  11.625  1.2755 -2.6351  1.2564
11681TIP3   OH256533   0.041   1.771   3.957  0.2534 -0.4074  0.2928
11681TIP3    H156534   0.026   1.751   4.049 -0.6444  1.7179  0.6436
11681TIP3    H256535  -0.046   1.772   3.918  0.3795  1.3678  0.0172
11682TIP3   OH256536   4.359   3.368   3.986 -0.3892  0.7902  0.3714
11682TIP3    H156537   4.381   3.358   3.893  0.9448 -0.9026  0.8150
11682TIP3    H256538   4.307   3.448   3.990 -1.1392  0.4787 -1.9348
11683TIP3   OH256539   5.920   2.562   2.500  0.5769 -0.7646 -0.1151
11683TIP3    H156540   5.913   2.623   2.574  0.4910  1.0583 -1.5588
11683TIP3    H256541   6.014   2.557   2.482  0.4297  1.2676 -1.7768
11684TIP3   OH256542   2.048   0.593  14.789 -0.0635  0.2259 -0.1672
11684TIP3    H156543   2.102   0.666  14.761  0.8122 -0.2967  0.1459
11684TIP3    H256544   2.107   0.518  14.791 -1.1130 -0.6937 -1.3150
11685TIP3   OH256545   0.168   2.840   2.080 -0.0237  0.6782 -0.1962
11685TIP3    H156546   0.182   2.815   2.171  1.0101  0.2825 -0.4576
11685TIP3    H256547   0.169   2.758   2.032 -0.4830  0.8929 -0.5825
11686TIP3   OH256548   1.147   6.093  12.627  0.3985  0.1420  0.3845
11686TIP3    H156549   1.098   6.169  12.598 -2.2395 -1.5122  0.1880
11686TIP3    H256550   1.216   6.082  12.562 -0.9243  0.7389 -1.1884
11687TIP3   OH256551   3.552   5.232   0.465 -0.0109  0.4196 -0.3903
11687TIP3    H156552   3.489   5.192   0.404 -0.1478 -2.8351  1.6521
11687TIP3    H256553   3.535   5.189   0.549  5.0347 -0.9547  0.2703
11688TIP3   OH256554   6.150   0.494   3.056  0.0739 -0.0792 -0.2318
11688TIP3    H156555   6.128   0.478   3.148  0.6626 -3.4584 -0.5290
11688TIP3    H256556   6.070   0.532   3.019  0.1684  2.3579  1.7891
11689TIP3   OH256557   3.456   2.827  15.457  0.2311 -0.9152  0.5456
11689TIP3    H156558   3.524   2.842  15.392  1.6679 -0.7278  2.0441
11689TIP3    H256559   3.409   2.750  15.426  1.9541 -1.8354  0.1437
11690TIP3   OH256560   5.504   5.676   1.623  0.0516 -0.0662  0.0354
11690TIP3    H156561   5.588   5.654   1.663  0.3327 -0.0503 -0.5341
11690TIP3    H256562   5.468   5.745   1.679 -0.2496 -1.0464  1.0975
11691TIP3   OH256563   6.398   0.809  14.275  0.4468 -0.0625 -0.0175
11691TIP3    H156564   6.436   0.758  14.203  0.1255  0.0516 -0.2747
11691TIP3    H256565   6.389   0.897  14.239 -0.1914 -0.1228 -0.0116
11692TIP3   OH256566   5.770   1.403   4.449  0.1599 -0.3543  0.3917
11692TIP3    H156567   5.792   1.496   4.456  0.1548 -0.4463  1.8816
11692TIP3    H256568   5.832   1.368   4.385 -0.1604  0.7630 -0.5616
11693TIP3   OH256569   2.027   5.723   5.540 -0.1357  0.1143  0.4622
11693TIP3    H156570   2.028   5.768   5.625 -0.1657  0.3008  0.3654
11693TIP3    H256571   1.933   5.715   5.520 -0.1121  1.5726 -0.3347
11694TIP3   OH256572   6.698   4.006  12.938 -0.1841  0.0256  0.3088
11694TIP3    H156573   6.763   3.964  12.994 -0.9928 -1.3437  0.2532
11694TIP3    H256574   6.615   3.965  12.962 -0.6406 -0.1956 -1.4887
11695TIP3   OH256575   2.163   1.246   4.273 -0.1740  0.2224  0.0621
11695TIP3    H156576   2.250   1.210   4.290  0.8064  2.0186 -0.7642
11695TIP3    H256577   2.118   1.179   4.222  2.3340  0.8511 -3.3282
11696TIP3   OH256578   2.142   2.038   0.572 -0.0519 -0.4750 -0.1434
11696TIP3    H156579   2.066   2.092   0.591  1.0182  0.7947  0.7425
11696TIP3    H256580   2.107   1.949   0.564 -2.0851  0.4404 -3.0916
11697TIP3   OH256581   5.957   3.091  16.291 -0.0119 -0.1132  0.1954
11697TIP3    H156582   5.947   3.001  16.260 -0.4277 -0.2280  0.6521
11697TIP3    H256583   5.941   3.145  16.213  0.1448 -0.4295 -0.0600
11698TIP3   OH256584   2.148   5.596   1.306 -0.3503  0.4721  0.6144
11698TIP3    H156585   2.183   5.507   1.303 -1.4019 -0.0208  1.9091
11698TIP3    H256586   2.065   5.590   1.259 -1.3845  0.2557  2.3763
11699TIP3   OH256587   0.952   1.708   2.678 -0.8065  0.1882  0.2274
11699TIP3    H156588   0.946   1.737   2.587 -1.7786 -1.2388 -0.2001
11699TIP3    H256589   0.862   1.700   2.707 -0.5069  0.3612  1.2502
11700TIP3   OH256590   5.820   0.970  11.013  0.1203 -0.4709  0.6094
11700TIP3    H156591   5.788   1.032  10.948 -1.7396 -1.4018  0.5997
11700TIP3    H256592   5.857   0.898  10.962  1.1667  0.0369  0.6222
11701TIP3   OH256593   3.104   1.472  12.639 -0.2189  0.2511 -0.1938
11701TIP3    H156594   3.029   1.472  12.698 -0.5286 -0.0808 -0.5801
11701TIP3    H256595   3.180   1.462  12.697 -0.6528 -2.8855  0.0447
11702TIP3   OH256596   1.879   0.569   4.936  0.2375 -0.4206  0.0699
11702TIP3    H156597   1.785   0.557   4.947  0.3930 -0.4385  1.4927
11702TIP3    H256598   1.890   0.590   4.843 -1.3079  0.8242  0.1295
11703TIP3   OH256599   6.055   1.240  15.647 -0.3659 -0.3027 -0.1529
11703TIP3    H156600   6.034   1.287  15.566 -0.6801  1.6038  0.9874
11703TIP3    H256601   6.123   1.293  15.689  0.1995 -1.5673  0.5874
11704TIP3   OH256602   2.482   5.721   0.526 -0.3859  0.1149  0.7645
11704TIP3    H156603   2.491   5.745   0.619  0.4434 -0.3838  0.8261
11704TIP3    H256604   2.499   5.802   0.479  2.4645 -0.2532  0.9686
11705TIP3   OH256605   0.184   1.368  11.598  0.5934 -0.3960  0.4420
11705TIP3    H156606   0.248   1.421  11.647  0.0997  1.0554 -0.4316
11705TIP3    H256607   0.124   1.431  11.561  0.6555 -1.4753 -1.6498
11706TIP3   OH256608   6.207   1.466  12.276  0.7928  0.3921 -0.4166
11706TIP3    H156609   6.235   1.421  12.355  1.2834 -0.0416 -0.8344
11706TIP3    H256610   6.117   1.493  12.295  1.1962  1.0597  0.6076
11707TIP3   OH256611   5.268   0.040  12.772 -0.2188 -0.3146  0.2155
11707TIP3    H156612   5.201   0.005  12.832 -1.0257  0.4494 -0.2084
11707TIP3    H256613   5.239   0.130  12.755  1.2530  0.2287  0.4808
11708TIP3   OH256614   6.452   5.918  14.304  0.2921  0.2169 -0.1063
11708TIP3    H156615   6.528   5.940  14.251  1.4662  0.8667  1.7573
11708TIP3    H256616   6.386   5.888  14.241  2.3176 -1.1054 -1.7023
11709TIP3   OH256617   4.586   0.532   4.330  0.3789  0.1196  0.4361
11709TIP3    H156618   4.633   0.604   4.374  2.8663 -0.2547 -1.3622
11709TIP3    H256619   4.620   0.453   4.372  1.3448 -0.1479 -0.7746
11710TIP3   OH256620   3.742   0.919  12.243  0.1358 -0.9625  0.4554
11710TIP3    H156621   3.659   0.895  12.201 -1.3790  0.9094  2.1324
11710TIP3    H256622   3.801   0.939  12.171 -1.5019 -0.4688 -0.8123
11711TIP3   OH256623   5.984   6.185   5.541  0.1310 -0.4167 -0.2750
11711TIP3    H156624   5.910   6.243   5.557  0.2490  0.0790 -1.3871
11711TIP3    H256625   5.962   6.140   5.459  2.2765  1.9213 -2.3264
11712TIP3   OH256626   0.314   0.728  11.079  0.1972  0.0049 -0.6422
11712TIP3    H156627   0.260   0.660  11.039 -0.4744  0.4399 -0.4765
11712TIP3    H256628   0.333   0.789  11.008  1.0003 -0.4627 -0.8488
11713TIP3   OH256629   2.627   4.075   5.445  0.1268  0.0947  0.1130
11713TIP3    H156630   2.612   3.990   5.403  0.3104 -1.0184  2.2008
11713TIP3    H256631   2.706   4.109   5.402 -1.0575  0.1851 -2.1331
11714TIP3   OH256632   5.761   4.528   0.048 -0.2773 -0.1738 -0.5290
11714TIP3    H156633   5.760   4.442   0.091  3.0174 -0.0826 -0.0441
11714TIP3    H256634   5.813   4.514  -0.031  0.6364  1.4226 -0.2533
11715TIP3   OH256635   5.677   2.826   2.264 -0.0046 -0.0046  0.5544
11715TIP3    H156636   5.704   2.918   2.271 -0.2518  0.0957  0.1809
11715TIP3    H256637   5.596   2.821   2.315  1.3928 -0.6074  2.8710
11716TIP3   OH256638   6.353   6.144   1.260 -0.0355  0.5500  0.5211
11716TIP3    H156639   6.269   6.160   1.216  0.2791  0.7065 -0.0437
11716TIP3    H256640   6.333   6.079   1.327 -0.4592 -0.0236 -0.1383
11717TIP3   OH256641   5.594   5.652   4.598 -0.0525 -0.2325  0.8660
11717TIP3    H156642   5.596   5.717   4.668 -0.7640  0.5127  0.2039
11717TIP3    H256643   5.683   5.655   4.561 -0.2583  0.8103  0.4369
11718TIP3   OH256644   6.302   1.391  16.455  0.0102  0.2441 -0.0461
11718TIP3    H156645   6.319   1.436  16.538  0.9344  1.0318 -0.6378
11718TIP3    H256646   6.384   1.399  16.407 -0.6311  0.1072 -1.1862
11719TIP3   OH256647   3.738   6.107   0.401  0.2304  0.0630 -0.2625
11719TIP3    H156648   3.816   6.056   0.424 -0.0687 -0.1534  0.2776
11719TIP3    H256649   3.732   6.173   0.470  1.1188  1.4131 -1.4181
11720TIP3   OH256650   3.043   1.462   1.531  0.6981  0.0739  0.2316
11720TIP3    H156651   3.039   1.369   1.554 -1.2548 -0.4881 -2.0133
11720TIP3    H256652   2.979   1.503   1.590 -0.0750 -0.4061 -0.2494
11721TIP3   OH256653   2.100   6.223  13.706  0.2201  0.5408 -0.3610
11721TIP3    H156654   2.010   6.226  13.673  0.2102 -1.7625 -0.7207
11721TIP3    H256655   2.154   6.247  13.631 -0.0009 -0.6407 -0.9209
11722TIP3   OH256656   5.180   0.229  10.425  0.1744 -0.2601 -0.1386
11722TIP3    H156657   5.155   0.141  10.452  0.6497 -0.5495 -0.6326
11722TIP3    H256658   5.097   0.276  10.418 -0.1320 -0.8468 -0.5001
11723TIP3   OH256659   4.901   6.522   0.676  0.1688  0.0569 -0.2411
11723TIP3    H156660   4.891   6.507   0.582 -0.7246 -1.8206  0.0927
11723TIP3    H256661   4.822   6.570   0.701 -0.9214 -1.6955 -0.0854
11724TIP3   OH256662   2.492   5.625   5.057  0.4824 -0.2605  0.0230
11724TIP3    H156663   2.505   5.712   5.017 -1.0298  0.0693  0.1557
11724TIP3    H256664   2.401   5.603   5.035  0.8320 -1.8091  0.0318
11725TIP3   OH256665   6.616   3.085   6.418  0.1521  0.2873 -0.6997
11725TIP3    H156666   6.711   3.090   6.429 -0.1346  1.5886  2.0627
11725TIP3    H256667   6.591   3.003   6.461 -0.1499  1.0675  0.6714
11726TIP3   OH256668   2.944   5.806   5.512 -0.1370  0.3329  0.3115
11726TIP3    H156669   3.030   5.765   5.508  0.2034  1.0818 -0.1694
11726TIP3    H256670   2.933   5.829   5.604 -0.4367 -1.0260  0.6370
11727TIP3   OH256671   4.852   0.167  10.844 -0.1984  0.3544  0.2291
11727TIP3    H156672   4.928   0.108  10.840 -0.2177  0.1675  1.8607
11727TIP3    H256673   4.831   0.185  10.752  1.2105 -0.3665 -0.2736
11728TIP3   OH256674   3.132   5.005  16.566  0.2740  0.4294 -0.2082
11728TIP3    H156675   3.037   5.008  16.558  0.3253  2.0283 -0.5195
11728TIP3    H256676   3.151   5.055  16.646  0.7629 -1.7035  1.1065
11729TIP3   OH256677   2.994   2.309   3.261  0.3806  0.1709  0.7826
11729TIP3    H156678   2.930   2.377   3.284 -0.1430  0.0449 -0.2448
11729TIP3    H256679   2.950   2.227   3.284  0.0065  0.0639 -0.2513
11730TIP3   OH256680   2.167   3.778  15.147 -0.0488 -0.2593  0.4522
11730TIP3    H156681   2.102   3.757  15.080 -0.3889  1.3433  0.2412
11730TIP3    H256682   2.145   3.722  15.221 -0.4265 -1.1636 -0.3275
11731TIP3   OH256683   1.876   3.767   5.345  0.0451  0.3519  0.0543
11731TIP3    H156684   1.814   3.787   5.274 -0.2583  0.8121  0.4372
11731TIP3    H256685   1.959   3.805   5.317 -0.3041  1.3690  0.3588
11732TIP3   OH256686   4.023   0.066  15.898 -0.3900 -0.1104 -0.2000
11732TIP3    H156687   4.055   0.097  15.982  1.4284  1.5700 -1.4252
11732TIP3    H256688   4.012   0.146  15.845 -1.6794 -1.0908 -1.4946
11733TIP3   OH256689   5.579   6.154  13.902  0.0132 -0.4229  0.0432
11733TIP3    H156690   5.507   6.141  13.840 -0.8921  0.0680  0.9574
11733TIP3    H256691   5.544   6.214  13.967  1.5097  0.4253  0.1165
11734TIP3   OH256692   3.960   5.390  14.626 -0.0140 -0.1722  1.1596
11734TIP3    H156693   3.914   5.467  14.592 -0.3411 -0.3692  1.1604
11734TIP3    H256694   3.940   5.390  14.720  0.8947  0.3777  1.3705
11735TIP3   OH256695   1.703   2.449  16.993  1.2324  0.2025 -0.4277
11735TIP3    H156696   1.703   2.367  17.043  1.3984  1.5427  1.9131
11735TIP3    H256697   1.621   2.447  16.944  1.2119 -1.3264 -0.3900
11736TIP3   OH256698   6.512   1.575   0.417 -0.0865 -0.0016 -0.5564
11736TIP3    H156699   6.454   1.603   0.488  1.0971  1.4706 -0.1085
11736TIP3    H256700   6.591   1.543   0.461 -0.1041 -0.9571 -1.1789
11737TIP3   OH256701   5.015   0.285  16.173  0.0627 -0.2718  0.0850
11737TIP3    H156702   5.087   0.322  16.224  0.5271  0.3376 -0.9718
11737TIP3    H256703   5.058   0.229  16.108 -0.4582 -0.3662 -0.1791
11738TIP3   OH256704   1.567   4.411   5.457 -0.6974 -0.0675 -0.1479
11738TIP3    H156705   1.594   4.326   5.493 -0.4066  0.1110  0.0593
11738TIP3    H256706   1.507   4.389   5.386  0.1326 -0.4885 -0.7449
11739TIP3   OH256707   2.647   6.595   2.551 -0.6217  0.3423  0.0775
11739TIP3    H156708   2.707   6.606   2.478  0.9263 -0.2259  1.2078
11739TIP3    H256709   2.684   6.648   2.622 -2.1924  1.0521  0.4156
11740TIP3   OH256710   2.864   0.380   2.115 -0.0650 -0.2326  0.2377
11740TIP3    H156711   2.789   0.411   2.065 -0.8728 -0.5961  1.1958
11740TIP3    H256712   2.848   0.410   2.204  1.0947 -0.0396  0.4045
11741TIP3   OH256713   0.835   0.450  12.058  0.0943 -0.1986 -0.1254
11741TIP3    H156714   0.774   0.516  12.024  2.8985  1.0353 -3.2842
11741TIP3    H256715   0.913   0.501  12.084  0.4666 -1.8546  2.3645
11742TIP3   OH256716   1.637   2.798   5.760  0.4659 -0.1409 -0.0361
11742TIP3    H156717   1.549   2.763   5.772  0.3924 -0.0295 -0.2321
11742TIP3    H256718   1.666   2.821   5.848 -0.6096  1.9961 -0.1744
11743TIP3   OH256719   2.567   6.774   0.281 -0.2640 -0.4110  0.1047
11743TIP3    H156720   2.582   6.741   0.369 -0.1002 -0.1097  0.1881
11743TIP3    H256721   2.573   6.869   0.289 -0.8810 -0.3489 -0.1096
11744TIP3   OH256722   1.391   1.125  15.487 -0.0801 -0.3396  0.0286
11744TIP3    H156723   1.324   1.184  15.453  1.4271  0.2358 -2.0805
11744TIP3    H256724   1.434   1.175  15.556 -1.0579 -0.3005  0.6302
11745TIP3   OH256725   6.158   3.155   0.019  0.1044  0.1662 -0.7070
11745TIP3    H156726   6.102   3.216   0.068  1.3880  0.4947  0.4203
11745TIP3    H256727   6.240   3.154   0.069 -0.2557 -3.4237  0.0241
11746TIP3   OH256728   3.955   0.051  14.486  0.0944  0.1281 -0.7217
11746TIP3    H156729   3.898   0.046  14.409 -3.3959 -0.2179  1.6720
11746TIP3    H256730   3.951   0.143  14.512  3.0130  0.7407 -1.9824
11747TIP3   OH256731   5.566   5.354   1.347  0.1833  0.0435  0.0770
11747TIP3    H156732   5.613   5.332   1.267 -1.0232 -3.0861  0.1048
11747TIP3    H256733   5.491   5.406   1.317  2.3281  3.2957 -0.1587
11748TIP3   OH256734   2.409   5.997   5.275 -0.2451  0.5080  0.0698
11748TIP3    H156735   2.400   5.917   5.223  1.6310 -0.4865  1.1487
11748TIP3    H256736   2.457   5.969   5.353 -1.8173  2.2067  1.7239
11749TIP3   OH256737   3.028   1.443  10.854  0.3621  0.2199 -0.5108
11749TIP3    H156738   3.002   1.405  10.770  0.6106  0.9166 -0.9106
11749TIP3    H256739   3.075   1.372  10.899  1.0042  0.1143 -1.3362
11750TIP3   OH256740   5.828   2.676   6.180 -0.3816  0.0032 -0.1351
11750TIP3    H156741   5.886   2.601   6.167 -1.3132 -0.7464 -0.0763
11750TIP3    H256742   5.761   2.666   6.113 -0.4983  0.8158 -0.1486
11751TIP3   OH256743   1.945   2.570   1.797  0.1624 -0.3271 -0.0812
11751TIP3    H156744   1.850   2.563   1.809  0.2123  0.0833  0.6225
11751TIP3    H256745   1.955   2.622   1.717 -0.1981 -1.1062 -0.6394
11752TIP3   OH256746   6.452   1.186   6.103  0.4005  0.1008  0.5895
11752TIP3    H156747   6.493   1.139   6.031  0.2418 -0.4566  0.8544
11752TIP3    H256748   6.421   1.117   6.162 -0.0823  0.5349  0.8514
11753TIP3   OH256749   1.305   1.757   2.058  0.2966 -0.7977 -0.5245
11753TIP3    H156750   1.271   1.794   2.139  0.1570 -0.9481 -0.5133
11753TIP3    H256751   1.397   1.738   2.077 -0.1915 -2.5862  0.2167
11754TIP3   OH256752   3.913   3.400  13.093 -0.4691  0.0546  0.4580
11754TIP3    H156753   3.901   3.355  13.177 -0.6235  0.7377  0.8120
11754TIP3    H256754   3.825   3.428  13.068 -0.8783 -2.5646 -1.3489
11755TIP3   OH256755   0.508   2.929  12.774 -0.0479 -0.0665 -0.0346
11755TIP3    H156756   0.603   2.936  12.765 -0.0631 -0.2869 -0.3930
11755TIP3    H256757   0.475   2.940  12.685 -0.2036 -2.4073 -0.3085
11756TIP3   OH256758   0.937   2.240   4.002  0.1096 -0.4557 -0.4526
11756TIP3    H156759   0.998   2.213   4.071 -1.4667 -1.1412  0.7180
11756TIP3    H256760   0.988   2.231   3.921  2.8470  2.6826  0.6655
11757TIP3   OH256761   2.071   1.299   2.015  0.0129 -0.4379  0.6904
11757TIP3    H156762   2.011   1.322   2.087  0.4717 -0.5603  1.1231
11757TIP3    H256763   2.158   1.305   2.055  0.3593  0.7495 -0.1941
11758TIP3   OH256764   0.033   4.861   2.478  0.0995  0.2611 -0.6168
11758TIP3    H156765   0.082   4.801   2.535  0.2787  0.3108 -0.7149
11758TIP3    H256766  -0.023   4.804   2.425  1.0845  0.0723 -1.5011
11759TIP3   OH256767   0.099   3.019   4.889 -0.0325 -0.1810 -0.4808
11759TIP3    H156768   0.097   2.946   4.950 -0.3446 -1.8434 -2.3664
11759TIP3    H256769   0.189   3.050   4.891  0.4853 -1.5928 -0.6801
11760TIP3   OH256770   5.993   5.761   5.754 -0.1434 -0.8007 -0.1071
11760TIP3    H156771   5.978   5.716   5.837 -1.3382  0.6108  0.5009
11760TIP3    H256772   5.950   5.846   5.765  0.0164 -0.4222 -2.0325
11761TIP3   OH256773   4.836   2.688  12.354  0.7724 -0.4838  0.0550
11761TIP3    H156774   4.787   2.675  12.435 -1.1424  0.1087 -0.9298
11761TIP3    H256775   4.787   2.756  12.308  1.2679 -1.4416 -1.9886
11762TIP3   OH256776   0.545   2.504   6.373  0.1936 -1.3534  0.1097
11762TIP3    H156777   0.541   2.565   6.299  2.4465 -1.1041  0.1110
11762TIP3    H256778   0.480   2.437   6.352 -1.3273  0.2525 -0.5978
11763TIP3   OH256779   2.217   5.894   1.900  0.0503 -0.4986 -0.5646
11763TIP3    H156780   2.309   5.869   1.905  0.2208  0.3273  1.9420
11763TIP3    H256781   2.175   5.845   1.971 -0.9799  0.7859 -0.2337
11764TIP3   OH256782   0.616   5.623   2.581 -0.0963  0.1594  0.2220
11764TIP3    H156783   0.630   5.708   2.539  1.3639 -0.7022 -1.1938
11764TIP3    H256784   0.653   5.560   2.519  0.0174 -1.4092  1.8011
11765TIP3   OH256785   6.594   1.616  13.716  0.2749 -0.0890 -0.2717
11765TIP3    H156786   6.609   1.561  13.792 -1.6382  0.0876  0.2928
11765TIP3    H256787   6.518   1.669  13.739  0.4664  0.9262 -1.8036
11766TIP3   OH256788   6.266   3.454   3.387 -0.2355  0.1206 -0.6771
11766TIP3    H156789   6.308   3.452   3.473 -1.3336 -0.3631 -0.1287
11766TIP3    H256790   6.172   3.447   3.406 -0.5231  0.4344 -1.8947
11767TIP3   OH256791   2.612   1.194  10.790 -0.4492  0.4210 -0.3123
11767TIP3    H156792   2.534   1.140  10.779 -0.2682  0.3891 -1.5417
11767TIP3    H256793   2.667   1.145  10.850 -0.7740 -0.2250 -0.5334
11768TIP3   OH256794   1.303   2.027   1.043 -0.6229  0.3651  0.1456
11768TIP3    H156795   1.230   1.966   1.046 -0.7646  0.4921 -0.5036
11768TIP3    H256796   1.303   2.060   0.953  1.1024 -0.7040 -0.2930
11769TIP3   OH256797   3.829   1.697  11.281 -0.4087  0.3294 -0.3108
11769TIP3    H156798   3.789   1.736  11.203 -1.4811 -0.1761 -0.0350
11769TIP3    H256799   3.821   1.763  11.349  0.3314  0.6884 -0.5649
11770TIP3   OH256800   1.916   0.693   3.078  0.0469  0.1344  0.0564
11770TIP3    H156801   1.901   0.712   3.171  1.1856  0.6589  0.1523
11770TIP3    H256802   1.992   0.635   3.078  1.0728  1.4551 -0.6236
11771TIP3   OH256803   6.371   2.623  15.358 -0.3178 -0.1479 -0.7592
11771TIP3    H156804   6.455   2.669  15.365  0.6672 -1.9850  0.6046
11771TIP3    H256805   6.328   2.638  15.443  0.2861 -2.0826 -0.0465
11772TIP3   OH256806   2.000   3.517  15.601  0.0171  0.0900  0.1435
11772TIP3    H156807   2.043   3.434  15.584 -0.6426 -0.0674 -0.8739
11772TIP3    H256808   1.919   3.493  15.646  0.9747  0.3867  2.1047
11773TIP3   OH256809   5.616   0.984  16.382  0.0228 -0.8427 -0.3252
11773TIP3    H156810   5.673   0.978  16.458  0.0692  1.8228 -0.0638
11773TIP3    H256811   5.676   0.991  16.308  0.0089 -0.8895 -0.3407
11774TIP3   OH256812   1.411   5.785  10.802  0.2210 -0.0462 -0.0470
11774TIP3    H156813   1.386   5.875  10.783  0.1625  0.5574  2.5138
11774TIP3    H256814   1.436   5.786  10.894 -0.1799 -2.7397  0.1743
11775TIP3   OH256815   2.829   3.256   4.251 -0.1029  0.0459  0.2442
11775TIP3    H156816   2.795   3.291   4.334  1.7839  1.7553  0.3749
11775TIP3    H256817   2.923   3.250   4.265  0.1369 -0.5655 -1.4598
11776TIP3   OH256818   5.117   0.120  16.569 -0.1244 -0.1246  0.0175
11776TIP3    H156819   5.205   0.136  16.603  0.1524  0.1754 -0.8096
11776TIP3    H256820   5.108   0.024  16.570  0.5606 -0.2076 -0.7131
11777TIP3   OH256821   6.554   3.405  11.513 -0.0051 -0.2905 -0.2002
11777TIP3    H156822   6.569   3.443  11.599 -0.8777  2.6874 -1.2598
11777TIP3    H256823   6.629   3.434  11.461 -1.0591  0.6764 -1.2284
11778TIP3   OH256824   4.371   1.694  10.427  0.2418  0.1990 -0.2509
11778TIP3    H156825   4.275   1.693  10.430  0.2709 -0.4953  0.9476
11778TIP3    H256826   4.393   1.650  10.345 -0.4546 -0.6181 -0.0146
11779TIP3   OH256827   5.962   6.520   6.225 -0.5421  0.6844 -0.0038
11779TIP3    H156828   6.037   6.567   6.262  1.5948 -1.5567 -1.1706
11779TIP3    H256829   5.973   6.430   6.255 -2.2969  0.1001 -0.9582
11780TIP3   OH256830   0.193   1.383  10.432  0.4736  0.4399 -0.6975
11780TIP3    H156831   0.251   1.368  10.357  0.4911 -2.3808 -0.2196
11780TIP3    H256832   0.213   1.312  10.493 -2.3985  0.2358  0.1573
11781TIP3   OH256833   2.434   5.368  12.101  0.0368 -0.6118  0.8526
11781TIP3    H156834   2.489   5.433  12.144  0.8837 -1.1000  0.5406
11781TIP3    H256835   2.440   5.290  12.157  1.8109 -1.5235 -0.4841
11782TIP3   OH256836   2.398   4.598  13.299  0.0651  0.6844 -0.2497
11782TIP3    H156837   2.331   4.535  13.273  0.8525 -0.6987  0.9363
11782TIP3    H256838   2.445   4.618  13.218  0.9039 -1.6146 -0.3962
11783TIP3   OH256839   1.246   5.864   2.157  0.4092  0.5474 -0.5819
11783TIP3    H156840   1.270   5.909   2.076  3.4164 -0.6404 -0.4560
11783TIP3    H256841   1.251   5.771   2.136  0.2866  0.2309  0.7158
11784TIP3   OH256842   4.554   2.770   0.984  0.7968 -0.3229  0.3664
11784TIP3    H156843   4.551   2.679   1.014  0.8533  0.4294  2.9199
11784TIP3    H256844   4.462   2.797   0.983  0.8993  0.1515  1.6671
11785TIP3   OH256845   0.355   0.318   3.519  0.1391 -0.1294 -0.3620
11785TIP3    H156846   0.368   0.281   3.432 -2.1913 -2.5857  0.2024
11785TIP3    H256847   0.284   0.382   3.507  0.7862  0.5837 -0.4730
11786TIP3   OH256848   3.589   0.600  11.413  0.1750  0.3717  0.0288
11786TIP3    H156849   3.658   0.664  11.394  1.1875 -0.3494  1.1178
11786TIP3    H256850   3.592   0.589  11.508 -1.3886  0.2341  0.0893
11787TIP3   OH256851   0.245   1.223   4.766 -0.2912 -0.5736  0.2049
11787TIP3    H156852   0.230   1.168   4.843 -0.4212 -1.1504 -0.2199
11787TIP3    H256853   0.283   1.303   4.801 -0.1913 -0.8916  0.8528
11788TIP3   OH256854   3.418   4.918   4.779  1.2377 -0.0777  0.1567
11788TIP3    H156855   3.512   4.909   4.764  1.4072 -0.0863  1.1819
11788TIP3    H256856   3.406   5.010   4.805  0.9245 -0.0182 -0.1759
11789TIP3   OH256857   6.661   1.821  12.233 -0.4745  0.1541  0.1544
11789TIP3    H156858   6.599   1.766  12.281  0.5224 -1.5852 -0.4376
11789TIP3    H256859   6.743   1.812  12.282  0.1373 -0.3258 -0.9122
11790TIP3   OH256860   5.528   4.024   5.106 -0.3289 -0.2530  0.0266
11790TIP3    H156861   5.610   4.072   5.124 -0.7169  0.2051  0.6084
11790TIP3    H256862   5.512   3.974   5.186 -1.7089  1.2738  0.7615
11791TIP3   OH256863   0.828   0.841  11.128 -0.0424  0.5660 -0.3340
11791TIP3    H156864   0.843   0.915  11.188 -1.4417  0.8165 -0.2523
11791TIP3    H256865   0.792   0.772  11.184 -0.7521  0.5779 -0.7638
11792TIP3   OH256866   5.000   3.583  15.656  0.2073  0.5162  0.0227
11792TIP3    H156867   4.997   3.602  15.750 -0.9990 -0.5790  0.2350
11792TIP3    H256868   4.963   3.661  15.615 -0.4412  0.5030  0.5554
11793TIP3   OH256869   1.298   5.442  16.035  0.0155 -0.3129 -0.2598
11793TIP3    H156870   1.369   5.379  16.027  1.0878  0.4628  2.2779
11793TIP3    H256871   1.337   5.526  16.013 -0.3935 -0.0014  0.1926
11794TIP3   OH256872   0.859   6.586   4.443 -0.3972  0.4024 -0.9566
11794TIP3    H156873   0.873   6.492   4.442 -2.8061 -0.0659  0.0507
11794TIP3    H256874   0.810   6.605   4.363 -1.3122  0.4736 -0.4054
11795TIP3   OH256875   1.467   3.313   1.097  0.0216  0.2102  0.0249
11795TIP3    H156876   1.371   3.315   1.089  0.0054  0.6050  0.2981
11795TIP3    H256877   1.488   3.219   1.103 -0.3685  0.1305  0.2068
11796TIP3   OH256878   2.734   1.016  11.967 -0.3424  0.6958 -0.6786
11796TIP3    H156879   2.678   0.957  12.018  0.5724 -0.5098 -1.0288
11796TIP3    H256880   2.729   1.100  12.014 -0.9936  0.1236  0.3246
11797TIP3   OH256881   4.959   4.579  12.190 -0.3606  0.1157  0.3609
11797TIP3    H156882   4.883   4.528  12.164 -0.0203 -0.4265  0.4088
11797TIP3    H256883   5.006   4.597  12.109  0.7413 -1.6411  0.5710
11798TIP3   OH256884   1.970   6.266   2.948 -0.2324 -0.3357  0.0823
11798TIP3    H156885   2.006   6.332   2.889  0.1580  0.1982  0.8867
11798TIP3    H256886   1.970   6.185   2.898  0.8916 -0.0718 -0.3622
11799TIP3   OH256887   3.111   1.318   0.430  0.0640 -0.6188  0.0697
11799TIP3    H156888   3.100   1.225   0.453 -1.4610 -0.4214  0.2236
11799TIP3    H256889   3.038   1.362   0.472 -0.5073  0.3463 -1.8109
11800TIP3   OH256890   4.037   4.492   0.454 -0.0154 -0.4844 -0.2901
11800TIP3    H156891   4.099   4.514   0.385  0.5147 -0.1807  0.2716
11800TIP3    H256892   3.991   4.574   0.473 -0.4513 -0.6602 -0.5570
11801TIP3   OH256893   5.728   3.379   0.054  0.0370 -0.3664  0.5741
11801TIP3    H156894   5.750   3.306  -0.003 -1.4170 -0.0249 -0.4820
11801TIP3    H256895   5.779   3.363   0.134  1.8956 -1.0149 -0.6678
11802TIP3   OH256896   3.861   2.843   5.368 -0.1549 -0.0659 -0.5154
11802TIP3    H156897   3.880   2.764   5.318  0.6546 -0.3150  0.1569
11802TIP3    H256898   3.791   2.817   5.427  1.0062 -0.7027  0.6349
11803TIP3   OH256899   4.640   1.515  12.756 -0.3086 -0.0850  0.1313
11803TIP3    H156900   4.578   1.553  12.693  0.9625  1.2407 -0.3743
11803TIP3    H256901   4.630   1.568  12.835  0.5292  0.4816 -0.1288
11804TIP3   OH256902   5.775   3.395  16.043 -0.6015  0.6384 -0.0069
11804TIP3    H156903   5.845   3.333  16.022 -0.4073  1.1247 -0.8707
11804TIP3    H256904   5.758   3.440  15.960 -0.9144  1.5448  0.5347
11805TIP3   OH256905   6.030   2.063   6.358  0.1319  0.0675  0.4402
11805TIP3    H156906   6.111   2.099   6.324  0.4886 -1.5822 -0.5970
11805TIP3    H256907   5.977   2.139   6.383  0.7115  1.3058 -1.8597
11806TIP3   OH256908   2.815   5.586  14.772  0.1332 -0.1766 -0.1660
11806TIP3    H156909   2.772   5.665  14.806  0.6865  0.6219 -1.2539
11806TIP3    H256910   2.908   5.603  14.784  0.3801  0.3548 -2.4633
11807TIP3   OH256911   2.585   5.829   4.284  0.3215 -0.8118 -0.1000
11807TIP3    H156912   2.670   5.807   4.322  0.7673 -0.2810 -0.7519
11807TIP3    H256913   2.536   5.747   4.284  1.0147 -1.2388 -0.1590
11808TIP3   OH256914   0.390   3.534  10.560  0.1038 -0.3544 -0.2720
11808TIP3    H156915   0.337   3.572  10.630 -1.4995 -2.8622  0.0194
11808TIP3    H256916   0.409   3.607  10.501 -1.5131  1.1466  0.9561
11809TIP3   OH256917   3.794   4.309   5.432 -0.1235 -0.8109 -0.0592
11809TIP3    H156918   3.704   4.279   5.421  0.1801 -1.4062 -0.9993
11809TIP3    H256919   3.845   4.229   5.439  0.5700 -0.5460 -1.5900
11810TIP3   OH256920   0.504   5.998  16.359  0.0921  0.2984 -0.1335
11810TIP3    H156921   0.571   5.975  16.295  0.1107 -0.4926  0.1583
11810TIP3    H256922   0.543   6.068  16.410  1.0431 -0.6869  0.5502
11811TIP3   OH256923   6.232   3.359  16.692  0.1384  0.0250 -0.2882
11811TIP3    H156924   6.249   3.310  16.773  2.6625  1.2386  0.0071
11811TIP3    H256925   6.245   3.296  16.622  3.8552  0.2100  0.0603
11812TIP3   OH256926   6.819   4.555  15.118 -0.0113 -0.3600 -0.0229
11812TIP3    H156927   6.766   4.614  15.171 -0.8551 -0.9263 -0.2263
11812TIP3    H256928   6.864   4.613  15.057  0.6191  0.2535  0.9857
11813TIP3   OH256929   4.218   2.493   3.263  0.4341 -0.6999 -0.2531
11813TIP3    H156930   4.186   2.472   3.351  1.1512 -1.4508 -0.1588
11813TIP3    H256931   4.140   2.490   3.208  0.1398 -1.2729  0.1835
11814TIP3   OH256932   4.614   2.155   4.542  0.2103 -0.3647  0.3648
11814TIP3    H156933   4.529   2.111   4.554  0.3921 -0.8172  0.0006
11814TIP3    H256934   4.679   2.087   4.560  0.4941 -0.4546 -0.9082
11815TIP3   OH256935   4.981   3.616  15.210 -0.1366 -0.3662 -0.0505
11815TIP3    H156936   4.982   3.598  15.116  0.9908 -1.7003  0.1893
11815TIP3    H256937   4.950   3.536  15.250  0.7970 -0.3191  0.7979
11816TIP3   OH256938   6.223   6.135  16.787 -0.8462  0.4773  0.5057
11816TIP3    H156939   6.197   6.182  16.866 -0.6730  0.4837  0.5584
11816TIP3    H256940   6.203   6.043  16.807  2.6514 -0.1017  2.0573
11817TIP3   OH256941   2.374   5.104   1.147 -0.3491 -0.3105  0.8108
11817TIP3    H156942   2.298   5.051   1.122 -0.3533 -0.0189  0.1780
11817TIP3    H256943   2.378   5.097   1.242 -1.9457  0.7254  0.9842
11818TIP3   OH256944   5.430   3.903  14.223  0.1500  0.1074 -0.4521
11818TIP3    H156945   5.385   3.834  14.174  1.0923 -1.7308  1.1380
11818TIP3    H256946   5.377   3.916  14.301  1.2946 -0.7158  0.5039
11819TIP3   OH256947   6.523   5.358  15.777 -0.2793 -0.2299 -0.2257
11819TIP3    H156948   6.549   5.329  15.690  1.6070  2.6758 -0.7981
11819TIP3    H256949   6.604   5.358  15.828 -1.0014 -0.1547  0.9742
11820TIP3   OH256950   0.919   0.660   3.736 -0.3075  0.1630 -0.3644
11820TIP3    H156951   1.002   0.649   3.691 -0.9430 -0.1164 -1.5209
11820TIP3    H256952   0.881   0.739   3.699 -0.4543  0.4357  0.3416
11821TIP3   OH256953   2.078   5.968   5.190  0.1725 -0.0097  0.4498
11821TIP3    H156954   2.025   6.004   5.119 -0.3903 -1.1624  0.2552
11821TIP3    H256955   2.168   5.973   5.158 -0.0752 -0.5058 -0.3649
11822TIP3   OH256956   5.272   1.809  16.101  0.3637 -0.5704 -0.2356
11822TIP3    H156957   5.201   1.760  16.061  1.5811 -1.0908 -1.8346
11822TIP3    H256958   5.242   1.900  16.102 -0.5069 -0.8530 -0.4569
11823TIP3   OH256959   2.827   2.881  15.406  0.3776  0.4997 -0.1629
11823TIP3    H156960   2.779   2.889  15.489  0.8066  0.6082  0.0810
11823TIP3    H256961   2.861   2.969  15.390  1.3433  0.2022  0.1966
11824TIP3   OH256962   1.958   3.083  14.864 -0.1315 -0.1137  0.2964
11824TIP3    H156963   1.947   3.033  14.945  1.0755  1.3834  1.4164
11824TIP3    H256964   1.921   3.169  14.884  0.7373  0.4637 -0.5400
11825TIP3   OH256965   4.825   1.988  13.769  0.2097 -0.7991 -0.1999
11825TIP3    H156966   4.838   2.063  13.711  1.9097 -1.2878 -0.4780
11825TIP3    H256967   4.744   1.947  13.738 -0.5292  0.6682 -0.2846
11826TIP3   OH256968   1.108   6.519  13.356 -0.3146  0.3302  0.4812
11826TIP3    H156969   1.123   6.564  13.439 -1.8628  1.7327  0.0627
11826TIP3    H256970   1.013   6.519  13.345 -0.8455 -5.6751  1.7594
11827TIP3   OH256971   5.808   0.204   5.221  0.2092 -0.1937  0.1657
11827TIP3    H156972   5.832   0.222   5.312  1.3594  1.3519 -0.3946
11827TIP3    H256973   5.796   0.291   5.182  0.4224 -0.8079 -1.3431
11828TIP3   OH256974   5.931   0.283   6.174  0.0169  0.1155  0.3632
11828TIP3    H156975   5.966   0.200   6.141  0.9646  0.0605  1.4393
11828TIP3    H256976   5.943   0.279   6.269 -0.7331  1.1225  0.5213
11829TIP3   OH256977   0.548   1.296  16.726  0.3634 -0.3409  0.2592
11829TIP3    H156978   0.518   1.387  16.736  1.4111  0.0384  0.0595
11829TIP3    H256979   0.580   1.291  16.636  1.5711 -0.5103  0.6792
11830TIP3   OH256980   1.550   5.491  16.252  0.1670  0.2425 -0.8374
11830TIP3    H156981   1.492   5.418  16.228 -0.7491  0.5464  0.3670
11830TIP3    H256982   1.638   5.456  16.242 -0.2006 -1.9995  2.3563
11831TIP3   OH256983   6.045   0.475   1.274 -0.7098 -0.1410 -0.6729
11831TIP3    H156984   6.047   0.536   1.201  0.6393  1.2269  0.4398
11831TIP3    H256985   6.127   0.490   1.321 -0.4645 -2.6287 -0.1696
11832TIP3   OH256986   1.065   5.683   3.546  0.5558 -0.0034  0.3167
11832TIP3    H156987   1.024   5.672   3.461  0.7672 -1.1259  0.3357
11832TIP3    H256988   1.028   5.613   3.600 -0.1747  1.1684  1.3987
11833TIP3   OH256989   1.935   3.642   0.747  0.3953  0.7603 -0.7571
11833TIP3    H156990   1.955   3.571   0.808 -0.7332 -0.0132 -1.2535
11833TIP3    H256991   1.890   3.707   0.800  1.2622  1.0383 -0.3399
11834TIP3   OH256992   6.137   4.694  11.157  0.2539  0.1556 -0.2962
11834TIP3    H156993   6.200   4.764  11.173 -0.7242  1.2418 -1.0397
11834TIP3    H256994   6.060   4.738  11.122 -0.1911 -1.3418 -1.3431
11835TIP3   OH256995   5.403   3.733   1.349 -0.0110 -0.0845 -0.1289
11835TIP3    H156996   5.404   3.763   1.440  1.0200 -1.3117  0.2919
11835TIP3    H256997   5.386   3.812   1.298  0.3323  0.7926  1.0744
11836TIP3   OH256998   5.128   1.707   6.221  0.3269  0.3771  0.1497
11836TIP3    H156999   5.053   1.740   6.271 -0.4945 -0.5870 -0.3927
11836TIP3    H257000   5.197   1.694   6.286  0.6113  2.8553  0.4153
11837TIP3   OH257001   3.032   6.544   4.479 -0.0886  0.0762  0.4329
11837TIP3    H157002   2.985   6.502   4.551  2.4335 -0.2059  2.0166
11837TIP3    H257003   3.084   6.474   4.440 -1.4342  0.2066 -1.7952
11838TIP3   OH257004   0.895   0.429   3.101 -0.2179 -0.1837  0.7283
11838TIP3    H157005   0.878   0.523   3.095 -2.1942 -0.4589  1.2103
11838TIP3    H257006   0.963   0.421   3.168 -1.5517  0.8153  2.2848
11839TIP3   OH257007   5.610   1.290   0.480  0.0239  0.0047  0.1089
11839TIP3    H157008   5.625   1.374   0.523  0.5752 -0.5583  1.0440
11839TIP3    H257009   5.520   1.295   0.447  0.2092  1.1282 -0.2604
11840TIP3   OH257010   2.741   5.212   5.818 -0.6790 -0.1940  0.2418
11840TIP3    H157011   2.679   5.277   5.851 -0.4358 -0.0023  0.3228
11840TIP3    H257012   2.713   5.130   5.858 -1.6280 -0.3360 -0.6922
11841TIP3   OH257013   5.528   3.078   5.462  0.0599 -0.2397  0.0550
11841TIP3    H157014   5.616   3.107   5.486  0.4711 -0.5021 -1.0865
11841TIP3    H257015   5.511   3.118   5.377  0.5293 -2.9909 -1.4534
11842TIP3   OH257016   4.726   5.983   4.170 -0.2522  0.0130 -0.3849
11842TIP3    H157017   4.722   5.900   4.122 -0.6966  0.4220 -1.0779
11842TIP3    H257018   4.794   5.969   4.236 -1.7555 -1.6329  0.9486
11843TIP3   OH257019   0.393   6.076   5.508 -0.1258  0.1247  0.6883
11843TIP3    H157020   0.361   6.072   5.598 -0.0209  3.0663  0.9481
11843TIP3    H257021   0.488   6.080   5.516 -0.0758 -0.3150  0.3806
11844TIP3   OH257022   2.748   1.937   2.311  0.3987  0.1701  0.1852
11844TIP3    H157023   2.715   1.933   2.401 -0.8689  2.9763 -0.0306
11844TIP3    H257024   2.824   1.995   2.316 -0.4301  1.3669 -0.6864
11845TIP3   OH257025   6.813   3.728  12.456 -0.2507  0.0520 -0.1471
11845TIP3    H157026   6.720   3.717  12.435  0.2095 -2.1947 -1.2866
11845TIP3    H257027   6.813   3.755  12.548 -2.0744  2.4470 -0.7483
11846TIP3   OH257028   2.869   6.402  12.733 -0.1541 -0.2335  0.3420
11846TIP3    H157029   2.802   6.431  12.794 -1.5081  2.6882 -2.2448
11846TIP3    H257030   2.937   6.470  12.739  1.3710 -1.7270  0.9584
11847TIP3   OH257031   0.294   1.431  12.822  0.3272 -0.4052  0.0913
11847TIP3    H157032   0.379   1.471  12.805 -0.4458  1.3739  0.1640
11847TIP3    H257033   0.280   1.443  12.916 -0.6199  0.6558 -0.1639
11848TIP3   OH257034   6.165   4.709   1.199 -0.2996  0.7076  0.2634
11848TIP3    H157035   6.080   4.696   1.242 -0.8210  0.8833 -0.6791
11848TIP3    H257036   6.182   4.803   1.207 -1.8477  1.3080 -2.4477
11849TIP3   OH257037   5.761   1.036   2.365  0.2943  0.0146  0.0256
11849TIP3    H157038   5.851   1.044   2.333  0.5198 -0.4213  0.5299
11849TIP3    H257039   5.709   1.087   2.303  0.5902 -1.5128 -1.5774
11850TIP3   OH257040   5.497   1.330   1.424  0.0872 -0.1312  0.2040
11850TIP3    H157041   5.508   1.422   1.446  0.2194 -0.3972  1.3113
11850TIP3    H257042   5.406   1.311   1.445 -0.2117 -0.0205 -0.9513
11851TIP3   OH257043   3.106   0.278  14.764 -0.3610 -0.6127  0.0315
11851TIP3    H157044   3.159   0.214  14.715 -0.2714  1.1751 -2.3750
11851TIP3    H257045   3.049   0.317  14.698 -0.7135  1.4675  1.4905
11852TIP3   OH257046   5.591   6.197  15.705  0.4926 -0.0853 -0.1237
11852TIP3    H157047   5.608   6.147  15.785 -0.3983 -1.1449 -0.5699
11852TIP3    H257048   5.554   6.279  15.736  3.0421  0.8439  0.6861
11853TIP3   OH257049   1.334   2.618   5.478 -0.8633  0.0842 -0.3899
11853TIP3    H157050   1.388   2.662   5.413  1.4895 -1.4739  0.3585
11853TIP3    H257051   1.370   2.646   5.562  1.4488 -3.6963  0.1569
11854TIP3   OH257052   4.217   0.514   2.666 -0.1909 -0.0296  0.1239
11854TIP3    H157053   4.301   0.469   2.657 -0.7940 -1.0398 -0.6337
11854TIP3    H257054   4.223   0.558   2.751 -0.2501 -3.0676  1.8654
11855TIP3   OH257055   1.117   1.506  13.600 -0.0937 -0.0689  0.2592
11855TIP3    H157056   1.117   1.557  13.519 -1.8685 -1.0134 -0.3711
11855TIP3    H257057   1.107   1.415  13.572 -0.9282 -0.4028  1.5448
11856TIP3   OH257058   3.450   0.143  11.213  0.4584 -0.5208  0.0991
11856TIP3    H157059   3.455   0.235  11.187  1.1747 -0.4418  0.5023
11856TIP3    H257060   3.427   0.146  11.306  2.6824 -0.6694  0.7155
11857TIP3   OH257061   4.482   5.079   0.032 -0.2425  0.7500  0.8079
11857TIP3    H157062   4.576   5.093   0.049  0.0823 -0.3379  0.0154
11857TIP3    H257063   4.441   5.085   0.118  0.5071  1.5176  1.1355
11858TIP3   OH257064   3.074   2.677  15.308 -0.1034  0.2725 -0.0254
11858TIP3    H157065   3.049   2.670  15.400 -0.4409  1.1717 -0.0394
11858TIP3    H257066   3.123   2.759  15.303  0.6441 -0.1804 -0.4989
11859TIP3   OH257067   0.389   5.002  13.555  0.0677 -0.1918  0.1296
11859TIP3    H157068   0.315   5.038  13.506  2.3727  0.0763 -3.5298
11859TIP3    H257069   0.373   4.908  13.557 -0.8116 -0.0487  0.1969
11860TIP3   OH257070   4.286   3.615  13.818  0.2644  0.0899  0.1481
11860TIP3    H157071   4.282   3.677  13.745 -0.3030 -0.9611 -0.7497
11860TIP3    H257072   4.257   3.532  13.780 -0.0004 -0.4958  1.5757
11861TIP3   OH257073   5.265   3.009   5.877  0.2999 -0.3280 -0.1295
11861TIP3    H157074   5.329   3.069   5.838 -0.1943  0.4574  0.2501
11861TIP3    H257075   5.302   2.986   5.962 -0.6006  1.3294  0.7557
11862TIP3   OH257076   4.248   1.156  14.833 -0.1016  0.1353 -0.0822
11862TIP3    H157077   4.310   1.228  14.843 -1.2771  1.3157 -1.0162
11862TIP3    H257078   4.240   1.120  14.922  0.8364  0.8636  0.3196
11863TIP3   OH257079   2.353   0.819  11.731 -0.0412  0.1296  0.6280
11863TIP3    H157080   2.405   0.899  11.736  2.0045 -1.0928 -0.0933
11863TIP3    H257081   2.286   0.830  11.798 -0.3671  2.7914 -0.0299
11864TIP3   OH257082   3.117   6.137  10.815  0.0257 -0.1696  0.1152
11864TIP3    H157083   3.183   6.117  10.749 -1.7492 -1.7174 -1.3108
11864TIP3    H257084   3.162   6.127  10.898  1.7597 -0.4728 -0.8184
11865TIP3   OH257085   0.720   1.602  11.854 -0.5602 -0.1109  0.4141
11865TIP3    H157086   0.705   1.694  11.834  0.2396 -0.0268  0.2021
11865TIP3    H257087   0.721   1.599  11.950 -0.8413  0.0562  0.4235
11866TIP3   OH257088   5.833   1.718   2.510 -0.0988  0.3125 -0.0765
11866TIP3    H157089   5.846   1.804   2.469  0.3398  0.2393 -0.0941
11866TIP3    H257090   5.850   1.655   2.441  0.5734  0.1916  0.1885
11867TIP3   OH257091   3.451   1.628  13.150 -0.0522 -0.3326 -0.0246
11867TIP3    H157092   3.403   1.547  13.164  1.4128 -1.1723  0.3371
11867TIP3    H257093   3.383   1.696  13.151 -1.3325 -1.5562 -0.6161
11868TIP3   OH257094   1.915   4.234   5.075 -0.3128  0.3614  0.1759
11868TIP3    H157095   1.990   4.218   5.018 -1.5892 -2.3947 -0.9378
11868TIP3    H257096   1.842   4.250   5.014 -1.2033 -0.0701  1.0909
11869TIP3   OH257097   4.612   3.597  17.176  0.1749 -0.2292 -0.5920
11869TIP3    H157098   4.635   3.560  17.091  1.3264 -1.5077  0.2374
11869TIP3    H257099   4.645   3.687  17.174  0.9913 -0.5383 -1.1697
11870TIP3   OH257100   5.269   2.297  12.828  0.5693  0.0629  0.6522
11870TIP3    H157101   5.337   2.283  12.762  0.3801  0.1730  0.4345
11870TIP3    H257102   5.316   2.336  12.902  0.3412  2.7169 -0.4828
11871TIP3   OH257103   1.850   5.460   1.471 -0.6032  0.4107  0.0983
11871TIP3    H157104   1.899   5.534   1.507 -0.4746 -0.0336  0.8446
11871TIP3    H257105   1.830   5.405   1.546 -1.4385  0.1073 -0.3301
11872TIP3   OH257106   5.552   6.031   4.941  0.1924 -0.3051  0.2996
11872TIP3    H157107   5.626   6.086   4.917 -1.1357  1.1321 -0.6876
11872TIP3    H257108   5.558   6.023   5.037  1.7706 -0.4879  0.2059
11873TIP3   OH257109   4.967   1.768   5.485 -0.1662 -0.0593  0.0262
11873TIP3    H157110   4.954   1.747   5.578  0.1028 -1.5985 -0.2544
11873TIP3    H257111   5.061   1.784   5.477 -0.3150  0.9529  0.1655
11874TIP3   OH257112   2.357   2.851  13.850  0.2724  0.1154  0.2173
11874TIP3    H157113   2.285   2.863  13.911 -0.7975  0.1541 -1.0258
11874TIP3    H257114   2.413   2.786  13.892 -1.4379 -1.3215  0.3809
11875TIP3   OH257115   3.419   2.475   5.091 -0.5860 -0.0307  0.3410
11875TIP3    H157116   3.494   2.512   5.044 -1.1517  0.0820 -0.4932
11875TIP3    H257117   3.343   2.520   5.055 -1.2784 -1.8073 -0.5631
11876TIP3   OH257118   4.329   5.576  14.219  0.0642  0.3381  0.4598
11876TIP3    H157119   4.278   5.637  14.273 -1.5384 -0.3170 -0.2325
11876TIP3    H257120   4.363   5.630  14.148 -1.1185  0.5024 -0.0017
11877TIP3   OH257121   6.784   1.813  13.795  0.5886  0.3417 -0.0640
11877TIP3    H157122   6.720   1.822  13.866  1.2859 -0.8905  0.7403
11877TIP3    H257123   6.741   1.756  13.731  0.1937  0.9779 -0.3821
11878TIP3   OH257124   4.742   1.387   0.465  0.0189 -0.0370 -0.5243
11878TIP3    H157125   4.742   1.475   0.428 -1.3788 -0.1324 -0.7954
11878TIP3    H257126   4.802   1.394   0.540  1.9953  0.4348 -2.0631
11879TIP3   OH257127   6.053   4.265   0.666  0.7469 -0.2851 -0.0284
11879TIP3    H157128   5.966   4.245   0.631  0.4029 -1.7722  1.4954
11879TIP3    H257129   6.113   4.242   0.595 -0.0782  0.6205 -1.0513
11880TIP3   OH257130   4.348   2.329   3.670 -0.1616  0.3593 -0.1739
11880TIP3    H157131   4.378   2.411   3.631 -0.2193  0.3578 -0.2223
11880TIP3    H257132   4.375   2.333   3.761 -0.1031  0.4017 -0.1934
11881TIP3   OH257133   1.974   1.167   5.412  0.2686 -0.1083 -0.5167
11881TIP3    H157134   1.980   1.187   5.505  1.8236  0.1943 -0.6558
11881TIP3    H257135   2.053   1.206   5.373 -0.0329 -0.7572 -1.8581
11882TIP3   OH257136   1.188   4.231   1.576 -0.6775 -0.1252 -0.0186
11882TIP3    H157137   1.150   4.153   1.617  1.8250 -2.0434 -1.1304
11882TIP3    H257138   1.159   4.227   1.485 -0.2887  0.0717 -0.1514
11883TIP3   OH257139   4.890   4.219  13.157  0.1208 -0.3723 -0.2704
11883TIP3    H157140   4.901   4.129  13.127 -0.5234 -0.5580  0.0363
11883TIP3    H257141   4.934   4.222  13.242 -0.5326 -0.6134  0.0842
11884TIP3   OH257142   6.143   2.678   4.143  0.3215  0.2812 -0.1246
11884TIP3    H157143   6.229   2.641   4.125  0.5013  0.4528  0.3739
11884TIP3    H257144   6.081   2.619   4.100  0.4952 -1.3826  1.7886
11885TIP3   OH257145   2.244   1.992  11.031  0.0479  0.3408 -0.7504
11885TIP3    H157146   2.275   1.910  10.993  0.3659  0.7144 -1.3042
11885TIP3    H257147   2.156   1.972  11.062  0.0865 -0.1808 -0.9662
11886TIP3   OH257148   3.429   1.020  16.893 -0.4741  0.4893  0.2066
11886TIP3    H157149   3.416   1.102  16.941 -0.4017  0.0646  0.9697
11886TIP3    H257150   3.350   0.970  16.911 -0.2445  0.1443  0.2591
11887TIP3   OH257151   0.499   4.852  16.223  0.2662 -0.3968  0.4171
11887TIP3    H157152   0.440   4.874  16.295  1.0450 -1.1498  1.3015
11887TIP3    H257153   0.544   4.935  16.203 -1.2257  0.2422 -0.4292
11888TIP3   OH257154   2.635   1.953   4.671 -0.6804 -0.0648  0.3798
11888TIP3    H157155   2.718   1.965   4.624 -1.4405 -1.7505 -1.5657
11888TIP3    H257156   2.654   1.889   4.739 -0.2684 -0.0700  0.2599
11889TIP3   OH257157   5.905   5.111   2.413  0.1420  0.4476 -0.3364
11889TIP3    H157158   5.873   5.108   2.323 -2.4758 -1.4029  0.5299
11889TIP3    H257159   5.826   5.103   2.467  1.8650 -3.1567  2.0566
11890TIP3   OH257160   2.166   6.756   1.076 -0.1200  0.0729  0.5416
11890TIP3    H157161   2.193   6.781   1.164 -0.4958 -0.2888  0.7610
11890TIP3    H257162   2.104   6.684   1.088 -3.2805  2.4954  0.2650
11891TIP3   OH257163   1.071   2.926   5.683  0.1982  0.1158  0.0190
11891TIP3    H157164   1.057   2.832   5.666  2.2037  0.0316 -1.5506
11891TIP3    H257165   1.146   2.949   5.629  0.8134  2.2716  1.6527
11892TIP3   OH257166   3.271   6.589  14.536  0.4661  0.2319  0.3812
11892TIP3    H157167   3.201   6.602  14.599  1.7456  2.1041  1.5046
11892TIP3    H257168   3.229   6.541  14.464 -2.1889  2.0015  0.5945
11893TIP3   OH257169   0.778   5.748  14.400 -0.1181 -0.5329  0.2205
11893TIP3    H157170   0.691   5.784  14.416 -1.0024 -1.1278 -2.6546
11893TIP3    H257171   0.836   5.824  14.407 -0.7445 -0.1627  2.4017
11894TIP3   OH257172   1.629   5.146   4.431  0.1221  0.4701 -0.0794
11894TIP3    H157173   1.578   5.226   4.419 -0.5614 -0.2469 -2.5055
11894TIP3    H257174   1.570   5.076   4.402  0.6518 -0.9793  2.0949
11895TIP3   OH257175   4.953   4.441  14.034  0.4354  0.7545  0.4417
11895TIP3    H157176   4.955   4.459  13.940  3.2333 -2.2608 -0.2586
11895TIP3    H257177   5.014   4.505  14.072 -0.5610  1.8595  0.2530
11896TIP3   OH257178   4.530   4.527   4.868 -0.4315 -0.0117  0.1026
11896TIP3    H157179   4.552   4.501   4.778  0.2800 -0.9386  0.5217
11896TIP3    H257180   4.445   4.486   4.884 -0.4937  0.0344 -0.1038
11897TIP3   OH257181   3.487   4.887  16.814  0.2481  0.0568  0.2090
11897TIP3    H157182   3.516   4.833  16.887  1.2139  0.3185  0.0297
11897TIP3    H257183   3.558   4.883  16.751  1.3000  3.1032  1.0249
11898TIP3   OH257184   1.673   5.249   3.208 -0.5773 -0.5629  0.4836
11898TIP3    H157185   1.688   5.190   3.282  0.7222 -0.5261  0.2699
11898TIP3    H257186   1.652   5.190   3.135 -0.7770 -0.6639  0.6206
11899TIP3   OH257187   0.769   3.554   3.742  0.0826 -0.3805 -0.8331
11899TIP3    H157188   0.818   3.476   3.715 -0.3343 -0.9181 -0.0841
11899TIP3    H257189   0.705   3.521   3.806 -0.2204  0.5502 -0.6410
11900TIP3   OH257190   2.956   4.994  11.239  0.1518 -0.4808 -0.7324
11900TIP3    H157191   3.047   5.013  11.262  0.2811 -1.0193 -0.8000
11900TIP3    H257192   2.919   5.080  11.220  0.6315 -0.2497 -0.6581
11901TIP3   OH257193   6.356   4.369  11.443 -0.2819 -0.8690 -0.1799
11901TIP3    H157194   6.285   4.387  11.381  0.6975 -1.1821 -1.4333
11901TIP3    H257195   6.379   4.455  11.479  0.5547 -0.3514 -1.8650
11902TIP3   OH257196   4.669   5.046   1.220 -0.0014  0.0402  0.5554
11902TIP3    H157197   4.656   5.061   1.126  0.0111 -1.3923  0.3005
11902TIP3    H257198   4.582   5.027   1.253  0.1332 -0.4611  0.6306
11903TIP3   OH257199   5.819   2.253  16.605 -0.4418  0.2217 -0.2288
11903TIP3    H157200   5.813   2.348  16.617 -0.5331  0.3382 -1.1176
11903TIP3    H257201   5.728   2.224  16.596 -0.4326  0.0006  0.3346
11904TIP3   OH257202   5.984   0.342   3.859  0.0656  0.0159 -0.1811
11904TIP3    H157203   5.904   0.394   3.850  0.2809  0.3532 -0.1389
11904TIP3    H257204   6.005   0.345   3.952 -0.2264 -0.6056 -0.0903
11905TIP3   OH257205   6.811   2.314   1.987  0.2464  0.4850  0.3610
11905TIP3    H157206   6.810   2.366   1.906  2.2289  2.3845  1.4604
11905TIP3    H257207   6.830   2.378   2.056 -1.4976 -1.0546  2.4009
11906TIP3   OH257208   1.891   1.884  13.474 -0.0691  0.0086  0.2129
11906TIP3    H157209   1.906   1.907  13.566 -0.8881 -0.0148  0.3586
11906TIP3    H257210   1.940   1.949  13.425  1.2894 -0.6248  0.6667
11907TIP3   OH257211   6.337   1.543  17.100 -0.8983  0.0817 -0.1370
11907TIP3    H157212   6.250   1.563  17.065 -0.2313  0.3705 -1.7263
11907TIP3    H257213   6.382   1.499  17.028  0.8349  1.4570  0.0360
11908TIP3   OH257214   3.965   0.131  12.565  0.1389 -0.0442 -0.0047
11908TIP3    H157215   4.050   0.087  12.559 -0.4582 -1.3978  1.0541
11908TIP3    H257216   3.943   0.129  12.658 -0.7277  0.9586 -0.1720
11909TIP3   OH257217   3.864   6.765  15.702  0.1776  0.3033  0.7433
11909TIP3    H157218   3.918   6.744  15.626  0.2105  0.0041  0.8462
11909TIP3    H257219   3.925   6.801  15.766  0.3204 -0.3470  0.9847
11910TIP3   OH257220   3.806   0.354  15.624 -0.4759 -0.7646 -0.1858
11910TIP3    H157221   3.898   0.345  15.650  0.8616  3.3966 -2.4929
11910TIP3    H257222   3.768   0.414  15.688 -1.9193 -2.8881  1.0881
11911TIP3   OH257223   2.222   1.035   1.878 -0.5779 -0.0054  0.1792
11911TIP3    H157224   2.142   1.062   1.924 -1.1955 -0.6802 -0.4624
11911TIP3    H257225   2.264   0.973   1.937  0.3435  1.5581  1.2339
11912TIP3   OH257226   6.788   1.376   3.714  0.3827 -0.1149  0.7403
11912TIP3    H157227   6.774   1.470   3.723  0.4799 -0.2999  3.9768
11912TIP3    H257228   6.721   1.336   3.769 -0.7405 -2.1156 -1.8649
11913TIP3   OH257229   6.168   3.330  14.638  0.1152 -0.1573  0.4977
11913TIP3    H157230   6.145   3.256  14.582  0.6733 -1.1135  1.4984
11913TIP3    H257231   6.117   3.318  14.718 -2.1312  2.2115 -0.4271
11914TIP3   OH257232   3.617   5.044  13.785  0.2088  0.1130  0.1661
11914TIP3    H157233   3.553   4.973  13.785 -0.3087  0.5755  0.5341
11914TIP3    H257234   3.612   5.081  13.874  0.8308  0.2900  0.1312
11915TIP3   OH257235   0.158   2.975  12.334 -0.3652  0.5567  0.2104
11915TIP3    H157236   0.128   3.049  12.280 -1.0470  1.5005  1.8189
11915TIP3    H257237   0.199   2.916  12.271 -1.9282  1.1633 -1.5104
11916TIP3   OH257238   5.226   3.868  14.402  0.0153  0.0129  0.4406
11916TIP3    H157239   5.293   3.844  14.467  0.9359 -0.0347 -0.5049
11916TIP3    H257240   5.160   3.914  14.453  0.7503  0.0333  1.4160
11917TIP3   OH257241   6.413   0.755   1.016  0.4926 -0.2948  0.9695
11917TIP3    H157242   6.355   0.689   1.055 -0.5078 -0.8670 -1.3493
11917TIP3    H257243   6.440   0.717   0.933  1.4251  1.4683  0.4186
11918TIP3   OH257244   4.769   1.596  14.449 -0.0293  0.2037  0.3008
11918TIP3    H157245   4.745   1.586  14.357  0.3796  1.1652  0.0719
11918TIP3    H257246   4.759   1.690  14.467  0.4492  0.1221  1.0695
11919TIP3   OH257247   3.019   4.915   5.529  0.1172 -0.9005  1.1324
11919TIP3    H157248   2.999   4.926   5.436 -1.7070  0.2209  1.6037
11919TIP3    H257249   2.957   4.848   5.558  1.8333 -2.5253  1.2271
11920TIP3   OH257250   1.912   6.384  14.758  0.2929 -0.3159  0.3081
11920TIP3    H157251   1.944   6.294  14.772 -0.3583 -0.8165 -1.2239
11920TIP3    H257252   1.959   6.414  14.680 -1.8588 -0.5443 -1.1397
11921TIP3   OH257253   1.738   6.416   6.241 -0.3621  0.0110 -0.2743
11921TIP3    H157254   1.649   6.449   6.254 -0.5765 -1.0539  1.2274
11921TIP3    H257255   1.785   6.444   6.320 -0.0165 -1.4428  0.0652
11922TIP3   OH257256   6.654   5.404   1.762  0.0481  0.3774 -0.1864
11922TIP3    H157257   6.646   5.499   1.761 -0.6607  0.4107  2.1222
11922TIP3    H257258   6.566   5.372   1.780  0.5057 -0.6347  0.3944
11923TIP3   OH257259   0.516   5.759   6.383  0.3541 -0.5285 -0.1467
11923TIP3    H157260   0.588   5.769   6.444 -0.4245 -1.8457  1.0335
11923TIP3    H257261   0.508   5.665   6.368 -3.0741 -0.8506  2.3413
11924TIP3   OH257262   2.268   6.723  13.730  0.1529 -0.2411  0.1110
11924TIP3    H157263   2.249   6.810  13.764  0.7650 -0.4106  0.9085
11924TIP3    H257264   2.187   6.696  13.686 -0.7766 -0.1348  1.6869
11925TIP3   OH257265   0.184   1.500  13.054 -0.0183 -0.4637  0.2714
11925TIP3    H157266   0.188   1.435  13.125 -0.9668 -2.0156 -1.0347
11925TIP3    H257267   0.094   1.496  13.023  0.4774 -0.1340 -1.3098
11926TIP3   OH257268   5.664   4.253   1.204 -0.1171 -0.1856  0.2302
11926TIP3    H157269   5.725   4.181   1.222  0.5276  0.5893  1.2394
11926TIP3    H257270   5.628   4.276   1.290  0.1741  1.1268  0.0180
11927TIP3   OH257271   1.264   1.366   4.701  0.4298  0.0391  0.0208
11927TIP3    H157272   1.209   1.422   4.645 -0.8554  1.3678  2.4376
11927TIP3    H257273   1.354   1.394   4.683 -0.0709  1.5502 -0.2641
11928TIP3   OH257274   5.037   0.549  16.677 -0.2993 -0.0612  0.0395
11928TIP3    H157275   5.099   0.503  16.734  0.0089  1.7841  1.2836
11928TIP3    H257276   5.013   0.484  16.611  1.4466 -1.4459  0.6673
11929TIP3   OH257277   6.819   1.272  14.149 -0.5039  0.3277  0.1619
11929TIP3    H157278   6.838   1.220  14.072 -0.5035 -0.3752  0.6332
11929TIP3    H257279   6.899   1.322  14.165 -0.3112  0.0631  0.0336
11930TIP3   OH257280   2.741   5.394  17.124  0.4946  0.3776  0.2515
11930TIP3    H157281   2.670   5.373  17.062  1.1649 -0.8366 -0.1398
11930TIP3    H257282   2.805   5.324  17.111  0.9013  0.3978  1.9537
11931TIP3   OH257283   6.719   1.728  11.761 -0.2724 -0.2435  0.1891
11931TIP3    H157284   6.782   1.683  11.818  0.4699  0.2901 -0.1867
11931TIP3    H257285   6.769   1.802  11.725 -1.6907  1.4456  1.4848
11932TIP3   OH257286   0.528   3.759  15.826 -0.5420  0.0467 -0.1126
11932TIP3    H157287   0.462   3.826  15.807 -0.4598  0.5201  1.1942
11932TIP3    H257288   0.611   3.807  15.825 -0.2377 -0.4643 -1.2977
11933TIP3   OH257289   1.696   1.900  13.204 -0.2574  0.3625  0.2866
11933TIP3    H157290   1.637   1.878  13.277  0.3614  1.4820  1.1573
11933TIP3    H257291   1.778   1.925  13.246  0.4126  0.1633 -0.8530
11934TIP3   OH257292   5.964   1.994  11.105 -0.0860 -0.6417  0.0317
11934TIP3    H157293   6.004   1.972  11.021  0.2629 -1.3202  0.3605
11934TIP3    H257294   6.028   2.052  11.147  0.2722 -1.2040  0.2849
11935TIP3   OH257295   2.406   2.814  10.359 -0.0374  0.1309 -0.4185
11935TIP3    H157296   2.403   2.723  10.388  1.1789 -0.4571 -2.0094
11935TIP3    H257297   2.499   2.838  10.363  0.0782  0.3196 -2.7478
11936TIP3   OH257298   3.679   4.595   4.866  1.0325 -0.2553 -0.3597
11936TIP3    H157299   3.722   4.594   4.952  0.1375 -1.0525  0.1004
11936TIP3    H257300   3.585   4.593   4.886  0.8019  0.2960 -1.3537
11937TIP3   OH257301   6.192   2.146  15.080  0.7493 -0.1867  0.6120
11937TIP3    H157302   6.146   2.227  15.103 -0.5386 -0.1367 -1.8114
11937TIP3    H257303   6.275   2.176  15.043 -0.4314  0.2485 -1.9057
11938TIP3   OH257304   0.902   1.854   2.440  0.2025  0.3083 -0.1075
11938TIP3    H157305   0.839   1.854   2.368  0.5866 -0.6496 -0.4550
11938TIP3    H257306   0.879   1.932   2.491 -0.3709  0.7461 -0.9958
11939TIP3   OH257307   2.757   2.106   0.933  0.1780  0.3626  0.4385
11939TIP3    H157308   2.781   2.196   0.909  2.5204 -0.0987  0.8232
11939TIP3    H257309   2.814   2.085   1.007 -2.9162 -0.1910  2.9164
11940TIP3   OH257310   1.200   0.011  11.054 -0.2956 -0.3699 -0.0725
11940TIP3    H157311   1.183  -0.070  11.101  3.2584 -1.0113  0.4070
11940TIP3    H257312   1.187  -0.012  10.962 -1.4133 -0.8249  0.1826
11941TIP3   OH257313   2.593   0.717  14.216 -0.5848 -0.1903 -0.4730
11941TIP3    H157314   2.599   0.652  14.146 -1.3124  1.5074 -2.1985
11941TIP3    H257315   2.502   0.746  14.215  0.4496  3.7025 -2.5962
11942TIP3   OH257316   4.728   5.962  13.456 -0.1617  0.4285  1.1854
11942TIP3    H157317   4.658   6.025  13.436  0.2149  0.6325  0.4890
11942TIP3    H257318   4.690   5.906  13.524 -1.0745  0.4251  0.7007
11943TIP3   OH257319   5.687   4.607  15.622 -0.2102  0.2592  0.1098
11943TIP3    H157320   5.682   4.667  15.697 -1.4521 -0.9033  1.0081
11943TIP3    H257321   5.702   4.521  15.661 -0.2686 -0.2924 -1.0370
11944TIP3   OH257322   5.664   0.058   3.573 -0.5796 -0.4230 -0.6382
11944TIP3    H157323   5.756   0.040   3.595 -0.3721 -1.0015 -1.8448
11944TIP3    H257324   5.666   0.075   3.478 -1.8564 -1.5239 -0.8989
11945TIP3   OH257325   5.826   0.682  11.902 -0.2314 -0.0660  0.6602
11945TIP3    H157326   5.851   0.765  11.863 -2.3822  1.3826  2.1192
11945TIP3    H257327   5.784   0.633  11.830  0.9596  0.1088 -0.1806
11946TIP3   OH257328   6.132   5.027  14.114 -0.3311  0.0294  0.1692
11946TIP3    H157329   6.089   5.101  14.071  0.8727 -0.1306 -1.3731
11946TIP3    H257330   6.225   5.040  14.098 -0.1039 -2.0100 -0.4949
11947TIP3   OH257331   3.538   0.714  13.078 -0.1933 -0.3748  0.5319
11947TIP3    H157332   3.534   0.618  13.075  0.5128 -0.3928 -1.5909
11947TIP3    H257333   3.573   0.739  12.992  2.8163  1.6126  2.1548
11948TIP3   OH257334   4.361   4.339   5.762  0.0651 -0.4550  0.5257
11948TIP3    H157335   4.268   4.333   5.784 -0.1226  0.0601 -0.0922
11948TIP3    H257336   4.404   4.278   5.822 -0.6639 -0.6531  0.8574
11949TIP3   OH257337   2.741   4.920  16.417 -0.3802 -0.3925  0.2532
11949TIP3    H157338   2.709   5.004  16.449 -0.7475 -0.9095  1.2851
11949TIP3    H257339   2.830   4.939  16.386 -0.9751  0.6674 -0.9379
11950TIP3   OH257340   5.420   5.523   2.155 -0.2767 -0.1733 -0.2870
11950TIP3    H157341   5.491   5.462   2.172 -0.2640 -0.0914 -0.0452
11950TIP3    H257342   5.370   5.482   2.085 -0.2757 -0.4691 -0.1179
11951TIP3   OH257343   1.655   1.554   2.781  0.3845 -0.0113 -0.2596
11951TIP3    H157344   1.655   1.475   2.835  1.2805  0.6426  0.7066
11951TIP3    H257345   1.727   1.541   2.719  1.9874  0.9811  1.3261
11952TIP3   OH257346   3.587   2.204   2.895  0.2358 -0.4291  0.4348
11952TIP3    H157347   3.651   2.149   2.850  0.2111  0.1802 -0.3830
11952TIP3    H257348   3.502   2.169   2.869  0.2138  0.1998 -0.3817
11953TIP3   OH257349   6.501   5.253  13.331 -0.0751 -1.2143  0.1005
11953TIP3    H157350   6.539   5.230  13.247 -0.3846  2.1421 -1.1217
11953TIP3    H257351   6.412   5.219  13.327 -0.8197  0.7241 -1.9703
11954TIP3   OH257352   2.107   3.277   2.002  0.4804 -0.0141  0.2641
11954TIP3    H157353   2.040   3.311   2.061 -0.1578 -0.4326 -0.2185
11954TIP3    H257354   2.082   3.309   1.915  1.6095  0.9031  0.2363
11955TIP3   OH257355   0.425   4.589  13.283 -0.2866 -0.0310  0.6241
11955TIP3    H157356   0.349   4.538  13.310 -2.0265  1.6434 -0.8191
11955TIP3    H257357   0.468   4.534  13.217 -2.1993  0.2831 -0.9988
11956TIP3   OH257358   6.436   4.752   3.988  0.3372 -0.1890  0.1449
11956TIP3    H157359   6.480   4.771   4.071  0.2861  2.3280 -0.3282
11956TIP3    H257360   6.344   4.774   4.004  0.5705  1.8251 -0.9416
11957TIP3   OH257361   5.117   2.096   1.096 -0.5736  0.5314  0.3832
11957TIP3    H157362   5.034   2.141   1.104 -1.7128 -1.5879  1.3577
11957TIP3    H257363   5.102   2.028   1.030  0.1465 -0.3181  1.0575
11958TIP3   OH257364   0.792   3.034   1.813 -0.3163 -0.0879 -0.1245
11958TIP3    H157365   0.739   2.954   1.816 -1.6460  0.7904  0.5889
11958TIP3    H257366   0.861   3.018   1.877 -1.0919 -0.3384  0.6762
11959TIP3   OH257367   0.740   5.015   6.223 -0.1247 -0.4921 -0.2774
11959TIP3    H157368   0.654   5.054   6.240 -0.7716 -2.1846  0.6334
11959TIP3    H257369   0.794   5.087   6.191 -1.3190  1.0417  1.0279
11960TIP3   OH257370   6.264   1.885  14.492  0.2341  0.3355 -0.3023
11960TIP3    H157371   6.207   1.811  14.471 -0.8446  0.9399  0.3845
11960TIP3    H257372   6.335   1.879  14.428  0.4735 -1.5984  0.0679
11961TIP3   OH257373   3.277   5.214   1.754  0.1588  0.8094  0.2739
11961TIP3    H157374   3.273   5.177   1.843  0.7500  0.9010  0.3438
11961TIP3    H257375   3.192   5.192   1.715  0.6412 -1.0381  0.1457
11962TIP3   OH257376   3.522   4.450   5.234  0.1096 -0.4615 -0.1788
11962TIP3    H157377   3.536   4.401   5.316 -0.4473  0.4990  0.5067
11962TIP3    H257378   3.444   4.411   5.196 -0.0479 -0.4413  0.1171
11963TIP3   OH257379   1.854   6.304   3.310 -0.5283  0.2210 -0.6323
11963TIP3    H157380   1.900   6.220   3.311 -0.9351 -0.0315  1.4035
11963TIP3    H257381   1.761   6.281   3.308 -0.6300  0.6701 -1.5490
11964TIP3   OH257382   3.755   5.737   4.253  0.2777  0.4368  0.3438
11964TIP3    H157383   3.790   5.715   4.339 -2.0978 -0.3976  1.1602
11964TIP3    H257384   3.664   5.709   4.256 -0.2327  1.6166 -2.0035
11965TIP3   OH257385   0.401   5.580  11.726 -0.4302 -0.5922 -0.4148
11965TIP3    H157386   0.392   5.485  11.727 -0.6378 -0.5782 -0.9322
11965TIP3    H257387   0.355   5.609  11.647  1.6023 -0.2545 -1.5526
11966TIP3   OH257388   0.536   3.529  17.054  0.3986 -0.4974  0.5757
11966TIP3    H157389   0.628   3.527  17.080  0.4381  0.1123  0.4986
11966TIP3    H257390   0.491   3.472  17.117  0.6714  0.0162  1.2342
11967TIP3   OH257391   0.782   2.140  13.517  0.0932 -0.3171  0.0231
11967TIP3    H157392   0.830   2.179  13.590  0.8331 -0.6220 -0.2826
11967TIP3    H257393   0.841   2.150  13.442 -1.6413  2.2643 -1.1394
11968TIP3   OH257394   3.007   5.781   3.859  0.3021 -0.4191 -0.1873
11968TIP3    H157395   2.928   5.814   3.901  1.4306  0.7659  1.1080
11968TIP3    H257396   3.037   5.710   3.915  1.0606  0.2514  0.2761
11969TIP3   OH257397   5.471   2.788   0.540 -0.1103 -0.4026  0.1042
11969TIP3    H157398   5.426   2.714   0.580 -4.6345  2.1787  0.5150
11969TIP3    H257399   5.466   2.858   0.606  0.9197  1.2446 -1.4523
11970TIP3   OH257400   5.197   4.224   2.402 -0.1459 -0.0869  0.0762
11970TIP3    H157401   5.209   4.159   2.334 -0.9470 -0.4638  0.2943
11970TIP3    H257402   5.140   4.290   2.363  0.3573  0.3028 -0.0150
11971TIP3   OH257403   1.267   1.260   5.220  0.0957  0.1842  0.5899
11971TIP3    H157404   1.241   1.289   5.132  1.1168 -0.8560 -0.0751
11971TIP3    H257405   1.334   1.323   5.246  1.7681 -1.0536 -0.5432
11972TIP3   OH257406   2.768   3.054  13.913  0.1793  0.1850 -0.2797
11972TIP3    H157407   2.687   3.048  13.963  0.1824 -1.1917 -0.3811
11972TIP3    H257408   2.753   2.998  13.836  1.1166  0.1366 -0.4434
11973TIP3   OH257409   5.200   4.025  15.384  0.4884 -0.3224 -0.1146
11973TIP3    H157410   5.133   3.989  15.326  0.6251 -0.6673 -0.0624
11973TIP3    H257411   5.232   4.103  15.338 -0.7518  0.5067  0.3915
11974TIP3   OH257412   6.324   4.303  15.895 -0.0800 -0.0456 -0.0288
11974TIP3    H157413   6.239   4.343  15.913 -1.0483 -2.3101  0.6648
11974TIP3    H257414   6.387   4.370  15.921 -1.5799  2.2931 -1.9671
11975TIP3   OH257415   2.869   2.333  13.842  0.0140  0.5676  0.0684
11975TIP3    H157416   2.784   2.289  13.848  0.0483 -0.0730 -2.7024
11975TIP3    H257417   2.932   2.263  13.833  1.0089  1.0155  2.7466
11976TIP3   OH257418   1.325   0.028  11.960 -0.1055  0.1684 -0.5342
11976TIP3    H157419   1.367  -0.003  12.040 -1.0223  1.7670  0.6432
11976TIP3    H257420   1.232   0.033  11.983 -0.6268 -0.9759 -2.2770
11977TIP3   OH257421   2.951   5.701   3.378 -0.5846  0.4093  0.3821
11977TIP3    H157422   2.874   5.651   3.353  0.5854 -1.2301 -0.1477
11977TIP3    H257423   3.023   5.658   3.332  0.6027  2.1179  0.5534
11978TIP3   OH257424   3.914   4.751  15.104 -0.6122 -0.1464 -0.4105
11978TIP3    H157425   3.964   4.762  15.184 -0.5176 -0.0589 -0.4808
11978TIP3    H257426   3.978   4.764  15.034 -0.8099  0.3526 -0.5037
11979TIP3   OH257427   3.432   2.998   0.222 -0.2618 -0.9029 -0.3741
11979TIP3    H157428   3.393   2.979   0.137 -0.2317 -1.9442 -0.1790
11979TIP3    H257429   3.486   3.075   0.207 -1.4770 -0.1259 -0.9170
11980TIP3   OH257430   5.408   1.957   1.701 -0.1350 -0.0854  0.3010
11980TIP3    H157431   5.447   2.009   1.772  0.3431  0.5881 -0.4430
11980TIP3    H257432   5.363   1.886   1.746  0.4051  0.1672  1.2723
11981TIP3   OH257433   0.534   6.701  15.943 -0.2206  0.0463  0.0313
11981TIP3    H157434   0.593   6.626  15.947 -1.6438 -1.1272 -0.2916
11981TIP3    H257435   0.462   6.678  16.003 -0.7758  1.0653 -0.2194
11982TIP3   OH257436   1.865   1.391  14.578  0.5695 -0.0605 -0.0138
11982TIP3    H157437   1.825   1.478  14.586 -0.2498 -0.5141  1.2085
11982TIP3    H257438   1.886   1.382  14.485 -0.2510  1.0546 -0.3236
11983TIP3   OH257439   5.488   4.912   0.697  0.8623  0.4100 -0.8447
11983TIP3    H157440   5.562   4.854   0.680  0.5975 -0.3200  0.3525
11983TIP3    H257441   5.420   4.854   0.732  0.3183  1.3139 -0.3580
11984TIP3   OH257442   5.452   5.971   5.866 -0.2999 -0.0156  0.0880
11984TIP3    H157443   5.466   5.880   5.893  0.2106  0.4615  1.5203
11984TIP3    H257444   5.527   5.991   5.809 -1.3735 -1.0227 -1.7951
11985TIP3   OH257445   4.961   0.564  16.277 -0.3365  0.0134 -0.2528
11985TIP3    H157446   4.981   0.619  16.353  2.3281 -0.9854 -0.1144
11985TIP3    H257447   4.982   0.475  16.306 -2.7961 -0.8880 -1.0492
11986TIP3   OH257448   2.248   5.075  14.342  0.6591 -0.0635  0.0601
11986TIP3    H157449   2.196   5.136  14.290  1.8850  0.2325 -0.8523
11986TIP3    H257450   2.213   4.989  14.320  0.2867  0.1619 -0.2359
11987TIP3   OH257451   6.377   5.670  16.482 -1.0553  0.6500  0.0966
11987TIP3    H157452   6.471   5.668  16.466 -1.3384 -0.4204 -1.7238
11987TIP3    H257453   6.355   5.763  16.484 -0.1334  0.9004 -0.6693
11988TIP3   OH257454   2.529   5.504   1.681  0.3610  0.4322 -0.2851
11988TIP3    H157455   2.444   5.537   1.710  0.3215  0.5908 -0.5809
11988TIP3    H257456   2.589   5.524   1.754  0.0937  0.0801  0.0353
11989TIP3   OH257457   1.811   2.476  13.795 -0.1205 -0.0344  0.8855
11989TIP3    H157458   1.754   2.429  13.735  1.5026 -0.4633 -0.3765
11989TIP3    H257459   1.751   2.522  13.854 -1.7414 -1.2691  0.2593
11990TIP3   OH257460   6.334   3.706   1.924 -0.4925 -0.6289  0.2763
11990TIP3    H157461   6.425   3.737   1.931 -1.2680  1.9408  0.2106
11990TIP3    H257462   6.305   3.698   2.014 -0.9636  1.2587  0.3393
11991TIP3   OH257463   5.295   3.699   3.333 -0.2822  0.1361 -0.1431
11991TIP3    H157464   5.267   3.659   3.415 -0.6009  1.2223  0.3040
11991TIP3    H257465   5.253   3.785   3.333  2.4191  1.5698  0.2203
11992TIP3   OH257466   3.025   5.047  14.555  0.0998  0.2057 -0.0709
11992TIP3    H157467   2.940   5.085  14.536  1.0361  1.7177 -1.5609
11992TIP3    H257468   3.024   5.032  14.650 -2.0593 -0.5248 -0.1614
11993TIP3   OH257469   3.975   5.287   0.249  0.7267  0.1582  0.3810
11993TIP3    H157470   4.044   5.240   0.296  1.6049  0.8663 -0.1798
11993TIP3    H257471   3.921   5.217   0.210  0.8783 -0.4015  1.1618
11994TIP3   OH257472   3.088   4.229   5.182  0.3038  0.8626 -0.0118
11994TIP3    H157473   3.144   4.211   5.257  1.8520  1.1394 -1.0398
11994TIP3    H257474   3.006   4.183   5.201  0.5173  1.2056  1.9675
11995TIP3   OH257475   2.823   6.031  14.947 -0.1355  0.5087  0.2265
11995TIP3    H157476   2.889   5.975  14.987 -1.1921 -1.3256 -0.4980
11995TIP3    H257477   2.775   6.067  15.022 -1.8566 -2.5977  0.7984
11996TIP3   OH257478   5.887   1.934  15.047 -0.0807  0.4020 -0.2726
11996TIP3    H157479   5.969   1.978  15.023  0.1715  0.1498  0.1147
11996TIP3    H257480   5.915   1.847  15.075 -0.3659  0.6842  0.9209
11997TIP3   OH257481   6.627   1.485   0.147  0.5229  0.5916  0.0780
11997TIP3    H157482   6.647   1.542   0.073  1.1829 -0.5792 -0.6710
11997TIP3    H257483   6.548   1.524   0.186  2.8212  4.1196  1.7916
11998TIP3   OH257484   4.791   5.352   0.938  0.0695 -0.5682 -0.3401
11998TIP3    H157485   4.819   5.397   1.018 -1.4031  1.3758 -0.8463
11998TIP3    H257486   4.784   5.422   0.873 -1.8966 -1.5898 -1.2964
11999TIP3   OH257487   0.122   6.505   1.144 -0.5949 -0.2727 -0.0049
11999TIP3    H157488   0.099   6.582   1.093  0.8007  0.1196 -0.0620
11999TIP3    H257489   0.124   6.434   1.081 -1.3859 -0.2863 -0.0354
12000TIP3   OH257490   6.424   4.914  14.785 -0.4731 -0.2201  0.3975
12000TIP3    H157491   6.383   4.830  14.766  0.8812 -0.3039 -2.5528
12000TIP3    H257492   6.435   4.956  14.700 -0.9691  2.9435  1.7250
12001TIP3   OH257493   3.845   1.386  13.201 -0.3842  0.1978  0.3130
12001TIP3    H157494   3.933   1.356  13.223 -0.8852 -1.2435  0.4575
12001TIP3    H257495   3.833   1.361  13.109  0.0480  2.1473 -0.3159
12002TIP3   OH257496   3.797   0.431   4.198  0.3689 -0.0975 -0.5635
12002TIP3    H157497   3.847   0.392   4.127  0.5080  0.3737 -0.7333
12002TIP3    H257498   3.846   0.407   4.277  1.4167  1.1362 -0.7973
12003TIP3   OH257499   0.018   0.537   2.222  0.2522  0.2180 -0.8177
12003TIP3    H157500  -0.063   0.562   2.178  0.5566  1.2687 -0.8162
12003TIP3    H257501  -0.001   0.547   2.315  0.3364  0.3341 -0.8120
12004TIP3   OH257502   4.559   2.572   1.379 -0.0480  0.6122  0.4713
12004TIP3    H157503   4.654   2.569   1.380 -0.0260  0.9640 -0.0110
12004TIP3    H257504   4.537   2.586   1.287 -0.5918 -0.2593  0.4609
12005TIP3   OH257505   5.034   1.284   2.207 -0.1000  0.0186  0.3732
12005TIP3    H157506   4.947   1.279   2.246 -0.3554 -0.7648 -0.2595
12005TIP3    H257507   5.093   1.245   2.272 -0.5825 -1.7006 -0.1624
12006TIP3   OH257508   4.932   0.028  12.481 -0.6259 -0.2996 -0.1452
12006TIP3    H157509   4.933  -0.022  12.563 -0.6720  0.6337  0.4427
12006TIP3    H257510   4.871  -0.020  12.424  0.8711 -2.0650 -0.3670
12007TIP3   OH257511   2.175   6.145   1.770  0.1672 -0.6658 -0.0219
12007TIP3    H157512   2.231   6.070   1.789 -0.6121 -1.5300 -0.9990
12007TIP3    H257513   2.171   6.194   1.852 -1.4887 -3.1452  1.5063
12008TIP3   OH257514   6.695   5.617   6.013 -0.0532 -0.1805 -0.1082
12008TIP3    H157515   6.639   5.578   5.946  1.0978 -1.5593 -0.3194
12008TIP3    H257516   6.646   5.608   6.094 -1.4833  1.5365 -0.7141
12009TIP3   OH257517   2.735   5.577   4.791  0.3314 -0.2585 -0.2177
12009TIP3    H157518   2.806   5.627   4.752 -0.6435  1.6773  0.3095
12009TIP3    H257519   2.767   5.553   4.878  0.6478 -0.1114 -0.2925
12010TIP3   OH257520   0.948   2.569   4.009 -0.7155 -0.0639  0.4526
12010TIP3    H157521   0.887   2.501   4.037 -0.6631 -0.2060  0.2253
12010TIP3    H257522   0.920   2.593   3.921  1.2854 -2.2146 -0.8694
12011TIP3   OH257523   6.507   1.662  13.320 -0.7423  0.4490  0.1932
12011TIP3    H157524   6.554   1.608  13.383  1.0751  0.2345 -1.2828
12011TIP3    H257525   6.452   1.601  13.271 -1.5712  0.5121  1.0115
12012TIP3   OH257526   1.906   4.559  16.051 -0.0498 -0.0063  0.4493
12012TIP3    H157527   1.956   4.515  15.982  0.9697  1.2831  0.3474
12012TIP3    H257528   1.915   4.502  16.127  0.0558 -0.6896 -0.0651
12013TIP3   OH257529   1.804   0.489   5.412  0.0421 -0.0312 -0.2101
12013TIP3    H157530   1.762   0.419   5.362 -2.0137  1.7093 -1.0705
12013TIP3    H257531   1.780   0.569   5.366  2.4646  1.2848  0.6403
12014TIP3   OH257532   1.906   3.041   3.308  0.1063 -0.0257 -0.0586
12014TIP3    H157533   1.882   3.074   3.394 -0.3349 -0.1122 -0.1463
12014TIP3    H257534   1.871   3.105   3.246 -0.9100 -0.7348 -0.2374
12015TIP3   OH257535   3.156   1.595  13.122 -0.7512  0.2049  0.2095
12015TIP3    H157536   3.156   1.562  13.212 -3.3977 -1.5458 -0.3221
12015TIP3    H257537   3.089   1.664  13.122 -0.8516  0.1137 -0.4297
12016TIP3   OH257538   5.386   6.318   1.841 -0.2533 -0.4808  0.2332
12016TIP3    H157539   5.378   6.270   1.923 -0.0658  0.3457  0.7555
12016TIP3    H257540   5.462   6.375   1.854 -1.3632  1.0753  0.2584
12017TIP3   OH257541   5.931   4.848   1.745  0.2943  0.6236 -0.0230
12017TIP3    H157542   5.913   4.840   1.652  0.2134 -1.1341  0.1048
12017TIP3    H257543   6.010   4.902   1.750  1.8548 -1.3681 -1.3060
12018TIP3   OH257544   4.344   0.348   1.799 -0.5333  0.2386  0.2297
12018TIP3    H157545   4.280   0.349   1.870 -0.6337 -1.6959  0.2045
12018TIP3    H257546   4.391   0.431   1.808  0.9489 -0.8149  3.9333
12019TIP3   OH257547   3.163   4.189  11.714  0.7534 -0.1884 -0.1955
12019TIP3    H157548   3.199   4.104  11.687 -0.0943 -1.1803  1.5506
12019TIP3    H257549   3.069   4.180  11.698  0.6552  0.3950  0.0627
12020TIP3   OH257550   5.292   3.495  11.992 -0.2808 -0.5758 -0.2717
12020TIP3    H157551   5.311   3.561  12.059 -0.8362 -1.2024  0.5408
12020TIP3    H257552   5.340   3.417  12.021  0.0936 -0.6324 -1.0274
12021TIP3   OH257553   2.367   1.805  10.488  0.4976 -0.4560  0.0989
12021TIP3    H157554   2.364   1.864  10.413 -1.2010  1.4483  1.5564
12021TIP3    H257555   2.287   1.754  10.482  0.3813 -0.3357  0.5753
12022TIP3   OH257556   3.552   4.313   3.320  0.3220  0.6463  0.2473
12022TIP3    H157557   3.639   4.275   3.329 -0.4951 -1.6524 -0.7856
12022TIP3    H257558   3.503   4.279   3.395 -0.0896  0.7261  0.0204
12023TIP3   OH257559   3.121   5.270  17.190  0.1095  0.4399  0.2222
12023TIP3    H157560   3.150   5.355  17.222  2.1708 -0.8960  2.2591
12023TIP3    H257561   3.202   5.219  17.181 -1.1582 -1.7567  0.4916
12024TIP3   OH257562   2.619   5.201  15.742  0.1307 -0.5209  0.2990
12024TIP3    H157563   2.706   5.164  15.755 -0.5254 -2.8898 -1.3153
12024TIP3    H257564   2.597   5.241  15.826  2.4943 -0.4136  0.9365
12025TIP3   OH257565   0.615   3.423  10.633 -0.1632 -0.2990  0.1930
12025TIP3    H157566   0.571   3.456  10.711 -1.6756  1.5628 -1.3447
12025TIP3    H257567   0.560   3.452  10.560  2.3628  0.0761 -1.7063
12026TIP3   OH257568   3.199   5.121  11.291  0.3170 -0.0893  0.2422
12026TIP3    H157569   3.287   5.092  11.267  1.3112  1.0236  2.2694
12026TIP3    H257570   3.205   5.216  11.297 -1.3479  0.1096 -0.6648
12027TIP3   OH257571   6.812   0.616  15.612 -0.5820  0.0297  0.3705
12027TIP3    H157572   6.788   0.664  15.691 -0.7545  0.4660  0.0547
12027TIP3    H257573   6.760   0.656  15.542 -0.5013 -0.4153  0.0514
12028TIP3   OH257574   2.349   2.462  11.170 -0.0005 -0.3518 -0.0284
12028TIP3    H157575   2.266   2.502  11.197 -0.3009  0.2824 -1.7488
12028TIP3    H257576   2.356   2.482  11.076  0.7195 -2.8177 -0.5725
12029TIP3   OH257577   5.493   5.529  14.501 -0.9713 -0.2423 -0.2327
12029TIP3    H157578   5.502   5.448  14.552 -0.7973  0.6025  1.1310
12029TIP3    H257579   5.402   5.555  14.514 -0.7326  0.3691  0.2717
12030TIP3   OH257580   3.555   2.072   1.475 -0.1859 -0.0871 -0.5733
12030TIP3    H157581   3.632   2.016   1.468  0.2145  0.5587 -1.4859
12030TIP3    H257582   3.491   2.032   1.416 -1.2668 -1.6920  1.5535
12031TIP3   OH257583   2.769   1.591  13.409 -0.0413  0.4638  0.1152
12031TIP3    H157584   2.739   1.536  13.337 -3.0064  1.7997  0.1740
12031TIP3    H257585   2.779   1.531  13.483  1.3987 -0.6520 -0.9212
12032TIP3   OH257586   1.168   1.529   0.011  0.6661 -0.2970 -0.0792
12032TIP3    H157587   1.116   1.609   0.009  1.1824  0.0312 -0.5774
12032TIP3    H257588   1.237   1.546   0.075  0.6691 -0.4077 -0.0524
12033TIP3   OH257589   2.519   6.480  16.655 -0.4541 -0.0100  0.0799
12033TIP3    H157590   2.580   6.539  16.701  1.4238 -0.5603 -1.5856
12033TIP3    H257591   2.499   6.412  16.719  0.4399  0.3569  0.7695
12034TIP3   OH257592   0.119   1.493  14.794 -0.0755  0.4455 -0.2888
12034TIP3    H157593   0.185   1.561  14.786 -0.3606  0.8040  0.3579
12034TIP3    H257594   0.144   1.444  14.872  1.2845 -1.4862 -1.8239
12035TIP3   OH257595   3.285   6.586  16.982 -0.2094 -0.3581 -0.0266
12035TIP3    H157596   3.279   6.645  17.057 -0.2920 -0.4851  0.0655
12035TIP3    H257597   3.292   6.499  17.020  0.6929 -0.3562 -0.1447
12036TIP3   OH257598   2.850   4.472  16.520 -0.4454  0.1146 -0.2551
12036TIP3    H157599   2.783   4.540  16.528 -0.2427  0.2725  0.1087
12036TIP3    H257600   2.918   4.511  16.465  0.1006  0.5492  0.7057
12037TIP3   OH257601   0.482   0.725   4.892 -0.0488  0.8580 -0.6538
12037TIP3    H157602   0.446   0.681   4.816  0.6835  0.5628 -0.8395
12037TIP3    H257603   0.451   0.673   4.967  1.5973 -0.5890 -0.9174
12038TIP3   OH257604   6.704   1.880   5.105  0.2521  0.4578 -1.3110
12038TIP3    H157605   6.655   1.841   5.178  1.0120  1.1065 -0.4427
12038TIP3    H257606   6.765   1.811   5.078  0.5592  0.5075 -0.7619
12039TIP3   OH257607   1.042   6.697   1.868 -0.5432  0.1144 -0.1050
12039TIP3    H157608   1.098   6.649   1.928 -1.6542 -1.0975  0.0033
12039TIP3    H257609   1.044   6.787   1.901 -0.4807 -0.3631  1.2656
12040TIP3   OH257610   2.622   3.211   1.103 -0.0301  0.3181  0.0776
12040TIP3    H157611   2.654   3.147   1.040 -0.2155  0.7916 -0.5068
12040TIP3    H257612   2.661   3.184   1.186 -0.4237 -0.7867 -0.0754
12041TIP3   OH257613   5.603   5.325   6.028 -0.1335  0.2604 -0.0544
12041TIP3    H157614   5.556   5.246   6.004  0.9744 -0.8921  1.3534
12041TIP3    H257615   5.673   5.332   5.963 -0.7881  0.6094 -0.7226
12042TIP3   OH257616   6.065   2.586   6.778  0.6162  0.2001  0.2481
12042TIP3    H157617   6.056   2.548   6.690 -2.7400 -1.7546  1.2645
12042TIP3    H257618   6.108   2.517   6.829 -1.3526 -0.5130  1.0424
12043TIP3   OH257619   4.123   0.795  13.223 -0.1348 -0.4203 -0.0706
12043TIP3    H157620   4.106   0.711  13.181  0.5077 -1.1561  1.1046
12043TIP3    H257621   4.218   0.798  13.232 -0.2336 -0.0897  0.9497
12044TIP3   OH257622   3.841   5.211  17.156  0.0230  0.3720  0.2901
12044TIP3    H157623   3.881   5.153  17.221 -0.9779  1.7452  2.2501
12044TIP3    H257624   3.887   5.294  17.166 -0.8145  0.8949 -0.0590
12045TIP3   OH257625   6.055   5.035   0.032 -0.0100  0.2643  0.2238
12045TIP3    H157626   6.136   5.029   0.083 -0.1787 -0.6481  0.4002
12045TIP3    H257627   6.002   4.961   0.062 -0.7285  0.5904 -0.2105
12046TIP3   OH257628   0.672   1.045  13.701  0.2436 -0.0111 -0.3919
12046TIP3    H157629   0.654   1.110  13.633  1.3234  0.9566  0.2162
12046TIP3    H257630   0.588   1.001  13.715 -0.0029 -0.2235 -2.3114
12047TIP3   OH257631   1.173   0.772   0.938  0.7124 -0.6986  0.3670
12047TIP3    H157632   1.155   0.683   0.967 -0.4188 -1.3087 -2.0003
12047TIP3    H257633   1.247   0.764   0.878 -0.0782 -0.2341 -0.7050
12048TIP3   OH257634   0.353   3.732   3.442  0.2315 -0.6365  0.2703
12048TIP3    H157635   0.389   3.806   3.393 -1.8772  0.1618 -0.1887
12048TIP3    H257636   0.419   3.714   3.509  0.9405  1.4997  0.2427
12049TIP3   OH257637   3.605   1.586  14.418 -0.2970 -0.3530 -0.2265
12049TIP3    H157638   3.592   1.550  14.505 -0.2912  0.5783  0.1648
12049TIP3    H257639   3.525   1.635  14.399  0.1799  0.4363 -0.2505
12050TIP3   OH257640   2.868   5.836  16.696  0.1914 -0.3721  0.2065
12050TIP3    H157641   2.774   5.854  16.695 -0.0583 -1.2685  2.3960
12050TIP3    H257642   2.900   5.872  16.613 -1.6714  1.9622  0.3998
12051TIP3   OH257643   2.775   4.268  13.486  0.6106  0.3673  0.4254
12051TIP3    H157644   2.710   4.265  13.417  1.3236 -1.0156 -0.2150
12051TIP3    H257645   2.790   4.176  13.510  2.8235  0.5718  0.0510
12052TIP3   OH257646   2.763   3.210  12.988 -0.1494  0.3819 -0.0981
12052TIP3    H157647   2.841   3.161  12.961  0.4585  1.5964 -0.6071
12052TIP3    H257648   2.794   3.268  13.058 -0.4645  1.2178 -0.6363
12053TIP3   OH257649   0.949   0.987   3.909 -0.0067  0.0237  0.2288
12053TIP3    H157650   0.989   1.036   3.980 -0.6923 -0.3607  0.8979
12053TIP3    H257651   1.011   0.994   3.837 -0.0425  1.7756  0.3300
12054TIP3   OH257652   4.505   0.160   4.482 -0.2173  0.5603  0.1204
12054TIP3    H157653   4.515   0.111   4.564  0.7744 -1.6033 -1.1952
12054TIP3    H257654   4.424   0.209   4.493 -0.8969 -0.8426  1.8483
12055TIP3   OH257655   2.411   4.626  12.789 -0.0148 -0.1090  0.2269
12055TIP3    H157656   2.381   4.568  12.718 -2.1879  1.0716  0.0980
12055TIP3    H257657   2.331   4.659  12.828  1.1479  1.8847  1.0775
12056TIP3   OH257658   5.701   1.658   5.193 -0.0790 -0.0424 -0.3969
12056TIP3    H157659   5.646   1.700   5.259 -1.3794 -1.5505 -0.4420
12056TIP3    H257660   5.697   1.565   5.215  0.6021 -0.4199 -1.7773
12057TIP3   OH257661   2.994   3.759  15.541 -0.3027  0.4875 -0.5475
12057TIP3    H157662   2.963   3.844  15.572  0.6581  0.0988  1.6591
12057TIP3    H257663   3.011   3.709  15.620  0.2560 -1.3836 -1.7752
12058TIP3   OH257664   0.918   2.008  14.851  0.0171  0.0511 -0.0517
12058TIP3    H157665   0.956   2.028  14.936 -0.2260  0.7151 -0.0912
12058TIP3    H257666   0.992   1.980  14.797  0.4742  1.3110 -0.1249
12059TIP3   OH257667   2.069   5.098   4.770  0.3079 -0.0763  0.2748
12059TIP3    H157668   2.035   5.100   4.860 -0.7268 -0.0673 -0.1019
12059TIP3    H257669   1.993   5.075   4.717  0.5299  1.5177 -0.7787
12060TIP3   OH257670   5.346   2.041  16.349  0.1514 -0.4679  0.1035
12060TIP3    H157671   5.394   2.090  16.416 -0.8362 -0.1300  0.5898
12060TIP3    H257672   5.280   2.103  16.317  1.4106 -0.1933 -2.1239
12061TIP3   OH257673   5.617   1.188  15.894 -0.2589 -0.1240 -0.2564
12061TIP3    H157674   5.689   1.239  15.857  1.1666 -2.0056 -0.2387
12061TIP3    H257675   5.560   1.169  15.820 -0.3081  0.6812 -0.4307
12062TIP3   OH257676   4.070   5.955  14.836  0.0590 -0.4067  0.4044
12062TIP3    H157677   4.080   5.909  14.919  0.5385 -0.5926  0.2484
12062TIP3    H257678   4.035   6.041  14.860  1.3866  0.0093  0.9170
12063TIP3   OH257679   3.826   0.357  11.538 -0.0517 -0.7461  0.1219
12063TIP3    H157680   3.737   0.370  11.571 -0.5825 -0.9172 -1.1876
12063TIP3    H257681   3.871   0.439  11.559 -0.0609 -1.1884  2.0997
12064TIP3   OH257682   4.511   0.081  17.071 -0.5133 -0.1601  0.2671
12064TIP3    H157683   4.425   0.072  17.032 -0.8007  1.7940  0.3198
12064TIP3    H257684   4.554   0.149  17.019  0.0157  0.7372  1.8012
12065TIP3   OH257685   1.824   5.561  12.289 -0.4284  0.2197  0.1180
12065TIP3    H157686   1.737   5.585  12.320 -0.5723 -0.2082  0.0527
12065TIP3    H257687   1.856   5.640  12.244  0.3914  1.4049  2.6075
12066TIP3   OH257688   4.443   3.172   3.351 -0.1733 -0.1584  0.4242
12066TIP3    H157689   4.355   3.137   3.336 -0.5400  0.8189  0.1847
12066TIP3    H257690   4.490   3.102   3.395 -0.2539 -1.7460 -1.8260
12067TIP3   OH257691   0.063   3.693  13.616  0.4517  0.0865  0.5311
12067TIP3    H157692   0.151   3.721  13.641  0.3460 -0.2740  1.3384
12067TIP3    H257693   0.034   3.638  13.689 -0.8890  1.1190  0.8087
12068TIP3   OH257694   3.906   1.950  15.210  0.4293  0.4590 -0.6006
12068TIP3    H157695   3.938   1.870  15.253 -0.6926  0.1576 -0.3026
12068TIP3    H257696   3.949   2.021  15.256 -1.2930  0.1948  1.5688
12069TIP3   OH257697   4.365   5.268   2.284  0.1043 -0.0591  0.4193
12069TIP3    H157698   4.425   5.196   2.304 -0.2154 -0.0046  1.6627
12069TIP3    H257699   4.419   5.332   2.238  1.0349  0.0112  1.5565
12070TIP3   OH257700   3.234   3.196   3.313 -0.4858  0.3317 -0.3540
12070TIP3    H157701   3.269   3.261   3.374 -0.0953 -0.3295  0.1292
12070TIP3    H257702   3.311   3.156   3.274 -0.7318  0.4347 -0.9565
12071TIP3   OH257703   0.866   3.247   2.914  0.0450 -0.0962 -0.1628
12071TIP3    H157704   0.824   3.329   2.889  1.7122  0.6738 -0.5711
12071TIP3    H257705   0.836   3.231   3.004 -0.6075  0.7387 -0.2163
12072TIP3   OH257706   6.499   2.932  13.378 -0.4577  0.2245 -0.1881
12072TIP3    H157707   6.521   2.957  13.468 -2.3560 -2.2608  1.0977
12072TIP3    H257708   6.537   2.844  13.367  0.2169  0.6939 -2.0643
12073TIP3   OH257709   5.020   0.729  13.914  0.2018  0.5095  0.1744
12073TIP3    H157710   5.040   0.780  13.993  0.0042  0.7320  0.0857
12073TIP3    H257711   4.925   0.738  13.904 -0.1288 -1.3623  1.1717
12074TIP3   OH257712   1.483   2.596   1.329  0.0453 -0.3861 -0.1773
12074TIP3    H157713   1.474   2.601   1.234 -1.3291 -0.2413 -0.0667
12074TIP3    H257714   1.467   2.686   1.359  0.5824 -0.4082  0.1866
12075TIP3   OH257715   0.656   4.789  11.063 -0.2240  0.0540  0.2707
12075TIP3    H157716   0.744   4.813  11.034 -0.0848 -1.1349 -0.3592
12075TIP3    H257717   0.610   4.872  11.073  0.5797  0.6252 -0.6538
12076TIP3   OH257718   2.460   1.653   5.829  0.1296 -0.1900 -0.0652
12076TIP3    H157719   2.375   1.674   5.868  0.2619 -0.2658  0.2630
12076TIP3    H257720   2.442   1.647   5.735  0.0526  1.2181 -0.1586
12077TIP3   OH257721   6.226   1.494   6.168  0.3201  0.2737  0.2135
12077TIP3    H157722   6.203   1.428   6.233 -0.5228 -0.2668 -0.6120
12077TIP3    H257723   6.259   1.568   6.220 -1.5249  0.3703  1.3517
12078TIP3   OH257724   6.071   1.907   6.582 -0.2348  0.0399 -0.7249
12078TIP3    H157725   6.166   1.910   6.572 -0.0506 -1.0025  0.4917
12078TIP3    H257726   6.037   1.961   6.510  1.2653  0.3727 -1.2036
12079TIP3   OH257727   1.639   2.675  10.238  0.3636  0.1484 -0.3013
12079TIP3    H157728   1.729   2.692  10.211  0.2585  0.8049 -0.2606
12079TIP3    H257729   1.587   2.737  10.188 -0.1154 -0.4985 -0.6228
12080TIP3   OH257730   5.736   2.637   1.131 -0.8497  0.4591 -0.3542
12080TIP3    H157731   5.737   2.696   1.056 -1.2413  1.1931  0.2039
12080TIP3    H257732   5.703   2.690   1.204 -1.9624 -0.6505 -0.0045
12081TIP3   OH257733   4.310   1.571  15.124 -0.3099  0.1335 -0.5560
12081TIP3    H157734   4.386   1.561  15.181 -0.0887 -0.8082 -1.0021
12081TIP3    H257735   4.238   1.594  15.183  0.0529 -0.2163  0.0264
12082TIP3   OH257736   6.141   6.593   2.573  0.2953 -0.0830  0.1050
12082TIP3    H157737   6.169   6.667   2.519  1.1064  0.8489  1.6990
12082TIP3    H257738   6.215   6.532   2.572  0.4537  0.1007  0.4272
12083TIP3   OH257739   5.423   0.118  15.745  0.7400  0.2367  0.4500
12083TIP3    H157740   5.337   0.148  15.713  0.5670  1.1820  1.7156
12083TIP3    H257741   5.410   0.025  15.764 -0.0052  0.3643  0.6088
12084TIP3   OH257742   4.839   3.699  11.443  0.1279 -0.2630  0.3046
12084TIP3    H157743   4.918   3.750  11.463 -0.7109  0.9426  0.6691
12084TIP3    H257744   4.818   3.722  11.352  0.8049 -1.4499 -0.1734
12085TIP3   OH257745   3.715   2.159   5.163  0.6894  0.3342  0.0526
12085TIP3    H157746   3.781   2.227   5.161 -0.1713  1.1722 -0.7861
12085TIP3    H257747   3.664   2.172   5.083 -0.3630 -0.4084  0.5734
12086TIP3   OH257748   0.224   3.202   4.153  0.4681 -0.4010 -0.0707
12086TIP3    H157749   0.191   3.153   4.229 -2.7417  0.2575 -0.8861
12086TIP3    H257750   0.181   3.162   4.078  2.2696  0.0455 -1.4045
12087TIP3   OH257751   4.574   0.566  13.335  0.6422 -0.2633  0.1305
12087TIP3    H157752   4.593   0.617  13.256  1.2529  2.0660  1.6747
12087TIP3    H257753   4.660   0.542  13.370  0.4067 -0.4324  0.6016
12088TIP3   OH257754   2.373   1.398   0.835 -0.2155 -0.3195  0.0003
12088TIP3    H157755   2.462   1.434   0.841 -0.2267 -0.5920  3.7343
12088TIP3    H257756   2.385   1.304   0.838 -0.6235 -0.3502  0.9227
12089TIP3   OH257757   4.076   2.665  16.548  0.0051  0.1369  0.5181
12089TIP3    H157758   4.108   2.740  16.598 -0.3931  0.7985 -0.2031
12089TIP3    H257759   4.155   2.614  16.529  0.0998 -0.4148  2.2541
12090TIP3   OH257760   0.117   2.481   1.320 -0.2698 -0.1096 -0.0273
12090TIP3    H157761   0.137   2.572   1.341 -3.5697  1.0379 -1.2362
12090TIP3    H257762   0.053   2.455   1.386  0.1925 -1.3744 -0.0517
12091TIP3   OH257763   4.465   3.208  11.711 -0.8077  0.0560 -0.3458
12091TIP3    H157764   4.490   3.135  11.768  2.4910  1.1594 -0.1360
12091TIP3    H257765   4.467   3.284  11.769 -0.0824  0.8317 -1.3669
12092TIP3   OH257766   4.602   2.764  17.005  0.1797  0.5630 -0.7488
12092TIP3    H157767   4.527   2.746  17.060 -0.5494 -0.7182 -2.0726
12092TIP3    H257768   4.677   2.731  17.054 -0.5354 -1.2388 -0.7847
12093TIP3   OH257769   5.487   2.020  13.637  0.1997  0.4870 -0.0137
12093TIP3    H157770   5.509   2.108  13.668 -0.5422  0.2573  1.2251
12093TIP3    H257771   5.398   2.027  13.605  0.5151  0.4196 -0.9326
12094TIP3   OH257772   5.477   1.773   5.292  0.3850 -0.0716  0.6936
12094TIP3    H157773   5.472   1.820   5.209 -0.8570 -0.1789  0.6834
12094TIP3    H257774   5.429   1.692   5.276 -2.4585  1.1430  2.2851
12095TIP3   OH257775   6.620   4.970  12.047 -0.3326 -0.3274 -0.0797
12095TIP3    H157776   6.610   4.877  12.067 -1.3949  0.0017  1.0415
12095TIP3    H257777   6.648   5.010  12.129 -0.4515  0.4311 -0.3961
12096TIP3   OH257778   5.649   2.423  10.992 -0.1329 -0.3837  0.0725
12096TIP3    H157779   5.691   2.338  10.978  0.9383  0.3838 -1.7338
12096TIP3    H257780   5.667   2.444  11.083 -1.3407 -2.5503  0.8637
12097TIP3   OH257781   0.580   1.345  16.449 -0.1457 -0.4329  0.6372
12097TIP3    H157782   0.530   1.424  16.430  0.5477  0.0390  0.7328
12097TIP3    H257783   0.660   1.354  16.397 -0.2373 -1.2693  0.3375
12098TIP3   OH257784   3.967   3.145  16.138  0.1895  0.5336  0.4625
12098TIP3    H157785   3.933   3.222  16.184 -0.5101 -0.3346  1.4522
12098TIP3    H257786   4.050   3.125  16.181  1.0295  1.4859 -0.6594
12099TIP3   OH257787   3.727   2.382   4.700  0.5265 -0.1064 -0.1481
12099TIP3    H157788   3.700   2.395   4.609 -0.9864 -1.5078  0.0509
12099TIP3    H257789   3.704   2.464   4.743 -0.2070  0.0127 -0.7272
12100TIP3   OH257790   1.301   1.662  12.918  0.4968 -0.2769 -0.5272
12100TIP3    H157791   1.355   1.728  12.962 -0.5894 -0.4120  1.0821
12100TIP3    H257792   1.244   1.712  12.860 -0.2711  0.2160  0.6284
12101TIP3   OH257793   1.602   1.576   1.129  0.4706 -0.3396 -0.5976
12101TIP3    H157794   1.657   1.578   1.050  1.6808 -1.3891  0.1694
12101TIP3    H257795   1.655   1.622   1.195  0.0644 -0.6512 -0.0523
12102TIP3   OH257796   0.509   5.685   0.238 -0.2841 -0.0817  0.2540
12102TIP3    H157797   0.552   5.611   0.282 -1.4867 -0.3381  1.0458
12102TIP3    H257798   0.465   5.732   0.309 -0.2008  0.9400 -0.3593
12103TIP3   OH257799   3.810   6.608  11.567 -0.1683 -0.3738  0.5563
12103TIP3    H157800   3.817   6.687  11.513 -1.8036  0.2913  1.2308
12103TIP3    H257801   3.876   6.549  11.531  1.9164  1.6772  0.7490
12104TIP3   OH257802   2.134   1.493   2.649  0.3757 -0.2431  0.2853
12104TIP3    H157803   2.151   1.440   2.572  0.9169 -0.6204  0.6572
12104TIP3    H257804   2.189   1.455   2.718  0.0794  0.2279  0.7977
12105TIP3   OH257805   3.348   3.945   1.080 -0.2632  0.2211 -0.1609
12105TIP3    H157806   3.289   4.011   1.116  0.9048  0.7549  0.8848
12105TIP3    H257807   3.378   3.982   0.997 -0.4638  0.5124 -0.1029
12106TIP3   OH257808   0.689   0.555  12.680  0.3427 -0.2230  0.1742
12106TIP3    H157809   0.641   0.489  12.629  1.0056 -0.3185 -0.3343
12106TIP3    H257810   0.774   0.561  12.638  1.5754 -1.5516  2.2931
12107TIP3   OH257811   5.514   3.563   4.867  0.1657  0.5660 -0.5436
12107TIP3    H157812   5.592   3.617   4.875  0.9278 -0.4703 -0.7127
12107TIP3    H257813   5.485   3.550   4.957  0.1375  1.0172 -0.4846
12108TIP3   OH257814   5.429   3.996   3.100  0.4421  0.1826 -0.1426
12108TIP3    H157815   5.390   4.046   3.171  0.9010  0.0062  0.2400
12108TIP3    H257816   5.392   4.034   3.020 -0.3045  0.1891  0.1951
12109TIP3   OH257817   1.744   3.762   2.090 -0.1328 -0.1960 -0.8774
12109TIP3    H157818   1.699   3.785   2.009 -3.5765  1.9885  1.3982
12109TIP3    H257819   1.790   3.842   2.116  0.5652 -0.7290 -0.4239
12110TIP3   OH257820   0.463   5.875  13.455 -0.1545  0.7200  0.5131
12110TIP3    H157821   0.528   5.897  13.389  0.2307  0.9036  0.9428
12110TIP3    H257822   0.515   5.850  13.532 -0.5381 -1.9385  0.0106
12111TIP3   OH257823   2.825   4.211  11.760 -0.4336 -0.2603 -0.1749
12111TIP3    H157824   2.868   4.297  11.763 -0.6092 -0.1956  0.7545
12111TIP3    H257825   2.735   4.229  11.788 -1.4053 -0.2297 -2.9352
12112TIP3   OH257826   1.158   4.410   5.080  0.8659  0.1947  0.3496
12112TIP3    H157827   1.080   4.415   5.023  0.1828  3.2334  1.3601
12112TIP3    H257828   1.222   4.361   5.028 -0.4083  1.0212 -2.1842
12113TIP3   OH257829   1.436   5.854   5.243 -0.0812  0.1415  0.1965
12113TIP3    H157830   1.363   5.792   5.234 -0.2571  0.4622 -0.7330
12113TIP3    H257831   1.447   5.866   5.338 -1.0521 -0.1317  0.3503
12114TIP3   OH257832   6.481   1.953  16.887 -0.0437 -0.1263 -0.1997
12114TIP3    H157833   6.504   1.860  16.886 -2.3455 -0.7563 -0.2385
12114TIP3    H257834   6.526   1.988  16.964  0.2096 -1.4613  0.2884
12115TIP3   OH257835   6.536   4.781  13.751  0.5535  0.3400 -0.0455
12115TIP3    H157836   6.580   4.839  13.813 -0.0756  1.6289 -0.7746
12115TIP3    H257837   6.479   4.838  13.699  1.2059 -0.6493 -1.9696
12116TIP3   OH257838   2.630   2.468   2.355  0.2055 -0.2417 -0.3971
12116TIP3    H157839   2.547   2.499   2.390  0.6315 -0.2860  0.7046
12116TIP3    H257840   2.632   2.498   2.265 -0.5068  0.7295 -0.0939
12117TIP3   OH257841   5.379   3.987  12.346  0.4471  0.1394  0.2138
12117TIP3    H157842   5.301   3.973  12.400  1.6450 -0.1707  1.9291
12117TIP3    H257843   5.370   4.077  12.315 -0.2289  0.3583  1.0021
12118TIP3   OH257844   0.822   2.879  11.541  0.0036 -0.2493 -0.7283
12118TIP3    H157845   0.863   2.888  11.626  0.3736  0.0254 -0.9359
12118TIP3    H257846   0.764   2.955  11.534  1.9591  1.2247 -1.8217
12119TIP3   OH257847   1.974   0.649  13.130 -0.2389  0.9439 -0.4481
12119TIP3    H157848   2.059   0.609  13.113 -0.6109 -0.2729  0.4498
12119TIP3    H257849   1.987   0.703  13.208 -0.0221  1.6936 -0.9897
12120TIP3   OH257850   0.617   5.181  14.756  0.1460  0.4273 -0.1507
12120TIP3    H157851   0.703   5.163  14.718 -0.7678 -0.0330 -2.1451
12120TIP3    H257852   0.555   5.134  14.699 -1.3705 -0.0227  1.7641
12121TIP3   OH257853   2.345   0.636  12.092 -0.1744  0.0497  0.1786
12121TIP3    H157854   2.384   0.549  12.083  0.8877  0.2106  2.5319
12121TIP3    H257855   2.281   0.626  12.163 -0.1247  1.1549  0.3954
12122TIP3   OH257856   2.329   4.671  15.037  0.3713  0.0188  0.2485
12122TIP3    H157857   2.283   4.600  14.992  1.9722 -0.8559 -0.0668
12122TIP3    H257858   2.410   4.631  15.070  1.0309  1.5499  0.5934
12123TIP3   OH257859   0.909   0.954  13.398 -0.4373 -0.1837  0.4183
12123TIP3    H157860   0.870   1.040  13.383 -0.5627 -0.4067 -0.5950
12123TIP3    H257861   0.934   0.923  13.311 -1.6974 -1.7883  0.5642
12124TIP3   OH257862   4.506   4.845  12.860 -0.2289  0.2284  0.2815
12124TIP3    H157863   4.581   4.827  12.803 -1.5348 -1.4091 -1.0385
12124TIP3    H257864   4.451   4.905  12.809  0.1756  1.4770  1.2689
12125TIP3   OH257865   5.208   5.440   2.821  0.3403 -0.2855 -0.7180
12125TIP3    H157866   5.123   5.398   2.806  0.7246 -0.5152 -2.5432
12125TIP3    H257867   5.240   5.401   2.902 -1.0048 -0.6683 -0.3418
12126TIP3   OH257868   5.114   2.409   2.152 -0.2664 -0.1897 -0.0940
12126TIP3    H157869   5.087   2.345   2.086  1.1510  0.3881 -1.2795
12126TIP3    H257870   5.168   2.359   2.214  1.2626 -0.0904 -1.2929
12127TIP3   OH257871   4.321   6.682   0.141  0.2474 -0.2757  0.3209
12127TIP3    H157872   4.336   6.773   0.117 -0.8768  0.3957  1.9693
12127TIP3    H257873   4.399   6.657   0.190  0.0231  0.2254  0.9477
12128TIP3   OH257874   2.793   5.299   1.627  0.4527  0.0273  0.0901
12128TIP3    H157875   2.831   5.386   1.615  0.8549 -0.1460  0.0901
12128TIP3    H257876   2.805   5.279   1.720 -2.0705  1.0917  0.7279
12129TIP3   OH257877   0.268   6.429  13.089 -0.3323  0.1197 -0.2163
12129TIP3    H157878   0.286   6.465  13.176  0.4274  2.5642 -1.2929
12129TIP3    H257879   0.355   6.421  13.048 -0.5329 -2.4450 -0.2802
12130TIP3   OH257880   2.455   4.289  17.152  0.1554  0.2568  0.1081
12130TIP3    H157881   2.528   4.227  17.154 -0.1747 -0.2950  4.8153
12130TIP3    H257882   2.380   4.240  17.185 -1.1382  2.0868  0.0438
12131TIP3   OH257883   0.745   6.027  15.154  0.6010  0.0928  0.1783
12131TIP3    H157884   0.772   6.103  15.205  2.1283 -0.1500 -0.2335
12131TIP3    H257885   0.703   5.969  15.218 -0.6392  1.2653  0.4853
12132TIP3   OH257886   1.226   3.615   2.380  0.1482  0.1241 -0.1516
12132TIP3    H157887   1.169   3.674   2.428  0.5319  1.2236 -1.0035
12132TIP3    H257888   1.203   3.628   2.288 -0.1404 -1.4685 -0.3323
12133TIP3   OH257889   1.971   4.688   1.487  0.3814  0.4481 -0.3476
12133TIP3    H157890   1.965   4.727   1.401  0.4998  0.2549 -0.4448
12133TIP3    H257891   1.986   4.761   1.546  2.9354  0.3752 -0.7800
12134TIP3   OH257892   0.374   1.035   2.661  0.5257  0.5356  0.4784
12134TIP3    H157893   0.401   1.089   2.735  1.4484 -2.1302  2.2571
12134TIP3    H257894   0.451   1.032   2.604  0.7494  0.4760  0.7826
12135TIP3   OH257895   6.438   4.472  15.698 -0.5223 -0.0370  0.1329
12135TIP3    H157896   6.502   4.485  15.628 -0.7283 -0.2538 -0.0954
12135TIP3    H257897   6.408   4.382  15.687  0.9608 -0.7903  1.7604
12136TIP3   OH257898   0.673   1.738  16.481  0.3789 -0.1607  0.2621
12136TIP3    H157899   0.714   1.651  16.477  2.8220  0.7815  2.1159
12136TIP3    H257900   0.686   1.774  16.393  3.2277 -0.1552  0.5690
12137TIP3   OH257901   4.057   5.574   2.063 -0.2508  0.3350  0.2919
12137TIP3    H157902   4.077   5.574   1.970 -0.0137  0.0051  0.3417
12137TIP3    H257903   4.063   5.666   2.089  1.9200  0.1909  0.4582
12138TIP3   OH257904   2.584   4.973   3.521  0.1991 -0.4680  0.4660
12138TIP3    H157905   2.591   4.880   3.498 -1.6115 -0.7216  0.7811
12138TIP3    H257906   2.626   5.019   3.448  0.6769 -1.5142  0.0598
12139TIP3   OH257907   6.459   2.880   4.266 -0.2583 -0.7219  0.0697
12139TIP3    H157908   6.513   2.953   4.233  1.6161 -2.1849 -0.2901
12139TIP3    H257909   6.519   2.830   4.322 -2.0248 -1.0001  1.7976
12140TIP3   OH257910   2.279   4.714  17.196 -0.4477 -0.2436 -0.0435
12140TIP3    H157911   2.306   4.642  17.253  1.6727  0.8896  0.4893
12140TIP3    H257912   2.228   4.673  17.127  0.1486 -2.1643  0.6150
12141TIP3   OH257913   1.196   5.532  11.776 -0.4029  0.7706  0.2255
12141TIP3    H157914   1.157   5.460  11.726 -0.6430  1.1306 -0.1084
12141TIP3    H257915   1.223   5.595  11.710  2.2469 -0.1609  0.3008
12142TIP3   OH257916   0.310   6.217  11.705  0.3013 -0.4642 -0.2760
12142TIP3    H157917   0.341   6.298  11.664 -1.5727 -0.1938 -1.2414
12142TIP3    H257918   0.263   6.245  11.783  0.9497 -0.7589  0.2367
12143TIP3   OH257919   3.146   4.769  13.771  0.2385  0.3622 -0.3910
12143TIP3    H157920   3.088   4.711  13.721  2.0771 -1.2134 -0.7739
12143TIP3    H257921   3.133   4.744  13.862  0.3063  0.0308 -0.4728
12144TIP3   OH257922   3.134   1.526  11.494 -0.3954 -0.2823 -0.0514
12144TIP3    H157923   3.181   1.550  11.414 -0.7308  0.7557  0.0491
12144TIP3    H257924   3.066   1.593  11.502 -2.6192 -2.3366 -0.7828
12145TIP3   OH257925   0.038   0.814  12.746 -0.4752  0.3969 -0.5260
12145TIP3    H157926   0.110   0.762  12.710  0.3563 -0.0581  1.6171
12145TIP3    H257927  -0.012   0.751  12.799 -0.7474  1.3117  0.3252
12146TIP3   OH257928   1.511   1.980   3.349 -0.6771 -0.0813 -0.3866
12146TIP3    H157929   1.580   1.914   3.356 -1.1382 -0.4853  0.5444
12146TIP3    H257930   1.553   2.063   3.371 -0.5529 -0.3746  0.5375
12147TIP3   OH257931   0.200   4.320  14.802  0.1321 -0.3858 -0.2213
12147TIP3    H157932   0.128   4.272  14.843 -1.3900  1.5146 -0.5089
12147TIP3    H257933   0.182   4.412  14.822  1.0729  0.3593 -2.4396
12148TIP3   OH257934   3.222   5.994   0.847  0.1714 -0.1408 -0.0772
12148TIP3    H157935   3.130   5.969   0.856  0.2029 -0.2622 -0.0900
12148TIP3    H257936   3.244   5.974   0.756 -0.4530  2.0994 -0.7788
12149TIP3   OH257937   2.680   2.857  11.535  0.7564 -0.0592 -0.3977
12149TIP3    H157938   2.603   2.913  11.531  0.3531 -0.5451  0.2813
12149TIP3    H257939   2.712   2.866  11.625  0.8708 -0.6596 -0.3734
12150TIP3   OH257940   2.797   5.626  10.983  0.6551  0.1140 -0.5962
12150TIP3    H157941   2.784   5.645  11.076  0.8897 -0.0496 -0.5286
12150TIP3    H257942   2.882   5.581  10.979  1.7368  2.0893 -1.1574
12151TIP3   OH257943   5.955   3.906   1.515  0.4098 -0.9399 -1.2586
12151TIP3    H157944   5.971   3.905   1.610  0.5370  1.0047 -1.2221
12151TIP3    H257945   6.010   3.836   1.481  2.4945  0.0684 -0.1767
12152TIP3   OH257946   0.157   6.668   5.919 -0.4108 -0.4865 -0.1463
12152TIP3    H157947   0.201   6.737   5.968 -0.0240 -1.0376  0.2865
12152TIP3    H257948   0.179   6.587   5.965  0.5242 -1.1050 -1.6034
12153TIP3   OH257949   5.290   5.262   3.000  0.0453 -0.0184 -0.1637
12153TIP3    H157950   5.271   5.203   2.927  1.8544  0.1638 -0.8266
12153TIP3    H257951   5.385   5.269   3.001 -0.0483  1.6801  0.8791
12154TIP3   OH257952   5.212   4.080   3.485 -0.3211  0.5866 -0.4362
12154TIP3    H157953   5.244   4.000   3.443  0.7692  1.5673 -1.5166
12154TIP3    H257954   5.139   4.109   3.430 -0.4311  0.5765 -0.2966
12155TIP3   OH257955   4.647   6.146   2.857  0.7615  0.3532  0.3861
12155TIP3    H157956   4.653   6.062   2.901 -1.7991 -0.0474  0.0935
12155TIP3    H257957   4.732   6.156   2.812  1.9929 -0.9314  2.2875
12156TIP3   OH257958   0.474   2.268   6.497 -0.2658  0.7107  0.1892
12156TIP3    H157959   0.545   2.331   6.510  2.2585 -1.7134 -0.8455
12156TIP3    H257960   0.444   2.283   6.407  0.2633  0.4960 -0.0238
12157TIP3   OH257961   2.898   6.563  14.103 -0.0269 -0.5168  0.3727
12157TIP3    H157962   2.893   6.476  14.064  0.2929  0.4893 -2.0948
12157TIP3    H257963   2.821   6.608  14.070  1.2070  0.9503 -0.5941
12158TIP3   OH257964   6.405   6.255  14.037 -0.5293  0.3803  0.2808
12158TIP3    H157965   6.356   6.221  14.112  0.2952 -1.3987  0.0752
12158TIP3    H257966   6.354   6.228  13.961 -1.3968  2.2358  0.1718
12159TIP3   OH257967   5.079   3.501   0.632  0.0128  0.1679  0.0923
12159TIP3    H157968   5.036   3.584   0.651 -0.0555  0.1002  0.2374
12159TIP3    H257969   5.168   3.511   0.666 -0.2605 -0.1352  0.9240
12160TIP3   OH257970   2.030   1.872   5.592 -0.0305  0.5445  0.1160
12160TIP3    H157971   2.065   1.870   5.503 -1.9644  0.8720 -0.7053
12160TIP3    H257972   2.097   1.917   5.643  1.5880 -0.5804 -0.9179
12161TIP3   OH257973   2.607   3.842  15.535  0.1881 -0.2454 -0.3763
12161TIP3    H157974   2.613   3.799  15.621 -1.1297  0.6888  0.2111
12161TIP3    H257975   2.514   3.840  15.514  0.1904  1.6166 -0.6978
12162TIP3   OH257976   5.223   1.315   0.680  0.3347  0.1179  0.2280
12162TIP3    H157977   5.270   1.250   0.732  1.3498 -0.0394 -0.8648
12162TIP3    H257978   5.131   1.297   0.699  0.4982 -2.4492 -0.9278
12163TIP3   OH257979   2.388   5.638  13.607 -0.3381 -0.0410 -0.0979
12163TIP3    H157980   2.314   5.582  13.583 -0.3390 -0.2674  0.4141
12163TIP3    H257981   2.433   5.656  13.525  0.5831 -2.0981 -0.1001
12164TIP3   OH257982   3.051   1.981  12.220 -0.0037 -0.1474  0.1746
12164TIP3    H157983   2.959   1.993  12.244  0.2033  0.8614  0.5003
12164TIP3    H257984   3.099   1.987  12.303  0.4973  0.9683 -0.1828
12165TIP3   OH257985   1.414   3.882  15.109 -0.3866 -0.3439 -0.2132
12165TIP3    H157986   1.477   3.916  15.173 -0.5773  0.2415 -0.3333
12165TIP3    H257987   1.468   3.856  15.034 -0.3045  0.3782 -0.4102
12166TIP3   OH257988   4.706   1.813  12.429 -0.3990  0.1364 -0.4498
12166TIP3    H157989   4.722   1.904  12.404  0.5824  0.2033  0.3519
12166TIP3    H257990   4.778   1.764  12.390 -0.6963 -0.2395 -0.5335
12167TIP3   OH257991   1.150   0.868   3.376  0.0535 -0.6626 -0.1161
12167TIP3    H157992   1.115   0.954   3.354 -1.1440 -1.5665 -1.9927
12167TIP3    H257993   1.073   0.815   3.397  0.7167 -1.4706  0.3565
12168TIP3   OH257994   1.854   2.069   0.321  0.4513  0.0541 -0.1006
12168TIP3    H157995   1.803   2.011   0.264 -1.6827  1.6137  0.1174
12168TIP3    H257996   1.944   2.060   0.289 -0.3523 -0.6472 -2.4064
12169TIP3   OH257997   4.592   5.904  11.653  0.1193 -0.2096 -0.0543
12169TIP3    H157998   4.664   5.962  11.677  1.8737 -2.7665  1.2586
12169TIP3    H257999   4.513   5.953  11.676  1.4820  1.5589  1.1299
12170TIP3   OH258000   0.447   0.825   3.448 -0.2656 -0.0213 -0.2706
12170TIP3    H158001   0.490   0.740   3.449 -1.5076 -0.6864 -0.6006
12170TIP3    H258002   0.418   0.839   3.538  1.5706  0.9569  0.2112
12171TIP3   OH258003   6.324   1.685   6.336 -0.0187 -0.5306  0.3393
12171TIP3    H158004   6.267   1.701   6.411 -1.0718 -1.9814 -0.0960
12171TIP3    H258005   6.413   1.695   6.369 -0.4919  1.3203  1.1556
12172TIP3   OH258006   5.174   0.663  14.548 -0.3809 -0.3130 -0.3901
12172TIP3    H158007   5.252   0.717  14.537  0.6416 -1.3174  1.4799
12172TIP3    H258008   5.117   0.712  14.607 -0.2006 -0.5068 -0.0496
12173TIP3   OH258009   2.838   4.081   4.029 -0.3667 -0.6143 -0.0909
12173TIP3    H158010   2.908   4.142   4.006  0.0704 -1.2587 -0.4992
12173TIP3    H258011   2.866   4.042   4.112 -0.5377 -0.4346  0.0540
12174TIP3   OH258012   2.425   1.797  10.880 -0.2048  0.7552 -0.7080
12174TIP3    H158013   2.504   1.829  10.836 -0.2599  0.8987 -0.7050
12174TIP3    H258014   2.457   1.738  10.948 -0.0791  1.1313 -0.4382
12175TIP3   OH258015   0.125   5.274  16.367  0.6246  0.7543  0.3100
12175TIP3    H158016   0.106   5.312  16.281  0.7506  0.2386  0.0498
12175TIP3    H258017   0.173   5.343  16.413  0.2510  1.1653  0.0978
12176TIP3   OH258018   0.851   1.441   1.966 -0.2267 -0.0773  0.4696
12176TIP3    H158019   0.812   1.409   2.047 -0.0221  1.1016  1.0537
12176TIP3    H258020   0.822   1.532   1.959 -0.2894 -0.1735 -0.8170
12177TIP3   OH258021   4.151   1.395  16.676 -0.3002  0.4340 -0.1816
12177TIP3    H158022   4.086   1.328  16.651 -0.1793 -0.2825  1.2902
12177TIP3    H258023   4.158   1.386  16.771 -0.0609  2.3783  0.0168
12178TIP3   OH258024   2.253   2.954   1.246  0.5784  0.1618  0.7873
12178TIP3    H158025   2.343   2.930   1.267  1.0651  0.9137 -0.3183
12178TIP3    H258026   2.240   3.039   1.289  0.1194 -0.3264  1.6185
12179TIP3   OH258027   5.374   2.454   3.935  0.2810  0.4418 -0.0313
12179TIP3    H158028   5.367   2.484   4.025 -0.4230  1.4061 -0.3927
12179TIP3    H258029   5.430   2.520   3.893  0.1689  0.2901 -0.4206
12180TIP3   OH258030   2.651   4.653  16.568 -0.3325  0.9392 -0.0024
12180TIP3    H158031   2.660   4.746  16.547  0.2338  1.5059  2.4253
12180TIP3    H258032   2.625   4.652  16.660  1.2531 -1.3457  0.4967
12181TIP3   OH258033   0.178   1.365   1.698 -0.8763 -0.1257  0.0589
12181TIP3    H158034   0.083   1.375   1.700 -1.0353 -1.2350 -0.7166
12181TIP3    H258035   0.192   1.270   1.698  0.0085 -0.2150 -4.7320
12182TIP3   OH258036   4.181   2.839  12.982  0.3461 -0.4610 -0.1789
12182TIP3    H158037   4.208   2.750  12.963  0.7018 -0.4539  0.2799
12182TIP3    H258038   4.149   2.836  13.072 -0.3824 -0.2854 -0.4204
12183TIP3   OH258039   2.540   0.239  15.371  0.2355  0.1192  0.6127
12183TIP3    H158040   2.602   0.171  15.398 -0.4694  0.0082  2.0092
12183TIP3    H258041   2.459   0.219  15.418 -0.1815  1.5652  0.5595
12184TIP3   OH258042   2.305   1.924  16.053 -0.3336 -0.0560  0.3640
12184TIP3    H158043   2.368   1.975  16.104  0.1270 -0.8731  0.6275
12184TIP3    H258044   2.357   1.883  15.984 -0.7545  0.0957 -0.0483
12185TIP3   OH258045   2.691   2.435  14.173  0.2137  0.5391 -0.3629
12185TIP3    H158046   2.784   2.459  14.170  0.3092  0.4368  1.1612
12185TIP3    H258047   2.665   2.432  14.081  1.3462  1.9810 -0.7710
12186TIP3   OH258048   3.249   3.105  15.725 -0.5681  0.0254 -0.6563
12186TIP3    H158049   3.240   3.063  15.810 -1.1470  1.4189 -0.0041
12186TIP3    H258050   3.206   3.044  15.664 -2.5302  0.2249  0.4467
12187TIP3   OH258051   1.496   5.885  15.769  0.0251 -0.0012 -0.2170
12187TIP3    H158052   1.492   5.835  15.687  4.0837 -2.1189  0.6286
12187TIP3    H258053   1.575   5.938  15.761 -0.9808  1.8850  1.3371
12188TIP3   OH258054   1.977   1.650   4.242 -0.9876  0.4723  0.8441
12188TIP3    H158055   1.903   1.657   4.182 -0.6515 -0.7760  0.2409
12188TIP3    H258056   1.954   1.578   4.301  0.3870 -1.0271 -0.3609
12189TIP3   OH258057   5.929   4.243   4.428 -0.1940 -0.5057  0.4384
12189TIP3    H158058   5.840   4.261   4.398  0.1191 -3.3031 -2.7333
12189TIP3    H258059   5.922   4.165   4.482  0.2657 -0.2105  0.9445
12190TIP3   OH258060   5.750   3.055  13.709  0.3498 -0.8912  0.4053
12190TIP3    H158061   5.810   3.093  13.645  1.7989 -1.3259  1.4462
12190TIP3    H258062   5.693   2.998  13.657  0.4868 -0.0675 -0.6807
12191TIP3   OH258063   5.293   2.879  16.903  0.2970  0.2693  0.0704
12191TIP3    H158064   5.202   2.902  16.884  0.5223  0.1413 -1.2570
12191TIP3    H258065   5.341   2.961  16.896  0.9774 -0.2446 -3.9059
12192TIP3   OH258066   1.932   1.076   6.362 -0.0948 -0.5388 -0.0478
12192TIP3    H158067   2.021   1.102   6.337  0.2556 -0.9883  0.6864
12192TIP3    H258068   1.881   1.088   6.283  0.4924  0.3139 -0.3223
12193TIP3   OH258069   4.594   1.492   5.130  0.3062 -0.5773 -0.0964
12193TIP3    H158070   4.601   1.406   5.170  0.5963 -0.1888  0.7206
12193TIP3    H258071   4.648   1.549   5.185 -1.3100  0.4916  0.4802
12194TIP3   OH258072   4.360   6.105  12.235  0.0040  0.5578 -0.3123
12194TIP3    H158073   4.341   6.193  12.202 -1.5375  0.1256 -0.6707
12194TIP3    H258074   4.383   6.119  12.327 -0.7698  1.3078 -0.2125
12195TIP3   OH258075   0.015   5.183   2.610 -0.0486  0.6501 -0.0233
12195TIP3    H158076   0.084   5.211   2.670 -1.1834  1.3936  0.9764
12195TIP3    H258077   0.056   5.114   2.557  1.3932  0.9420  0.6620
12196TIP3   OH258078   1.368   6.614   4.955 -0.4605 -0.2038  0.2681
12196TIP3    H158079   1.408   6.605   5.042 -0.9310 -0.2272  0.4815
12196TIP3    H258080   1.304   6.544   4.950  0.3830 -0.9446 -0.5628
12197TIP3   OH258081   0.058   3.495  15.312  0.1306  0.4560  0.7401
12197TIP3    H158082   0.085   3.579  15.275  0.3260  0.1798  0.2492
12197TIP3    H258083  -0.034   3.485  15.285  1.1808 -1.3386 -2.7258
12198TIP3   OH258084   1.861   6.718   3.994 -0.7981  0.1001 -0.0878
12198TIP3    H158085   1.932   6.777   3.971 -0.3787 -0.6539 -0.8021
12198TIP3    H258086   1.880   6.690   4.083  0.2412 -0.6738 -0.5265
12199TIP3   OH258087   1.651   1.874   5.134 -0.0217 -0.4426  0.4039
12199TIP3    H158088   1.564   1.861   5.095  0.3944  1.6650 -1.3872
12199TIP3    H258089   1.708   1.895   5.060  1.3659  1.2245  1.8570
12200TIP3   OH258090   3.765   3.692   4.275  0.0638 -0.7474  0.4658
12200TIP3    H158091   3.723   3.634   4.212 -2.3117  0.0654  1.1845
12200TIP3    H258092   3.775   3.639   4.354 -0.2618 -0.7651  0.4969
12201TIP3   OH258093   3.148   3.534   6.281  0.1673 -0.2553 -0.5438
12201TIP3    H158094   3.081   3.585   6.327  1.3853  1.4141 -0.5648
12201TIP3    H258095   3.219   3.524   6.344  0.5800 -0.6047 -1.0521
12202TIP3   OH258096   1.557   4.850   2.074 -0.6782  0.3097 -0.3329
12202TIP3    H158097   1.492   4.826   2.141  0.1751  0.8103  0.7023
12202TIP3    H258098   1.622   4.781   2.078  0.4279  1.3769  0.8126
12203TIP3   OH258099   4.184   0.360  14.827 -0.1458  0.2183  0.3043
12203TIP3    H158100   4.136   0.411  14.893  0.0030  0.6983  0.0450
12203TIP3    H258101   4.253   0.419  14.797  0.9589 -0.6527  1.0633
12204TIP3   OH258102   6.553   2.918   1.703 -0.3879 -0.4600 -0.3295
12204TIP3    H158103   6.571   2.984   1.637  1.2744  2.9472  3.1188
12204TIP3    H258104   6.480   2.955   1.755 -1.5066 -2.8701 -0.0488
12205TIP3   OH258105   4.312   6.390  16.170  0.3232 -0.5985  0.2552
12205TIP3    H158106   4.218   6.392  16.183  0.3173  4.0151  1.1728
12205TIP3    H258107   4.348   6.365  16.256 -0.0436 -1.3077  0.2041
12206TIP3   OH258108   3.717   6.184  11.462  0.1722  0.2349  0.0713
12206TIP3    H158109   3.717   6.089  11.469 -0.9394  0.0976 -1.3714
12206TIP3    H258110   3.687   6.215  11.547 -1.0898 -0.7785  0.0166
12207TIP3   OH258111   0.891   2.218  16.693  0.0742 -1.0335 -0.1975
12207TIP3    H158112   0.974   2.263  16.679 -0.3334 -0.2143 -0.0570
12207TIP3    H258113   0.824   2.283  16.669 -0.5250 -1.6330 -0.1785
12208TIP3   OH258114   1.205   1.722   4.654  0.0076 -0.1453  0.3350
12208TIP3    H158115   1.280   1.696   4.601 -0.3379 -0.4177 -0.0332
12208TIP3    H258116   1.131   1.676   4.613 -0.2485 -0.4302  1.1099
12209TIP3   OH258117   4.670   2.686   1.857 -0.1067 -0.7230 -0.0593
12209TIP3    H158118   4.634   2.608   1.814  0.3435 -2.8442  3.1031
12209TIP3    H258119   4.764   2.681   1.841 -0.0285 -1.1084  0.4730
12210TIP3   OH258120   0.954   0.865   5.655 -0.4021 -0.3956  0.0096
12210TIP3    H158121   0.901   0.864   5.575 -0.6837 -0.3594  0.1910
12210TIP3    H258122   0.893   0.839   5.724 -0.0670 -0.7845  0.1581
12211TIP3   OH258123   2.282   6.250   5.501 -0.0082 -0.2895  0.2276
12211TIP3    H158124   2.212   6.193   5.469 -0.7330  0.6923 -0.0115
12211TIP3    H258125   2.236   6.325   5.538  0.9210  0.3113  0.1939
12212TIP3   OH258126   2.491   6.300   4.997 -0.5268  0.0119  0.5022
12212TIP3    H158127   2.565   6.305   5.058  1.3833  0.4570 -1.6841
12212TIP3    H258128   2.468   6.392   4.980 -0.1740 -0.0513 -0.3761
12213TIP3   OH258129   0.694   0.886   1.036  0.0617  0.0209  0.0273
12213TIP3    H158130   0.697   0.791   1.025 -0.3778  0.1078 -0.9177
12213TIP3    H258131   0.602   0.905   1.056  0.3481  0.1497  1.3217
12214TIP3   OH258132   0.420   4.617   2.058  0.3835  0.1269 -0.7193
12214TIP3    H158133   0.360   4.684   2.092  1.2391  0.0641  1.0490
12214TIP3    H258134   0.383   4.592   1.974 -1.9145  0.2691  0.1857
12215TIP3   OH258135   0.698   2.609  14.045  0.1039  0.3948  0.1515
12215TIP3    H158136   0.635   2.584  13.978  0.2900 -1.7526  0.7014
12215TIP3    H258137   0.783   2.594  14.006  0.2698  1.3651  0.1040
12216TIP3   OH258138   0.892   1.379   5.090  0.0507 -0.2624  0.1582
12216TIP3    H158139   0.854   1.296   5.061 -2.1843  0.5236  0.6335
12216TIP3    H258140   0.964   1.395   5.029 -0.0885 -2.0506 -0.5416
12217TIP3   OH258141   6.280   4.286   0.421 -0.4643  0.6714 -0.0539
12217TIP3    H158142   6.354   4.225   0.426 -1.5642 -0.7844 -0.7222
12217TIP3    H258143   6.303   4.356   0.481  1.3943  0.1920 -0.1342
12218TIP3   OH258144   0.670   0.803   4.326 -0.3968  0.9114 -0.2764
12218TIP3    H158145   0.727   0.798   4.402 -0.8652 -0.5242  0.0146
12218TIP3    H258146   0.725   0.839   4.257  1.5140 -2.2010 -0.5589
12219TIP3   OH258147   2.575   6.504  11.786  0.0798  0.4340 -0.4071
12219TIP3    H158148   2.557   6.443  11.715 -0.3628 -0.4389  0.4346
12219TIP3    H258149   2.663   6.537  11.767  0.3047 -0.4227 -0.9057
12220TIP3   OH258150   3.338   4.719   4.947 -0.1081 -0.2925 -0.0066
12220TIP3    H158151   3.346   4.789   4.882 -1.5917  0.4032  0.4976
12220TIP3    H258152   3.344   4.638   4.896 -2.1368  0.2312 -1.2100
12221TIP3   OH258153   3.798   6.228  14.654  0.2696 -0.0784  0.2202
12221TIP3    H158154   3.712   6.266  14.637 -0.8306 -2.3789  0.3399
12221TIP3    H258155   3.847   6.299  14.696 -1.8670  1.0252  1.0049
12222TIP3   OH258156   0.662   3.938   1.662  0.2101 -0.6384  1.7691
12222TIP3    H158157   0.728   3.952   1.594  0.0413 -0.7223  1.5851
12222TIP3    H258158   0.580   3.965   1.621  0.4525  2.1004  2.8723
12223TIP3   OH258159   4.448   6.655   3.576 -0.1030  0.4113 -0.6621
12223TIP3    H158160   4.468   6.712   3.502  0.0386  0.0927 -0.8741
12223TIP3    H258161   4.403   6.711   3.639  1.4655  1.1756 -0.1589
12224TIP3   OH258162   3.568   1.746  17.076  0.1498  0.1695  0.0115
12224TIP3    H158163   3.564   1.800  17.155 -0.4287 -1.3340  1.0372
12224TIP3    H258164   3.527   1.664  17.100 -1.1549  0.0875 -2.2328
12225TIP3   OH258165   2.370   2.862   5.082 -0.3474  0.2133  0.0648
12225TIP3    H158166   2.463   2.854   5.103 -0.3005 -0.1847 -0.2806
12225TIP3    H258167   2.343   2.773   5.058 -0.0839  0.8041 -2.8501
12226TIP3   OH258168   0.138   6.705  13.001  0.1047  0.2058  0.0837
12226TIP3    H158169   0.160   6.620  13.040  0.1687  0.8133  1.4181
12226TIP3    H258170   0.044   6.699  12.983  0.3047 -0.5064 -0.7806
12227TIP3   OH258171   4.759   1.016   4.539  0.1817 -0.1693 -0.2721
12227TIP3    H158172   4.827   1.076   4.572  0.0874 -0.5362  0.6106
12227TIP3    H258173   4.720   1.063   4.465  0.6953  0.4916 -0.1381
12228TIP3   OH258174   4.957   1.445   4.885 -0.6073 -0.4279 -0.1427
12228TIP3    H158175   5.031   1.496   4.852  0.1090 -0.0385  1.8936
12228TIP3    H258176   4.961   1.363   4.837  2.7644 -1.4579  1.5659
12229TIP3   OH258177   3.168   2.992   2.852 -0.1219 -0.1288  0.2835
12229TIP3    H158178   3.102   3.021   2.915 -0.6296 -1.2994  0.3027
12229TIP3    H258179   3.123   2.994   2.768  0.2839  0.5486  0.0768
12230TIP3   OH258180   4.006   2.177   0.497 -0.3083  0.5258  0.1849
12230TIP3    H158181   4.040   2.089   0.482  0.7204  0.3745  2.7711
12230TIP3    H258182   4.075   2.235   0.464 -1.7228  0.5217 -3.1283
12231TIP3   OH258183   4.577   6.454   4.891 -0.1647  0.3069 -0.2207
12231TIP3    H158184   4.623   6.514   4.950  0.4443 -0.1121 -0.2619
12231TIP3    H258185   4.494   6.498   4.872  0.6750  1.6251 -1.0538
12232TIP3   OH258186   6.616   1.013  12.380 -0.1566 -0.3531 -0.4421
12232TIP3    H158187   6.649   1.095  12.344 -0.4366 -0.1633 -0.2668
12232TIP3    H258188   6.695   0.963  12.401  0.0088 -0.5459 -1.4872
12233TIP3   OH258189   4.135   3.016   1.764  0.5775 -0.3151  0.0459
12233TIP3    H158190   4.054   2.990   1.808 -0.3336  1.6219 -0.4088
12233TIP3    H258191   4.109   3.086   1.704  2.5056 -0.0389 -0.5362
12234TIP3   OH258192   6.501   5.296  15.519 -1.0521 -0.6350 -0.4014
12234TIP3    H158193   6.568   5.298  15.450 -0.0320  0.3933  0.5791
12234TIP3    H258194   6.418   5.293  15.472 -0.4130  0.7559 -1.6881
12235TIP3   OH258195   1.634   2.885  17.139 -0.3977 -0.0514  0.2138
12235TIP3    H158196   1.664   2.824  17.207  0.4708 -0.0377 -0.1451
12235TIP3    H258197   1.628   2.969  17.183  1.8399  0.3249 -0.0876
12236TIP3   OH258198   4.193   5.776   3.294  0.2873 -0.3523 -0.2708
12236TIP3    H158199   4.223   5.849   3.239 -0.0457  0.8202  1.0605
12236TIP3    H258200   4.232   5.699   3.253  3.9627  0.8914  0.5172
12237TIP3   OH258201   1.058   2.743  16.901 -0.6875 -0.3932 -0.2215
12237TIP3    H158202   1.017   2.829  16.906  1.9677  0.9670  0.3917
12237TIP3    H258203   0.996   2.688  16.853 -1.5219  2.4779 -2.7154
12238TIP3   OH258204   2.173   2.896   0.774  0.2145 -0.0365  0.9025
12238TIP3    H158205   2.147   2.822   0.829 -0.3361 -1.4593 -1.1826
12238TIP3    H258206   2.249   2.863   0.725 -0.4190  0.5504 -0.5062
12239TIP3   OH258207   4.081   5.696  11.988 -0.1537  0.2725  0.0106
12239TIP3    H158208   4.035   5.626  12.035 -0.4441  0.0383 -0.6062
12239TIP3    H258209   4.071   5.773  12.043  0.3974 -0.2358  0.8291
12240TIP3   OH258210   5.743   4.012   3.951 -0.1924  0.0884  0.2562
12240TIP3    H158211   5.720   3.918   3.952  0.8267 -0.1750  1.8305
12240TIP3    H258212   5.837   4.014   3.968  0.1862  1.3489 -1.7179
12241TIP3   OH258213   2.350   3.761  11.028  0.3397  0.5220  1.0747
12241TIP3    H158214   2.385   3.837  11.073  0.3738  0.9211  0.3872
12241TIP3    H258215   2.397   3.759  10.944  1.7775 -1.3638  1.8218
12242TIP3   OH258216   0.875   6.790  14.681 -0.1576  0.0160 -0.2676
12242TIP3    H158217   0.878   6.830  14.595  1.5170  0.3164 -0.1002
12242TIP3    H258218   0.871   6.863  14.742 -0.3287 -0.1712 -0.0502
12243TIP3   OH258219   4.691   6.226   4.982 -0.3878 -0.4177  0.0950
12243TIP3    H158220   4.684   6.220   5.077 -1.5217 -1.3497 -0.0260
12243TIP3    H258221   4.657   6.313   4.961  0.1246 -0.0997  0.5489
12244TIP3   OH258222   5.424   1.753  12.372  0.7579 -0.1017  0.0808
12244TIP3    H158223   5.505   1.761  12.423  0.7025  0.7654  0.0558
12244TIP3    H258224   5.354   1.756  12.437  0.7510 -1.3129  0.1420
12245TIP3   OH258225   3.310   5.178   2.234 -0.0924 -0.1121  0.2577
12245TIP3    H158226   3.378   5.111   2.240  1.3979  1.3692  0.8995
12245TIP3    H258227   3.297   5.206   2.324 -1.3680 -0.1483  0.1027
12246TIP3   OH258228   4.130   0.606  16.352  0.7945  0.2591 -0.2990
12246TIP3    H158229   4.138   0.644  16.264 -4.9840  0.5624 -1.1262
12246TIP3    H258230   4.112   0.681  16.409 -1.8736 -0.2941 -0.2631
12247TIP3   OH258231   3.345   3.897  14.699 -0.4119 -0.0728  0.0690
12247TIP3    H158232   3.299   3.895  14.615  0.6398  0.4857 -0.5362
12247TIP3    H258233   3.437   3.910  14.676 -0.2915  1.7507  1.3660
12248TIP3   OH258234   3.459   3.679   5.881 -0.0233  0.1884  0.0168
12248TIP3    H158235   3.545   3.640   5.892 -0.1567  0.0293  0.5236
12248TIP3    H258236   3.407   3.644   5.953 -0.7665 -0.4326 -0.7931
12249TIP3   OH258237   0.154   4.131  15.339 -0.3755 -0.0372 -0.5413
12249TIP3    H158238   0.222   4.070  15.312 -1.6539 -0.8633 -2.0121
12249TIP3    H258239   0.151   4.196  15.269 -0.2084  0.7715  0.1790
12250TIP3   OH258240   6.168   4.836   1.554 -0.1463  0.0993  0.3689
12250TIP3    H158241   6.079   4.802   1.562  0.3416 -1.3384  0.0583
12250TIP3    H258242   6.163   4.898   1.481 -0.9536  0.2440  0.5377
12251TIP3   OH258243   5.398   2.552   0.691 -0.0106 -0.3558 -0.4301
12251TIP3    H158244   5.402   2.589   0.779  1.5616 -0.2831 -0.4935
12251TIP3    H258245   5.415   2.459   0.702 -1.4737 -0.6516 -0.5150
12252TIP3   OH258246   1.178   5.544   1.806  0.6549 -0.4299 -0.3136
12252TIP3    H158247   1.143   5.502   1.884  0.0908  1.0199  0.2389
12252TIP3    H258248   1.101   5.567   1.754  1.0153 -1.2150 -1.2349
12253TIP3   OH258249   1.677   6.156   2.303  0.7934 -0.5295  0.2680
12253TIP3    H158250   1.667   6.240   2.348  1.6274 -0.4386  0.2974
12253TIP3    H258251   1.761   6.123   2.333  0.9571 -0.8806 -0.5560
12254TIP3   OH258252   5.748   1.296   2.570  0.7585 -0.7149 -0.4461
12254TIP3    H158253   5.754   1.337   2.656  0.2230  0.1162 -0.7944
12254TIP3    H258254   5.698   1.215   2.585 -0.0016 -0.1888 -0.1070
12255TIP3   OH258255   4.349   0.887   4.241 -0.0072  0.0900 -0.2503
12255TIP3    H158256   4.285   0.817   4.259  0.6124 -0.3083  0.4479
12255TIP3    H258257   4.395   0.857   4.163  0.7453 -0.6504  0.4574
12256TIP3   OH258258   3.032   3.747   4.351 -0.4894 -0.4727  0.0366
12256TIP3    H158259   3.065   3.706   4.431  0.2345  0.7287  0.3786
12256TIP3    H258260   3.058   3.687   4.281  1.8902  0.0663  0.3627
12257TIP3   OH258261   2.922   4.909   2.234 -0.2515 -0.2429 -0.3972
12257TIP3    H158262   3.013   4.904   2.264 -0.2733  0.3929 -0.1953
12257TIP3    H258263   2.883   4.826   2.259 -0.4232  0.4574  1.8929
12258TIP3   OH258264   0.911   2.361  13.709  0.7083  0.6501 -0.1619
12258TIP3    H158265   0.954   2.447  13.714  0.7644  0.6296 -0.2974
12258TIP3    H258266   0.879   2.346  13.798 -1.6953  2.0540 -0.6877
12259TIP3   OH258267   6.443   1.277   3.736  0.1261 -0.5175 -0.2897
12259TIP3    H158268   6.500   1.228   3.795  2.1312 -0.4159 -2.0141
12259TIP3    H258269   6.374   1.215   3.712  1.9423 -2.2039 -1.5087
12260TIP3   OH258270   5.543   2.189  14.523  0.3876  0.1749  0.2616
12260TIP3    H158271   5.576   2.101  14.508 -1.5022 -0.5277 -0.0934
12260TIP3    H258272   5.498   2.183  14.608  1.1014  1.0767  0.7193
12261TIP3   OH258273   2.706   5.491   0.732 -0.5526  0.3504  0.1555
12261TIP3    H158274   2.731   5.578   0.701 -0.1636  0.3914  0.5691
12261TIP3    H258275   2.786   5.456   0.772 -0.5775 -0.3830 -0.4199
12262TIP3   OH258276   4.989   3.564   1.764 -0.1727 -0.8872  0.1239
12262TIP3    H158277   5.010   3.505   1.836 -0.5730  0.4684  1.4120
12262TIP3    H258278   4.894   3.576   1.769 -0.0147  0.4868  0.4466
12263TIP3   OH258279   2.777   1.058  10.970  0.7144  0.4844  0.0945
12263TIP3    H158280   2.853   1.042  11.027  0.2908 -1.3586  0.1981
12263TIP3    H258281   2.797   1.009  10.890  0.4147  1.4485 -0.5865
12264TIP3   OH258282   2.803   5.074  14.404  0.3921  0.0171  0.1050
12264TIP3    H158283   2.836   5.017  14.334  0.7935  0.3584  0.0151
12264TIP3    H258284   2.851   5.156  14.394 -2.3940  1.5666 -1.7414
12265TIP3   OH258285   3.522   4.918  17.196  0.9382 -0.0593  0.5782
12265TIP3    H158286   3.584   4.877  17.136  0.6086  0.4039 -0.0925
12265TIP3    H258287   3.525   4.865  17.275  1.4721 -0.6036  0.1909
12266TIP3   OH258288   5.649   5.877   3.789 -0.1899 -0.3867 -0.0656
12266TIP3    H158289   5.611   5.864   3.875 -0.5756 -0.1010 -0.1929
12266TIP3    H258290   5.605   5.954   3.754  0.5064 -0.0418 -0.2125
12267TIP3   OH258291   2.605   2.934   4.121 -0.4695 -0.2202 -0.9071
12267TIP3    H158292   2.584   2.965   4.209 -1.1530  1.1163 -1.5168
12267TIP3    H258293   2.683   2.984   4.096  0.0223 -0.9579 -0.8845
12268TIP3   OH258294   5.364   6.368  15.759  0.3679  0.1945 -0.1947
12268TIP3    H158295   5.364   6.319  15.677 -1.1375  0.7035 -0.5224
12268TIP3    H258296   5.331   6.455  15.735 -0.5626  0.2076  1.0308
12269TIP3   OH258297   3.765   2.113  11.492 -0.4426 -0.0438  0.4757
12269TIP3    H158298   3.761   2.181  11.425 -0.3710  0.1042  0.6222
12269TIP3    H258299   3.801   2.156  11.569  1.5517 -0.7239 -0.0150
12270TIP3   OH258300   0.811   3.880   2.613 -0.3920  0.2042 -0.4325
12270TIP3    H158301   0.819   3.813   2.546  0.3550 -0.5925  0.4278
12270TIP3    H258302   0.719   3.881   2.637 -0.8343  1.0832 -2.0318
12271TIP3   OH258303   4.431   0.044  13.391 -0.2056 -0.2570 -0.4354
12271TIP3    H158304   4.391   0.062  13.476 -0.3522 -0.7947 -0.3837
12271TIP3    H258305   4.416  -0.050  13.377 -1.8525  0.1814 -1.9215
12272TIP3   OH258306   6.035   5.527  15.118  0.4257  0.0050  0.6258
12272TIP3    H158307   6.095   5.466  15.076 -2.5696 -2.5249 -0.4267
12272TIP3    H258308   6.070   5.540  15.206  1.4181 -3.1042  0.8130
12273TIP3   OH258309   3.901   2.690   3.887  0.1124  0.3724  0.0674
12273TIP3    H158310   3.936   2.659   3.804  2.6507  0.2515  1.0848
12273TIP3    H258311   3.900   2.612   3.943  0.9198  0.9368  0.8950
12274TIP3   OH258312   3.825   5.600  13.413 -0.2709  0.1376  0.0413
12274TIP3    H158313   3.745   5.550  13.429  1.2612 -2.0431  1.5271
12274TIP3    H258314   3.855   5.570  13.327 -0.7282  0.5536 -0.2729
12275TIP3   OH258315   2.634   6.621  12.595 -0.1534 -0.6814 -0.2534
12275TIP3    H158316   2.682   6.594  12.517 -1.5609 -0.9275 -1.0626
12275TIP3    H258317   2.570   6.551  12.610 -0.3976 -0.2821  0.6819
12276TIP3   OH258318   3.572   5.957   1.680  0.2139  0.2412 -0.1978
12276TIP3    H158319   3.555   6.034   1.733 -0.4572 -0.9763  1.4385
12276TIP3    H258320   3.667   5.946   1.684  0.1036 -0.3481  1.5760
12277TIP3   OH258321   6.144   2.957  12.815 -0.4552 -0.5440 -0.3937
12277TIP3    H158322   6.209   3.025  12.833  0.4777 -1.1184 -1.4736
12277TIP3    H258323   6.062   2.993  12.849 -0.0099  1.1686 -1.0031
12278TIP3   OH258324   0.454   2.973   5.082  1.1861  0.6860 -0.6150
12278TIP3    H158325   0.533   2.972   5.136  1.0924 -3.0364 -0.3320
12278TIP3    H258326   0.469   2.905   5.016 -1.0572  1.1444 -1.6952
12279TIP3   OH258327   2.395   4.532   1.769 -0.2249  0.1686  0.0239
12279TIP3    H158328   2.402   4.466   1.699  1.9833 -0.5694  0.8469
12279TIP3    H258329   2.337   4.493   1.833  3.1672 -2.4596  1.8411
12280TIP3   OH258330   5.236   0.720  11.480  0.1314  0.4436  0.3791
12280TIP3    H158331   5.318   0.770  11.490  0.6143 -0.5035  1.2948
12280TIP3    H258332   5.258   0.650  11.420 -0.1142  0.4130  0.3254
12281TIP3   OH258333   6.732   0.251   0.592 -0.8349 -0.1050  0.5602
12281TIP3    H158334   6.801   0.241   0.526  0.0181 -1.3172  1.6037
12281TIP3    H258335   6.694   0.163   0.601 -0.6018 -0.0766  2.0361
12282TIP3   OH258336   0.105   0.625  12.311 -0.1814 -0.1886 -0.5755
12282TIP3    H158337   0.055   0.686  12.365  0.0969  0.6006 -1.1769
12282TIP3    H258338   0.197   0.650  12.325 -0.0931 -0.1496 -1.1978
12283TIP3   OH258339   3.114   6.011   3.977  0.2238  0.6068 -0.2833
12283TIP3    H158340   3.195   6.018   4.028 -1.5406  1.0585  2.6822
12283TIP3    H258341   3.114   5.920   3.946  2.0842  0.7429 -0.7868
12284TIP3   OH258342   4.084   2.019   5.158 -0.4693 -0.4800 -0.8421
12284TIP3    H158343   4.038   1.937   5.174  0.1064 -0.6864 -0.2030
12284TIP3    H258344   4.169   2.007   5.199 -0.7839  0.8558  0.2600
12285TIP3   OH258345   0.282   1.464   2.379 -0.0555 -0.2114  0.2364
12285TIP3    H158346   0.340   1.423   2.315 -0.4062 -2.1880  1.1053
12285TIP3    H258347   0.341   1.511   2.438  0.2256  2.1569 -1.8026
12286TIP3   OH258348   5.489   0.809  11.458 -0.1775 -0.3580 -0.2183
12286TIP3    H158349   5.474   0.903  11.475 -1.6945 -0.6228  0.0893
12286TIP3    H258350   5.582   0.796  11.474  0.0455  1.0868 -0.1987
12287TIP3   OH258351   2.810   2.809  11.036  0.1695 -0.4342  0.5605
12287TIP3    H158352   2.724   2.771  11.058 -1.6068  2.0916 -1.4752
12287TIP3    H258353   2.816   2.887  11.091 -0.0508  0.7974 -1.1071
12288TIP3   OH258354   5.817   5.828   1.484  0.0163 -0.7245 -0.1076
12288TIP3    H158355   5.799   5.744   1.441 -1.7056  0.3149 -1.5602
12288TIP3    H258356   5.798   5.813   1.576 -3.3072 -1.2185 -0.7552
12289TIP3   OH258357   1.614   2.656   4.356 -0.0747  0.2598 -0.4411
12289TIP3    H158358   1.672   2.588   4.323 -1.3611 -0.4850 -1.2491
12289TIP3    H258359   1.669   2.734   4.362  1.3416 -0.7475  0.1622
12290TIP3   OH258360   1.022   4.266   2.408 -0.2328  0.2818  0.5267
12290TIP3    H158361   0.940   4.223   2.432  0.4368 -1.4272 -0.1273
12290TIP3    H258362   0.998   4.327   2.338 -0.9869 -0.0184  0.5140
12291TIP3   OH258363   0.650   2.615   4.300 -0.8281  0.5622 -0.0602
12291TIP3    H158364   0.588   2.668   4.250 -0.1412 -0.5441 -2.2057
12291TIP3    H258365   0.735   2.656   4.285 -0.5636  0.0155 -0.1040
12292TIP3   OH258366   0.750   0.417   2.072 -0.2758  0.3882 -0.5384
12292TIP3    H158367   0.691   0.464   2.130  0.9794  1.0003  0.3058
12292TIP3    H258368   0.694   0.361   2.019 -1.5055  0.2686  0.8540
12293TIP3   OH258369   5.293   3.278   4.384 -0.1044  0.4012 -0.4833
12293TIP3    H158370   5.259   3.239   4.465  0.0175 -2.2056 -1.5727
12293TIP3    H258371   5.225   3.338   4.356 -0.9139  0.0683  0.6733
12294TIP3   OH258372   2.181   3.775   2.377  0.0916 -0.5757 -1.0111
12294TIP3    H158373   2.246   3.725   2.426  0.1754  0.2907 -0.2134
12294TIP3    H258374   2.147   3.713   2.313  0.9084 -1.3597 -0.7106
12295TIP3   OH258375   0.335   2.863  12.080 -0.1958  0.4245  0.1406
12295TIP3    H158376   0.296   2.776  12.090 -2.1192  1.1765 -0.5013
12295TIP3    H258377   0.424   2.853  12.116 -0.1653 -1.9327 -0.4201
12296TIP3   OH258378   2.929   2.756   0.861 -0.8433 -0.5929 -0.1835
12296TIP3    H158379   2.844   2.717   0.843 -1.4726  0.7551 -0.2667
12296TIP3    H258380   2.943   2.817   0.788  1.0968 -2.1600 -1.2170
12297TIP3   OH258381   3.184   0.920  11.480  0.2454  0.4430  0.0091
12297TIP3    H158382   3.127   0.873  11.542  0.2497 -0.8410 -0.9141
12297TIP3    H258383   3.221   0.992  11.531 -1.9679  1.1376  0.7140
12298TIP3   OH258384   1.294   2.461  16.963  0.5586 -0.3320  1.0687
12298TIP3    H158385   1.331   2.548  16.978  0.4625  0.6256 -3.0969
12298TIP3    H258386   1.370   2.405  16.947  0.7558  0.8822 -3.9491
12299TIP3   OH258387   2.512   3.221  13.087  0.2117  0.3169 -0.1237
12299TIP3    H158388   2.587   3.185  13.039  0.6780  0.9151  0.1477
12299TIP3    H258389   2.445   3.235  13.020  1.2389  2.1943 -0.8197
12300TIP3   OH258390   1.494   1.441  10.597 -0.4122  0.6674 -0.1356
12300TIP3    H158391   1.480   1.521  10.647  1.8584  1.8349 -1.2490
12300TIP3    H258392   1.588   1.438  10.581 -0.3019 -2.6410  0.4667
12301TIP3   OH258393   0.019   6.250  10.885 -0.0420  0.0649  0.4478
12301TIP3    H158394   0.091   6.218  10.941 -0.2595 -2.3080 -0.4983
12301TIP3    H258395  -0.013   6.171  10.841 -1.8073  1.4175 -0.8080
12302TIP3   OH258396   1.083   0.898  16.995  0.0417  0.3645  0.3118
12302TIP3    H158397   1.133   0.818  16.981 -1.8697 -0.4655 -2.6217
12302TIP3    H258398   1.003   0.868  17.039  0.7391  1.2322  2.2684
12303TIP3   OH258399   4.580   4.424  12.796  0.1106 -0.0313 -0.2338
12303TIP3    H158400   4.537   4.341  12.816 -0.6116  0.5405  0.6646
12303TIP3    H258401   4.673   4.405  12.801 -0.0465 -0.4414  1.5286
12304TIP3   OH258402   4.776   3.977  14.338 -0.3636 -0.6519  0.6338
12304TIP3    H158403   4.714   3.984  14.266  0.5036 -2.3504 -0.3294
12304TIP3    H258404   4.857   4.014  14.303 -0.1645 -0.7080  1.0314
12305TIP3   OH258405   5.092   2.378  12.183 -0.1704  0.1890  0.6504
12305TIP3    H158406   5.182   2.347  12.187  0.4428  1.8729  0.7984
12305TIP3    H258407   5.081   2.431  12.262 -0.1880  2.7111 -0.9310
12306TIP3   OH258408   1.205   5.198   2.976  0.5296 -0.7462 -0.3374
12306TIP3    H158409   1.292   5.233   2.995  0.8422 -1.5077 -0.3408
12306TIP3    H258410   1.216   5.103   2.980 -0.6097 -0.8511  1.0821
12307TIP3   OH258411   5.967   2.442  16.847 -0.4479 -0.6292 -0.2656
12307TIP3    H158412   5.901   2.434  16.778 -0.7774  0.7770 -0.1325
12307TIP3    H258413   5.955   2.530  16.883 -0.6050 -1.4999  1.9458
12308TIP3   OH258414   3.190   5.635   2.674 -0.1300 -0.0669 -0.0398
12308TIP3    H158415   3.176   5.595   2.760  0.7845  2.2094  1.2582
12308TIP3    H258416   3.102   5.652   2.642 -0.4830 -0.4840  0.6734
12309TIP3   OH258417   4.479   1.220   2.733 -0.2717 -0.5212 -1.2904
12309TIP3    H158418   4.574   1.216   2.720 -0.2930 -0.3858 -1.4841
12309TIP3    H258419   4.468   1.206   2.827 -0.1069 -1.2844 -1.3758
12310TIP3   OH258420   5.437   5.873   5.424  0.3940 -0.4790  0.1291
12310TIP3    H158421   5.431   5.928   5.346 -0.4588 -0.6969  0.0275
12310TIP3    H258422   5.413   5.931   5.496 -2.0646 -1.0390 -0.1411
12311TIP3   OH258423   4.451   1.635  12.594  0.4572  0.1035  0.3530
12311TIP3    H158424   4.360   1.607  12.598 -0.1760  1.9730  0.0131
12311TIP3    H258425   4.457   1.685  12.512  1.5703  0.6988  0.7780
12312TIP3   OH258426   2.433   4.238   4.834  0.0448  0.1084  0.1849
12312TIP3    H158427   2.428   4.315   4.778 -1.8465  1.4840  2.0755
12312TIP3    H258428   2.502   4.260   4.897 -1.7662  1.2143  1.9020
12313TIP3   OH258429   6.033   0.205  14.775 -0.1640 -0.0962 -1.0533
12313TIP3    H158430   6.088   0.165  14.708  3.2438  0.1167  1.3534
12313TIP3    H258431   6.007   0.289  14.738 -0.1297 -0.8074 -2.8172
12314TIP3   OH258432   0.338   6.110   3.427  0.1321 -0.3066  0.0074
12314TIP3    H158433   0.415   6.076   3.473  0.1920  0.3338  0.3982
12314TIP3    H258434   0.372   6.179   3.371 -0.3673  1.3125  1.6026
12315TIP3   OH258435   2.656   1.724   4.848 -0.3668  0.0690  0.3955
12315TIP3    H158436   2.624   1.642   4.886  0.1544 -1.5204 -2.3038
12315TIP3    H258437   2.709   1.763   4.918 -1.7289 -1.1554  2.2291
12316TIP3   OH258438   2.238   3.410   5.228  0.3897  0.2249  0.2510
12316TIP3    H158439   2.152   3.370   5.216  0.9881 -0.9196 -0.4495
12316TIP3    H258440   2.300   3.338   5.213  1.5092  1.3402 -0.7573
12317TIP3   OH258441   3.373   6.237   0.607 -0.6957  0.3206  0.5186
12317TIP3    H158442   3.427   6.316   0.599  0.9030 -0.8204 -0.4302
12317TIP3    H258443   3.302   6.250   0.544 -0.0208  0.6869 -0.1868
12318TIP3   OH258444   2.552   0.529   5.512 -0.7366 -0.1273 -0.1953
12318TIP3    H158445   2.554   0.457   5.450 -0.7513  0.9986 -1.5425
12318TIP3    H258446   2.578   0.606   5.462  0.8298  0.5777  1.5610
12319TIP3   OH258447   0.686   3.819   4.442 -0.0366 -0.3875  0.6040
12319TIP3    H158448   0.780   3.815   4.423 -0.2408  1.2116 -1.0860
12319TIP3    H258449   0.681   3.839   4.535  1.2709 -1.0600  0.8401
12320TIP3   OH258450   3.320   4.057  16.100  0.0212 -0.0105 -0.2054
12320TIP3    H158451   3.327   4.027  16.191 -0.1289 -2.3897 -0.9049
12320TIP3    H258452   3.390   4.121  16.090  0.5863 -0.3489  1.3372
12321TIP3   OH258453   2.079   1.599  15.012 -0.2576 -0.1760  0.0804
12321TIP3    H158454   2.054   1.670  14.953 -3.3596 -0.4038  0.9761
12321TIP3    H258455   2.105   1.527  14.954  2.8499  1.4922 -0.8400
12322TIP3   OH258456   1.814   3.616  11.077  0.3884 -0.0188 -0.0022
12322TIP3    H158457   1.750   3.634  11.146 -3.3206  1.1778 -3.4076
12322TIP3    H258458   1.869   3.694  11.075  0.4248  0.0289  1.3457
12323TIP3   OH258459   2.400   5.454   0.666 -0.0424  0.1999 -0.7011
12323TIP3    H158460   2.480   5.461   0.719  0.2774  1.2858 -1.3083
12323TIP3    H258461   2.384   5.543   0.634 -0.5305 -0.3277 -1.9853
12324TIP3   OH258462   4.872   4.056  14.912 -0.1723 -0.0340  0.4337
12324TIP3    H158463   4.839   4.114  14.843 -1.5518 -1.8694 -0.5339
12324TIP3    H258464   4.967   4.068  14.910 -0.0289 -0.8615 -2.6459
12325TIP3   OH258465   5.278   6.750   0.689  0.4269 -0.0894  0.1503
12325TIP3    H158466   5.201   6.792   0.649 -0.8360 -1.1114  1.4049
12325TIP3    H258467   5.340   6.741   0.617 -1.1850 -0.5383 -1.2536
12326TIP3   OH258468   4.936   0.583  14.227 -0.1208 -0.4319  0.2136
12326TIP3    H158469   5.014   0.636  14.208 -0.6869 -0.1974 -1.6177
12326TIP3    H258470   4.891   0.631  14.297  0.0590  0.8273 -0.4980
12327TIP3   OH258471   4.915   4.034   1.909  0.2966 -0.3512 -0.3847
12327TIP3    H158472   4.988   4.054   1.968 -1.9159  0.6908  2.1929
12327TIP3    H258473   4.862   3.970   1.956 -1.2166 -0.0078 -1.5318
12328TIP3   OH258474   5.939   3.465  16.247  0.0326  0.6227  0.3595
12328TIP3    H158475   5.881   3.467  16.171 -2.0348 -1.7172  1.7023
12328TIP3    H258476   5.884   3.494  16.320  0.3329 -1.8648  1.7159
12329TIP3   OH258477   3.097   4.085   4.943  0.1905  0.2682 -0.4209
12329TIP3    H158478   3.179   4.051   4.909  1.3067  0.7406  1.6015
12329TIP3    H258479   3.124   4.146   5.012 -1.8615  0.1555  0.5476
12330TIP3   OH258480   3.671   6.738   5.523 -0.1607 -0.0709  0.2301
12330TIP3    H158481   3.717   6.727   5.440 -0.2592 -0.9505  0.2736
12330TIP3    H258482   3.589   6.690   5.511 -1.4041  2.0078 -0.0671
12331TIP3   OH258483   3.793   1.919  16.500  0.0460  0.2742 -0.1579
12331TIP3    H158484   3.857   1.871  16.448 -0.5747 -0.8473  0.0539
12331TIP3    H258485   3.751   1.979  16.439  1.2704  1.0209 -0.3000
12332TIP3   OH258486   5.679   4.516  14.553  0.9937 -0.1021  0.3236
12332TIP3    H158487   5.735   4.458  14.502  0.6934 -0.2217  0.1251
12332TIP3    H258488   5.594   4.473  14.552  0.0639  1.5678 -2.0115
12333TIP3   OH258489   5.370   2.293   0.774  0.1524  0.8930  0.2348
12333TIP3    H158490   5.407   2.266   0.858  0.8714  0.3707 -0.2371
12333TIP3    H258491   5.286   2.247   0.769  0.1764  0.8035  0.5945
12334TIP3   OH258492   3.176   1.024  16.644 -0.3801 -0.4047  0.7247
12334TIP3    H158493   3.199   0.960  16.711 -0.9043  0.8412  2.1443
12334TIP3    H258494   3.185   0.977  16.561  2.5093 -1.3471  1.4915
12335TIP3   OH258495   4.195   4.254  15.686  0.6181  0.2908 -0.0589
12335TIP3    H158496   4.117   4.216  15.725  0.2907  0.9375 -0.0713
12335TIP3    H258497   4.164   4.332  15.640  1.1535  0.1004 -0.7497
12336TIP3   OH258498   2.978   4.886   4.319  0.3278  0.4689 -0.0508
12336TIP3    H158499   2.934   4.928   4.393  0.4903  0.7326 -0.1014
12336TIP3    H258500   3.034   4.819   4.359  0.0028  0.2402  0.0239
12337TIP3   OH258501   5.349   4.046   0.083 -0.2765  0.0943 -0.0328
12337TIP3    H158502   5.374   4.137   0.092  0.7647 -0.3009  1.4571
12337TIP3    H258503   5.429   4.000   0.058 -0.0809 -0.7720  1.9536
12338TIP3   OH258504   5.984   3.941  11.328  0.2997  0.3730 -0.6148
12338TIP3    H158505   5.959   4.033  11.322 -0.9424 -0.0020 -1.4645
12338TIP3    H258506   6.023   3.921  11.243  0.6489  0.1261 -0.3988
12339TIP3   OH258507   5.219   2.086  12.572 -0.3141  0.2427 -0.6147
12339TIP3    H158508   5.241   1.993  12.565 -0.3428  0.2811 -1.2533
12339TIP3    H258509   5.197   2.098  12.664 -0.2334 -0.3656 -0.5094
12340TIP3   OH258510   4.658   2.785  15.152 -0.3324  1.4025  0.6941
12340TIP3    H158511   4.621   2.786  15.064  0.9593 -1.7154 -0.0324
12340TIP3    H258512   4.584   2.802  15.210 -2.0037 -0.1353 -0.8770
12341TIP3   OH258513   3.030   3.499  15.360  0.0041  0.4645  0.4125
12341TIP3    H158514   3.040   3.428  15.422  0.9897 -0.6273 -0.9377
12341TIP3    H258515   3.066   3.576  15.405 -0.7547  0.0515  1.7489
12342TIP3   OH258516   5.641   1.416  13.387 -0.3965  0.3436 -0.0244
12342TIP3    H158517   5.565   1.370  13.421 -0.0199 -0.1065  0.2092
12342TIP3    H258518   5.632   1.411  13.292 -1.4318  1.5718 -0.0218
12343TIP3   OH258519   2.174   2.677  14.919  0.4193 -0.6271  0.2070
12343TIP3    H158520   2.123   2.609  14.962  1.5541 -0.1908  2.3715
12343TIP3    H258521   2.165   2.658  14.825 -3.2481 -0.8237  0.4608
12344TIP3   OH258522   6.524   1.283  13.679 -0.4609 -0.0026 -0.3408
12344TIP3    H158523   6.517   1.189  13.695  0.8442  0.0461  0.7450
12344TIP3    H258524   6.527   1.322  13.766 -0.6021  1.0143 -0.7740
12345TIP3   OH258525   2.765   3.614  11.440 -0.0687  0.4124 -0.1917
12345TIP3    H158526   2.785   3.692  11.389 -1.3052 -0.0777 -1.4893
12345TIP3    H258527   2.670   3.614  11.448 -0.0719 -0.8273 -0.0134
12346TIP3   OH258528   5.001   3.744  12.293  0.5009  0.1233 -0.0013
12346TIP3    H158529   5.089   3.773  12.270  1.0177  0.6673  2.3246
12346TIP3    H258530   4.944   3.815  12.265  1.2820  1.5279  1.7342
12347TIP3   OH258531   4.244   3.967   4.501 -1.0190  0.2534  0.0891
12347TIP3    H158532   4.232   3.886   4.549 -0.1459  0.0744  0.0211
12347TIP3    H258533   4.317   4.011   4.545  0.9043 -0.6518 -1.9633
12348TIP3   OH258534   5.067   6.428  16.272  0.8605 -0.2171 -0.0115
12348TIP3    H158535   5.091   6.377  16.195  0.3219 -0.1543 -0.2290
12348TIP3    H258536   4.985   6.388  16.302  1.8775 -1.2939  1.5048
12349TIP3   OH258537   2.910   6.426   6.670  0.3552  0.7493  0.1140
12349TIP3    H158538   2.985   6.484   6.656  0.6389  0.4547  0.4186
12349TIP3    H258539   2.834   6.478   6.642  0.6301  1.1874  0.1757
12350TIP3   OH258540   1.140   5.110  12.621  0.2923 -0.0724  0.2478
12350TIP3    H158541   1.218   5.081  12.574 -1.2150 -1.9181 -1.3169
12350TIP3    H258542   1.145   5.066  12.706  0.5405 -0.8994 -0.1812
12351TIP3   OH258543   2.927   0.823  13.154  0.6497  0.9949 -0.0048
12351TIP3    H158544   2.937   0.728  13.143  2.4123  1.1219  0.1713
12351TIP3    H258545   2.850   0.845  13.101 -0.3547 -0.6452  0.6961
12352TIP3   OH258546   0.106   5.768  16.304 -0.0877 -0.0620  0.0951
12352TIP3    H158547   0.067   5.740  16.221  0.9142  0.1876 -0.4853
12352TIP3    H258548   0.111   5.688  16.356 -1.9476  0.0143  0.4554
12353TIP3   OH258549   3.036   0.600   2.011  0.5913 -0.4055 -0.0289
12353TIP3    H158550   3.043   0.537   2.082  1.5803  0.9529  1.1262
12353TIP3    H258551   2.967   0.565   1.954 -0.4306 -1.3721  1.7472
12354TIP3   OH258552   1.581   6.296   2.063  0.2359 -0.6994 -0.3516
12354TIP3    H158553   1.626   6.379   2.047  1.2356 -1.5819 -2.4092
12354TIP3    H258554   1.636   6.250   2.127  0.0539 -0.1131  0.2447
12355TIP3   OH258555   5.815   3.226  14.265  0.5385 -0.3151 -0.8377
12355TIP3    H158556   5.802   3.251  14.174 -3.6152  0.4420 -0.2189
12355TIP3    H258557   5.830   3.309  14.311 -0.0561 -0.3850 -0.5063
12356TIP3   OH258558   2.920   5.933  10.830  0.1927 -0.8982  0.5784
12356TIP3    H158559   2.985   5.870  10.861  0.6743 -0.2624  0.8866
12356TIP3    H258560   2.971   6.006  10.796 -0.3547 -0.3238  0.9577
12357TIP3   OH258561   5.931   6.730   0.128 -0.1390  0.8368  0.1975
12357TIP3    H158562   6.006   6.770   0.085 -0.8660  1.5472 -0.4476
12357TIP3    H258563   5.964   6.647   0.163  0.2911 -0.2344 -2.5142
12358TIP3   OH258564   5.829   0.248  17.103 -0.4913 -0.3531  0.0866
12358TIP3    H158565   5.799   0.205  17.183 -0.3553  0.0116  0.3381
12358TIP3    H258566   5.843   0.339  17.129 -2.6453  0.3174 -0.8840
12359TIP3   OH258567   5.671   5.686  13.592  0.4752 -0.5910 -0.0371
12359TIP3    H158568   5.672   5.640  13.676  1.4721 -0.9828 -0.2553
12359TIP3    H258569   5.756   5.666  13.552  1.5375  2.4598  0.4359
12360TIP3   OH258570   2.885   4.947   2.660  0.0139  0.2770  0.5782
12360TIP3    H158571   2.953   4.882   2.675  0.3854  0.6609  0.5750
12360TIP3    H258572   2.803   4.902   2.681  0.3847  0.2757  2.1239
12361TIP3   OH258573   3.200   0.691  16.253  0.3058 -0.0153  0.3956
12361TIP3    H158574   3.207   0.669  16.346 -0.1385 -2.3937 -0.0759
12361TIP3    H258575   3.237   0.615  16.208 -2.9403 -0.6484 -1.4531
12362TIP3   OH258576   4.608   4.907   3.950 -0.1441  0.0870 -0.0785
12362TIP3    H158577   4.631   4.827   3.902 -0.2473 -0.9305  1.5045
12362TIP3    H258578   4.686   4.928   4.000 -1.4105 -1.5539  2.8410
12363TIP3   OH258579   5.082   1.544  14.874 -0.1276  0.4822 -0.3547
12363TIP3    H158580   5.063   1.637  14.879  2.7762  1.1196  1.4833
12363TIP3    H258581   5.072   1.512  14.964 -0.8315 -0.9541 -0.9089
12364TIP3   OH258582   2.168   2.708  16.193  0.7576 -0.1627  0.3138
12364TIP3    H158583   2.116   2.653  16.251 -0.3996  0.5077 -0.0651
12364TIP3    H258584   2.243   2.735  16.246 -0.3777  0.5887  1.5683
12365TIP3   OH258585   1.875   5.439   4.705 -0.3110 -0.7007 -0.7077
12365TIP3    H158586   1.781   5.423   4.695 -0.3821 -0.1025 -1.0912
12365TIP3    H258587   1.897   5.493   4.629  0.3384 -0.8151 -0.6013
12366TIP3   OH258588   6.422   3.805   4.910  0.4043  0.1380  0.0665
12366TIP3    H158589   6.454   3.833   4.824 -0.5831 -0.8170 -0.6310
12366TIP3    H258590   6.327   3.808   4.902  0.2996 -0.5973  0.9228
12367TIP3   OH258591   1.832   5.718  12.662 -0.4382  0.2872 -0.6137
12367TIP3    H158592   1.793   5.758  12.584  0.2237  0.1382 -1.0347
12367TIP3    H258593   1.846   5.627  12.637 -0.3729  0.2004 -0.2603
12368TIP3   OH258594   5.184   0.859   0.680 -0.2972  0.1350 -1.0590
12368TIP3    H158595   5.267   0.821   0.708  0.1277  2.1433  0.6890
12368TIP3    H258596   5.204   0.903   0.597  0.2592  0.1255 -0.9350
12369TIP3   OH258597   5.166   6.028   5.778 -0.1522  0.7283  0.0695
12369TIP3    H158598   5.194   5.937   5.771 -1.7930  0.0947  1.0345
12369TIP3    H258599   5.216   6.063   5.851 -0.3573  0.2434  0.4472
12370TIP3   OH258600   5.040   5.136  14.971 -0.3276  0.9141  0.0531
12370TIP3    H158601   4.947   5.112  14.977 -0.4272  1.0633 -0.8004
12370TIP3    H258602   5.047   5.186  14.890  0.4803  1.0096  0.1719
12371TIP3   OH258603   2.485   2.371   5.116  0.0895  0.0725 -0.3548
12371TIP3    H158604   2.518   2.418   5.192  0.3913 -1.3661  0.4423
12371TIP3    H258605   2.536   2.404   5.042  0.5475  0.6998  0.2382
12372TIP3   OH258606   5.091   1.979   4.553  0.0464  0.1047 -0.5093
12372TIP3    H158607   5.133   1.945   4.474 -0.7263 -0.6902 -0.5915
12372TIP3    H258608   5.079   2.073   4.535  1.4598  0.2823 -0.6060
12373TIP3   OH258609   2.093   0.856  14.997  0.0330 -1.1053 -0.5262
12373TIP3    H158610   2.043   0.832  15.076  0.6197 -1.0846 -0.1378
12373TIP3    H258611   2.048   0.811  14.926 -0.0056 -1.8334 -0.0564
12374TIP3   OH258612   5.610   1.814   0.943  0.1352  0.1846  0.0283
12374TIP3    H158613   5.526   1.780   0.912  0.0562  0.9586 -0.6118
12374TIP3    H258614   5.635   1.754   1.014 -0.8591 -0.1627  0.0961
12375TIP3   OH258615   0.452   4.021   0.721  0.4646 -0.3207 -0.6202
12375TIP3    H158616   0.430   4.058   0.806  1.7733 -0.8650 -0.0086
12375TIP3    H258617   0.537   4.060   0.699  0.4982 -0.7673 -1.3166
12376TIP3   OH258618   6.097   3.676   3.727 -0.3677  0.0842 -0.2184
12376TIP3    H158619   6.033   3.642   3.790  0.9697  0.9016  1.6836
12376TIP3    H258620   6.044   3.714   3.657 -1.9302 -0.4501  0.6316
12377TIP3   OH258621   1.181   3.302  17.012 -0.2657  0.0903  0.2855
12377TIP3    H158622   1.271   3.320  17.039 -0.1532  0.3369 -0.2445
12377TIP3    H258623   1.153   3.228  17.067  0.5172 -0.4907 -0.0819
12378TIP3   OH258624   3.669   6.315  11.701  0.2063 -0.7720 -0.7984
12378TIP3    H158625   3.738   6.283  11.759  0.5678  0.5469 -0.4889
12378TIP3    H258626   3.598   6.339  11.760 -0.2125 -1.3368 -1.0618
12379TIP3   OH258627   6.251   2.548  12.412  0.2310  0.2335 -0.3753
12379TIP3    H158628   6.209   2.484  12.355  0.1180  0.0454 -0.0827
12379TIP3    H258629   6.256   2.628  12.359 -0.3688  0.2151 -0.4648
12380TIP3   OH258630   1.068   1.183   5.653  0.5706  0.3332 -0.4432
12380TIP3    H158631   1.078   1.243   5.579 -0.4958  0.9232 -0.1376
12380TIP3    H258632   1.051   1.098   5.613 -4.1940  1.2852 -1.0886
12381TIP3   OH258633   5.107   2.623   3.585 -0.0787 -0.1252  0.0042
12381TIP3    H158634   5.067   2.589   3.665  0.7677  1.7628  1.3157
12381TIP3    H258635   5.066   2.574   3.514 -1.8638 -0.9184  1.5088
12382TIP3   OH258636   5.227   4.011   2.257 -0.6240 -0.1311  0.2199
12382TIP3    H158637   5.260   3.923   2.279 -0.9542  0.0568  1.5876
12382TIP3    H258638   5.186   4.000   2.171  1.0123 -0.8704 -0.5088
12383TIP3   OH258639   0.218   0.419  13.334 -0.3747 -0.3125 -0.2210
12383TIP3    H158640   0.293   0.387  13.384  0.2637  1.6189  0.1582
12383TIP3    H258641   0.142   0.384  13.379  0.2059  0.8884  1.8096
12384TIP3   OH258642   4.079   2.358  13.831  0.2859 -0.6965  0.2713
12384TIP3    H158643   4.007   2.421  13.822  1.2462  0.3780 -0.0675
12384TIP3    H258644   4.035   2.275  13.850 -1.0644 -0.1354 -0.2375
12385TIP3   OH258645   5.851   0.014   2.997 -0.0144  0.4074 -0.9330
12385TIP3    H158646   5.876   0.107   2.990  2.1397 -0.1815 -1.7608
12385TIP3    H258647   5.883  -0.025   2.916  4.2866 -2.1459  1.6418
12386TIP3   OH258648   2.530   4.076  12.910  0.1211 -0.4833 -0.0418
12386TIP3    H158649   2.450   4.067  12.962 -0.2356 -1.3257 -0.7130
12386TIP3    H258650   2.574   4.153  12.947 -0.4271 -0.6887  1.0891
12387TIP3   OH258651   0.632   3.082   2.295 -0.3147 -0.2401  0.0937
12387TIP3    H158652   0.549   3.073   2.249 -0.0752  0.7052 -0.5384
12387TIP3    H258653   0.691   3.023   2.249 -0.4684 -0.4579  0.1702
12388TIP3   OH258654   4.056   0.428   6.367  0.5067 -0.3213 -0.7271
12388TIP3    H158655   4.045   0.339   6.334 -1.1392  0.4185 -2.3746
12388TIP3    H258656   4.125   0.466   6.312  2.5241 -1.0335  1.1452
12389TIP3   OH258657   2.212   3.022  11.202  0.8651 -0.3243  0.8194
12389TIP3    H158658   2.269   2.981  11.268  0.4752 -1.8028  0.2726
12389TIP3    H258659   2.152   3.076  11.253  1.2816 -0.5534  1.5805
12390TIP3   OH258660   6.772   5.400  11.396  0.1653  0.3337  0.3375
12390TIP3    H158661   6.786   5.328  11.458  0.4209  0.0847 -0.0038
12390TIP3    H258662   6.680   5.422  11.405 -0.3791 -1.2644 -0.8430
12391TIP3   OH258663   4.755   0.547  11.677  0.6060 -0.0977 -0.3949
12391TIP3    H158664   4.841   0.586  11.660  0.1443  1.0419 -0.1527
12391TIP3    H258665   4.716   0.535  11.591  0.3800  0.8354 -0.4269
12392TIP3   OH258666   1.779   0.635  14.384 -0.0400 -0.1482  0.0854
12392TIP3    H158667   1.788   0.685  14.303  1.0538 -0.9784 -0.3350
12392TIP3    H258668   1.685   0.619  14.393 -0.4083  1.8585  0.1852
12393TIP3   OH258669   0.418   4.546   2.900 -0.0048 -0.3640  0.0917
12393TIP3    H158670   0.380   4.461   2.879  0.3858 -0.3915 -0.5389
12393TIP3    H258671   0.430   4.545   2.995  0.1874 -1.0942  0.0632
12394TIP3   OH258672   1.286   0.554  16.484 -0.3507  0.6599  0.2136
12394TIP3    H158673   1.360   0.533  16.540 -0.8409  0.0030  0.6345
12394TIP3    H258674   1.324   0.576  16.400  0.2658 -0.8446  0.0761
12395TIP3   OH258675   4.768   1.711  14.036 -0.0133 -0.0535 -1.1332
12395TIP3    H158676   4.841   1.726  13.976  1.2023  0.5865  0.4372
12395TIP3    H258677   4.801   1.740  14.121 -1.1519 -2.2995  0.1480
12396TIP3   OH258678   1.392   5.610   6.216 -0.1108  0.0317 -0.4576
12396TIP3    H158679   1.353   5.659   6.288 -2.3694 -2.1519 -0.0332
12396TIP3    H258680   1.387   5.669   6.141 -0.8090  1.1801  0.4540
12397TIP3   OH258681   3.365   6.195   6.254  0.4221  0.2160  0.2398
12397TIP3    H158682   3.317   6.172   6.333 -0.0177  0.9314  0.1918
12397TIP3    H258683   3.441   6.243   6.285  0.5771 -0.0473  0.2641
12398TIP3   OH258684   2.855   3.893  11.411  0.6547 -0.0992  0.8282
12398TIP3    H158685   2.787   3.937  11.360  1.2836  0.7324  0.6851
12398TIP3    H258686   2.932   3.894  11.354  0.3150 -2.7541  0.1929
12399TIP3   OH258687   2.164   0.677  16.623  0.3425  0.4551  0.1221
12399TIP3    H158688   2.202   0.616  16.560 -0.2669  0.7929 -0.5897
12399TIP3    H258689   2.155   0.759  16.574 -1.9155  0.2173  0.0289
12400TIP3   OH258690   5.463   2.745   1.485 -0.3762 -0.0125 -0.2881
12400TIP3    H158691   5.552   2.780   1.479 -0.7137  0.6374 -2.7296
12400TIP3    H258692   5.414   2.812   1.532  0.3734 -0.3389  1.0005
12401TIP3   OH258693   3.577   4.622  11.216  0.1971  0.4247 -0.0339
12401TIP3    H158694   3.493   4.578  11.207 -0.9080  2.2251  0.7977
12401TIP3    H258695   3.559   4.713  11.194  1.9458  0.8507  0.1241
12402TIP3   OH258696   0.800   4.706  11.315 -0.4044 -0.1529  0.0877
12402TIP3    H158697   0.849   4.672  11.240  0.7984  1.0586  0.2997
12402TIP3    H258698   0.775   4.795  11.290 -0.0295  0.2479  1.1054
12403TIP3   OH258699   4.666   0.407  10.329  0.3706  0.0495  0.0183
12403TIP3    H158700   4.636   0.440  10.413  0.4024  0.6910 -0.2148
12403TIP3    H258701   4.638   0.474  10.266 -0.0484 -0.6393 -0.5352
12404TIP3   OH258702   2.752   5.070   3.280  0.1980  0.0910 -0.5790
12404TIP3    H158703   2.844   5.065   3.307 -0.1837 -0.5143  0.6412
12404TIP3    H258704   2.753   5.047   3.187  1.1483 -1.0487 -0.3022
12405TIP3   OH258705   0.217   2.222   1.525 -0.0848  0.4521  0.2000
12405TIP3    H158706   0.273   2.289   1.565 -1.4927  2.8310 -1.5261
12405TIP3    H258707   0.241   2.223   1.432 -1.5915  0.1013 -0.2272
12406TIP3   OH258708   2.207   4.736  16.298  0.1920  0.2339 -0.1641
12406TIP3    H158709   2.239   4.647  16.285  1.4961  0.8551 -1.4466
12406TIP3    H258710   2.197   4.772  16.210 -2.0750  0.8021  0.2570
12407TIP3   OH258711   1.438   2.600  15.607  0.3620  0.3285  0.0510
12407TIP3    H158712   1.487   2.637  15.534  2.2348 -2.2428 -0.1589
12407TIP3    H258713   1.471   2.646  15.684  0.6475  0.9511 -0.4366
12408TIP3   OH258714   4.551   0.257  15.555  0.2433 -0.2642 -0.7582
12408TIP3    H158715   4.545   0.210  15.638 -0.2261 -0.6886 -1.0283
12408TIP3    H258716   4.597   0.338  15.577  0.1293 -0.3736 -0.0866
12409TIP3   OH258717   5.306   3.781   1.954 -0.6071 -0.3117 -0.2546
12409TIP3    H158718   5.360   3.852   1.990 -1.8612  0.5980 -0.0866
12409TIP3    H258719   5.360   3.703   1.964  0.1891  0.3554  1.0530
12410TIP3   OH258720   4.981   6.455   4.073  0.2636  0.1471  0.2481
12410TIP3    H158721   4.911   6.390   4.086  1.2716 -1.0036  0.0397
12410TIP3    H258722   4.934   6.536   4.054 -1.1405  0.1543  3.1108
12411TIP3   OH258723   1.341   2.794   5.757 -0.2222 -0.0457 -0.3160
12411TIP3    H158724   1.258   2.748   5.744  0.7541 -1.8836 -0.3375
12411TIP3    H258725   1.324   2.853   5.831 -1.0837 -1.6330  0.8265
12412TIP3   OH258726   4.536   1.333  12.176 -0.6902  0.9206 -0.0913
12412TIP3    H158727   4.459   1.276  12.168 -0.2221  0.3853 -0.8688
12412TIP3    H258728   4.607   1.274  12.200  0.2862  0.7537 -2.9939
12413TIP3   OH258729   5.321   6.313   0.592 -0.1902  0.0639 -0.6896
12413TIP3    H158730   5.327   6.271   0.507 -0.6955  0.1288 -0.7607
12413TIP3    H258731   5.262   6.387   0.579  0.0479  0.3154 -0.3769
12414TIP3   OH258732   4.518   1.518  11.629  0.1926  0.3562 -0.1934
12414TIP3    H158733   4.591   1.489  11.683 -1.2920 -2.5804  0.4331
12414TIP3    H258734   4.444   1.463  11.655 -1.3343  0.6813 -3.2812
12415TIP3   OH258735   4.510   2.468  13.055  1.0065 -0.4128  0.4626
12415TIP3    H158736   4.431   2.506  13.092  0.6030 -0.7113 -0.0733
12415TIP3    H258737   4.498   2.373  13.065  1.1957 -0.4685  0.1940
12416TIP3   OH258738   5.983   6.814  11.032 -0.2497  1.0039  0.6379
12416TIP3    H158739   5.970   6.764  10.951  2.1475 -0.6651  1.1827
12416TIP3    H258740   5.945   6.758  11.100  0.6773  0.8105  1.0148
12417TIP3   OH258741   0.509   4.041  16.330  0.4847 -0.4211  0.6032
12417TIP3    H158742   0.576   4.036  16.263  1.3460  1.3782  1.2795
12417TIP3    H258743   0.508   4.133  16.357 -1.1200 -0.7303  1.7574
12418TIP3   OH258744   1.601   4.502  11.871  0.6300 -0.4032  0.1926
12418TIP3    H158745   1.568   4.413  11.863 -0.9176 -0.0258  1.7357
12418TIP3    H258746   1.690   4.492  11.907  0.1103 -1.3214  1.2975
12419TIP3   OH258747   5.434   3.819  16.954  0.3246  0.4086  0.0110
12419TIP3    H158748   5.525   3.831  16.929  0.0080  3.1119 -0.1421
12419TIP3    H258749   5.384   3.846  16.877 -0.6155 -0.5384  0.2709
12420TIP3   OH258750   5.635   5.954   1.341  0.0098 -0.1721 -0.0561
12420TIP3    H158751   5.689   6.020   1.298  0.4374 -0.7446 -0.4102
12420TIP3    H258752   5.683   5.932   1.421  0.5600 -1.0294 -0.6063
12421TIP3   OH258753   3.417   1.040   0.269  0.3023 -0.4635 -0.5440
12421TIP3    H158754   3.437   1.134   0.267  2.4478 -0.8716 -1.0117
12421TIP3    H258755   3.449   1.011   0.355 -3.0767 -0.3113  0.9101
12422TIP3   OH258756   0.623   3.477   5.390  0.0266  0.3014  0.5181
12422TIP3    H158757   0.568   3.502   5.316  0.4437  2.1497  0.7885
12422TIP3    H258758   0.700   3.533   5.383  0.9502 -0.8160  1.3032
12423TIP3   OH258759   2.031   1.302   5.662 -0.2431  0.1028 -0.0329
12423TIP3    H158760   2.109   1.324   5.714 -2.4689  3.2022  2.3608
12423TIP3    H258761   2.019   1.376   5.604 -1.3445 -0.3810 -0.4409
12424TIP3   OH258762   0.234   1.543   6.523  0.3575 -0.3109  0.3222
12424TIP3    H158763   0.200   1.485   6.455  1.0355 -2.0777  1.4210
12424TIP3    H258764   0.297   1.600   6.477  0.0522 -0.7668 -0.6895
12425TIP3   OH258765   5.646   5.586   5.513 -0.6089  0.2147  0.4265
12425TIP3    H158766   5.598   5.580   5.430  0.4815  2.9135 -0.4874
12425TIP3    H258767   5.697   5.505   5.517 -1.0991 -0.2206 -1.2724
12426TIP3   OH258768   5.684   1.676   3.968 -0.2034  0.2347 -0.6918
12426TIP3    H158769   5.632   1.678   3.887  0.7412 -1.4435 -1.4023
12426TIP3    H258770   5.731   1.592   3.964 -2.2624 -1.3204  2.9837
12427TIP3   OH258771   2.537   6.369  13.155  0.3954  0.4028  0.2445
12427TIP3    H158772   2.475   6.299  13.174  0.2735  0.7264  1.0851
12427TIP3    H258773   2.552   6.411  13.240  2.4717 -0.2375  0.2364
12428TIP3   OH258774   0.615   0.645  16.473 -0.0087 -0.7639 -0.1646
12428TIP3    H158775   0.534   0.615  16.432 -1.4017  2.1066  0.2053
12428TIP3    H258776   0.604   0.624  16.566 -1.3213  1.3194  0.2230
12429TIP3   OH258777   6.130   4.507  14.684  0.0810 -0.1059 -0.4833
12429TIP3    H158778   6.061   4.565  14.716  1.3461  2.0036 -1.3150
12429TIP3    H258779   6.098   4.476  14.599 -1.6990 -2.7833  1.0502
12430TIP3   OH258780   2.440   3.835  15.145 -0.1281 -0.2011  0.1989
12430TIP3    H158781   2.477   3.780  15.075 -0.8763  2.3065 -2.3521
12430TIP3    H258782   2.348   3.810  15.148  0.1352 -1.1259  1.1843
12431TIP3   OH258783   5.356   3.059   2.396  0.4367 -0.0099  0.5436
12431TIP3    H158784   5.269   3.064   2.356  0.3977 -0.1312  0.6114
12431TIP3    H258785   5.371   2.965   2.408  1.6878 -0.2087 -1.9020
12432TIP3   OH258786   1.401   3.426  15.313  0.4502 -0.1356  0.9644
12432TIP3    H158787   1.378   3.514  15.345  0.6289  0.4402 -0.4096
12432TIP3    H258788   1.397   3.434  15.218  0.7596 -1.5561  0.8182
12433TIP3   OH258789   3.134   0.094   2.879  0.7182 -0.3608 -0.2837
12433TIP3    H158790   3.221   0.054   2.877  0.5984 -1.0668  3.2191
12433TIP3    H258791   3.074   0.020   2.866  0.5971 -1.0285  3.1240
12434TIP3   OH258792   3.620   4.005   1.712  0.1942 -0.4915  0.1497
12434TIP3    H158793   3.570   4.010   1.794  0.3983 -0.2543  0.2624
12434TIP3    H258794   3.629   4.096   1.683  1.9934 -0.3327  1.0241
12435TIP3   OH258795   3.072   6.349   1.432 -0.0992  0.1373 -0.2171
12435TIP3    H158796   3.077   6.347   1.336  0.7156 -0.1413 -0.1726
12435TIP3    H258797   3.029   6.432   1.452  2.5745  1.7863 -0.7356
12436TIP3   OH258798   3.936   0.983  13.193 -0.4559 -0.2415  0.5995
12436TIP3    H158799   3.987   0.902  13.191 -2.3287 -1.4882 -1.2262
12436TIP3    H258800   3.881   0.975  13.271  0.3041 -0.0791  1.1614
12437TIP3   OH258801   4.287   3.390  10.893 -0.0174  0.1900  0.2271
12437TIP3    H158802   4.304   3.430  10.808  1.7690 -2.0015 -0.5399
12437TIP3    H258803   4.198   3.418  10.916 -1.3010 -0.6476 -3.2327
12438TIP3   OH258804   5.613   2.871  12.318 -0.0721  0.5124 -0.1854
12438TIP3    H158805   5.608   2.800  12.382 -0.8476 -0.4468 -1.2744
12438TIP3    H258806   5.649   2.945  12.368 -2.2861  0.3543  1.8701
12439TIP3   OH258807   1.175   0.657   4.515  0.0133  0.4646 -0.1034
12439TIP3    H158808   1.187   0.563   4.518  0.3380  0.4546 -1.4701
12439TIP3    H258809   1.177   0.680   4.422 -1.9290  1.5838  0.0702
12440TIP3   OH258810   3.923   2.999  11.281 -0.3716 -0.6301  0.1778
12440TIP3    H158811   3.908   2.951  11.199  0.1661  0.0869 -0.3607
12440TIP3    H258812   3.912   2.934  11.350 -1.2303 -1.1681 -0.4423
12441TIP3   OH258813   4.759   6.157   1.236 -0.0359  0.7158  0.0229
12441TIP3    H158814   4.738   6.138   1.328 -2.1624 -0.9270 -0.7102
12441TIP3    H258815   4.752   6.252   1.229  1.1886  0.9772  1.7593
12442TIP3   OH258816   3.445   0.867   4.824  0.0499  0.4110 -0.2855
12442TIP3    H158817   3.406   0.887   4.909 -0.4628 -0.4190 -0.3086
12442TIP3    H258818   3.474   0.776   4.833  0.1254  0.3685 -0.9423
12443TIP3   OH258819   2.196   0.127   0.342 -0.0553  0.0906  0.2571
12443TIP3    H158820   2.189   0.042   0.387  0.3501  0.9036  1.9417
12443TIP3    H258821   2.112   0.138   0.299 -0.5082 -0.7080  0.8995
12444TIP3   OH258822   0.584   1.059   2.460  0.5712 -0.2943  0.0532
12444TIP3    H158823   0.676   1.031   2.463  1.2464  1.3062 -2.3097
12444TIP3    H258824   0.547   1.008   2.388 -0.9561 -2.1387  2.0133
12445TIP3   OH258825   2.264   3.114  10.561 -0.5702 -0.3157  0.5225
12445TIP3    H158826   2.302   3.201  10.568 -1.2183 -0.0401  0.6627
12445TIP3    H258827   2.318   3.059  10.618 -0.7038  0.1758  1.1247
12446TIP3   OH258828   5.059   6.789   2.263  0.4301 -0.7139  0.1349
12446TIP3    H158829   5.127   6.809   2.327  1.1932  0.4851 -0.9972
12446TIP3    H258830   5.099   6.724   2.205 -0.2878 -1.8622  0.8787
12447TIP3   OH258831   6.260   4.951  15.834  0.5984 -0.2576  0.3299
12447TIP3    H158832   6.281   4.976  15.744 -2.4859 -0.0429 -0.4349
12447TIP3    H258833   6.269   4.855  15.835  1.3643 -0.1970  0.0380
12448TIP3   OH258834   6.687   1.013   1.256  0.4400  0.3202  0.4171
12448TIP3    H158835   6.604   1.047   1.290  0.0651 -0.7983  0.6846
12448TIP3    H258836   6.669   0.990   1.165  0.5156  0.2798  0.4120
12449TIP3   OH258837   1.785   5.886  15.353  0.1942 -0.2003  0.5474
12449TIP3    H158838   1.804   5.796  15.381 -2.2427 -0.2409  2.3605
12449TIP3    H258839   1.761   5.877  15.261 -0.8348 -1.5604  0.9102
12450TIP3   OH258840   0.442   4.800  15.456  0.2887 -0.2157 -0.2841
12450TIP3    H158841   0.429   4.894  15.444  1.4923  0.0635  0.4055
12450TIP3    H258842   0.483   4.792  15.542 -1.5018 -1.5507  0.5188
12451TIP3   OH258843   0.359   5.351   4.941 -0.1313 -0.4046  0.0496
12451TIP3    H158844   0.453   5.342   4.961 -0.0991 -0.7648 -0.2737
12451TIP3    H258845   0.357   5.387   4.853 -0.3019 -0.6455 -0.0438
12452TIP3   OH258846   3.643   0.144  12.132 -0.4751  0.0737  0.1564
12452TIP3    H158847   3.551   0.171  12.142 -0.3867  0.7870 -0.7670
12452TIP3    H258848   3.666   0.104  12.215 -1.1895  1.2590  0.9500
12453TIP3   OH258849   1.863   3.992   2.168  0.0239  0.3056  0.0248
12453TIP3    H158850   1.902   4.007   2.253  0.3782 -0.0027 -0.0815
12453TIP3    H258851   1.899   4.061   2.112  0.7610 -0.2398 -0.1813
12454TIP3   OH258852   4.898   4.473   3.240  0.6710  0.5558  0.3332
12454TIP3    H158853   4.932   4.559   3.214  1.2205  0.4040  0.5342
12454TIP3    H258854   4.808   4.491   3.267 -0.3609  0.5217 -2.7712
12455TIP3   OH258855   1.146   0.166   5.257 -0.2180 -1.2214 -0.0013
12455TIP3    H158856   1.184   0.154   5.170  0.7007 -1.6881  0.4427
12455TIP3    H258857   1.085   0.093   5.268 -1.0986 -0.6016 -0.6279
12456TIP3   OH258858   6.071   6.303   5.216 -0.3145  0.1093  0.1938
12456TIP3    H158859   6.142   6.238   5.215  0.0498  0.4089  2.3822
12456TIP3    H258860   6.022   6.285   5.136  0.8660 -1.6405 -0.2054
12457TIP3   OH258861   1.158   0.907   5.015 -0.0515 -0.6456  0.0798
12457TIP3    H158862   1.197   0.935   4.932  2.6033 -1.7851  0.7995
12457TIP3    H258863   1.109   0.982   5.046  2.2871  1.2956 -0.6125
12458TIP3   OH258864   2.165   4.197   0.264  0.1075 -0.3054  0.3490
12458TIP3    H158865   2.213   4.144   0.327 -2.0429 -2.2017  0.5020
12458TIP3    H258866   2.091   4.233   0.314 -0.7672 -0.5722 -0.7179
12459TIP3   OH258867   2.578   3.204   4.676  0.2318  0.2313 -0.0697
12459TIP3    H158868   2.555   3.130   4.732 -0.4766  0.3519 -0.1888
12459TIP3    H258869   2.529   3.189   4.595 -0.4335  1.1557  0.1428
12460TIP3   OH258870   6.021   3.886   3.024 -0.0751  0.0301 -0.6472
12460TIP3    H158871   6.103   3.926   2.996 -0.3793  1.6578  0.6248
12460TIP3    H258872   5.954   3.930   2.971 -0.3147  0.3121 -0.1110
12461TIP3   OH258873   3.345   2.175  14.079 -0.7489  0.4006  0.0150
12461TIP3    H158874   3.280   2.242  14.098 -0.3230  0.4399  1.4925
12461TIP3    H258875   3.317   2.098  14.129 -0.0978  0.1609  0.0307
12462TIP3   OH258876   6.221   5.028  15.390 -0.4194 -0.5011 -0.5878
12462TIP3    H158877   6.235   5.118  15.360 -0.0859 -0.2298  0.3377
12462TIP3    H258878   6.126   5.017  15.390 -0.5297  0.2758  0.4365
12463TIP3   OH258879   3.041   6.255  14.347 -0.2527 -0.2491  0.4891
12463TIP3    H158880   3.136   6.263  14.346 -0.3316  0.9640 -0.6563
12463TIP3    H258881   3.022   6.191  14.278 -0.2716 -0.8087  0.9972
12464TIP3   OH258882   4.543   3.315   1.941  0.0511 -0.1043  0.1935
12464TIP3    H158883   4.621   3.358   1.976  0.7761 -1.4501  0.3164
12464TIP3    H258884   4.565   3.299   1.849  0.3729 -1.4003  0.4699
12465TIP3   OH258885   3.220   3.217  11.250 -0.5783  0.9270  0.1263
12465TIP3    H158886   3.146   3.252  11.201  0.6523  0.7198 -2.0030
12465TIP3    H258887   3.248   3.289  11.306 -3.3440  0.4991  2.3129
12466TIP3   OH258888   1.621   5.452   3.790  0.2175 -0.6979  0.3531
12466TIP3    H158889   1.715   5.467   3.790  0.3964 -1.7185 -0.2468
12466TIP3    H258890   1.603   5.412   3.705 -1.0433  1.1510 -0.3114
12467TIP3   OH258891   5.508   5.492  13.201  0.4277 -0.2925  0.0276
12467TIP3    H158892   5.478   5.556  13.264 -0.4275 -1.1148  0.4768
12467TIP3    H258893   5.530   5.544  13.123 -0.1822  0.5470  0.3955
12468TIP3   OH258894   3.156   6.596   5.349 -0.4227 -0.0451 -0.2818
12468TIP3    H158895   3.173   6.558   5.436 -0.3411 -1.3998 -0.8653
12468TIP3    H258896   3.150   6.690   5.365  0.6394 -0.1611  1.0440
12469TIP3   OH258897   6.474   6.299   1.551 -0.0314 -0.1384 -0.0854
12469TIP3    H158898   6.438   6.363   1.490  0.6288 -0.3334 -0.6951
12469TIP3    H258899   6.398   6.248   1.580 -0.1930 -0.9626 -1.8450
12470TIP3   OH258900   0.189   0.495  14.031  0.2430  0.5344  0.1548
12470TIP3    H158901   0.137   0.524  13.956 -0.6966  1.1973  1.0378
12470TIP3    H258902   0.249   0.568  14.048 -1.0975  1.3612  1.4444
12471TIP3   OH258903   6.141   0.834  14.045 -0.4483  0.2294  0.3160
12471TIP3    H158904   6.128   0.927  14.063  1.1818  0.5103  0.1581
12471TIP3    H258905   6.224   0.830  13.997 -1.0319 -1.2098 -0.6438
12472TIP3   OH258906   0.538   2.045  11.266  0.0697  0.8531 -0.7115
12472TIP3    H158907   0.571   2.072  11.352 -0.4202  0.9303 -0.5471
12472TIP3    H258908   0.568   1.955  11.257 -2.4611 -0.2441  0.8833
12473TIP3   OH258909   2.635   0.988  10.440 -0.0297 -0.8781 -0.0007
12473TIP3    H158910   2.686   1.060  10.477 -0.0667 -0.5687 -0.5465
12473TIP3    H258911   2.695   0.913  10.440 -0.3396 -1.1583  1.6236
12474TIP3   OH258912   0.936   2.835  14.106  0.5878 -0.4945  0.5908
12474TIP3    H158913   0.961   2.860  14.017  0.3871  0.4729  0.7908
12474TIP3    H258914   0.958   2.742  14.112  0.9361 -0.4870 -0.3473
12475TIP3   OH258915   3.568   1.983  14.508 -0.6964  0.7944  0.3282
12475TIP3    H158916   3.657   1.994  14.542 -0.8281 -0.4700  1.1786
12475TIP3    H258917   3.519   2.057  14.543 -0.2707  0.7831  0.9737
12476TIP3   OH258918   2.789   2.913   5.257  0.0931 -0.1468  0.6551
12476TIP3    H158919   2.754   2.924   5.345 -0.1827  1.1581  0.4079
12476TIP3    H258920   2.871   2.866   5.269 -0.0774 -0.2202  1.5754
12477TIP3   OH258921   6.539   4.917  15.164  0.2321 -0.3162  0.5113
12477TIP3    H158922   6.487   4.843  15.133  1.9602 -1.0881 -0.6760
12477TIP3    H258923   6.561   4.896  15.254 -0.7834 -0.3632  0.7628
12478TIP3   OH258924   4.984   6.472   1.303  0.3412  0.0839 -0.6405
12478TIP3    H158925   4.903   6.453   1.256 -1.1635  1.5635  1.2317
12478TIP3    H258926   4.957   6.491   1.392  2.8470 -0.0631  0.2398
12479TIP3   OH258927   0.424   2.045   3.490  0.2458  0.6494 -0.2989
12479TIP3    H158928   0.363   1.982   3.529 -1.1608  1.0001 -1.7865
12479TIP3    H258929   0.510   2.006   3.504 -0.4981 -1.1020 -0.2445
12480TIP3   OH258930   4.788   3.257   4.695 -0.4079  0.5647 -0.1339
12480TIP3    H158931   4.781   3.350   4.672 -0.8750  0.3377 -0.9364
12480TIP3    H258932   4.814   3.214   4.613  3.3303  0.3969  0.9438
12481TIP3   OH258933   4.431   5.613  16.739 -0.3713  0.2438 -0.1401
12481TIP3    H158934   4.385   5.668  16.676 -0.3599 -0.1398 -0.4826
12481TIP3    H258935   4.413   5.654  16.824 -0.4666  0.7010 -0.3797
12482TIP3   OH258936   2.308   2.060   2.038 -0.0069 -0.5608 -0.0659
12482TIP3    H158937   2.306   2.149   2.002 -2.5015 -0.8341 -0.8129
12482TIP3    H258938   2.401   2.042   2.051  0.7326  1.3256 -1.9619
12483TIP3   OH258939   5.619   4.945  16.200 -0.2498 -0.7673 -0.6991
12483TIP3    H158940   5.554   4.931  16.269 -1.3660 -2.3853 -1.9971
12483TIP3    H258941   5.698   4.903  16.233 -0.4043 -0.4476  0.1032
12484TIP3   OH258942   2.784   0.514   2.356 -0.0697  0.4951  0.6551
12484TIP3    H158943   2.862   0.567   2.373 -0.5362  1.0481  1.1248
12484TIP3    H258944   2.719   0.576   2.324 -0.2247 -0.0162 -0.0598
12485TIP3   OH258945   4.522   1.436   0.038  0.2592  0.2918  0.1508
12485TIP3    H158946   4.523   1.523  -0.003 -2.1635 -0.6988 -2.3285
12485TIP3    H258947   4.548   1.376  -0.032 -0.7862 -1.2137  0.9943
12486TIP3   OH258948   3.410   6.160   2.289  0.4700  0.0688  0.3375
12486TIP3    H158949   3.369   6.219   2.226  0.9855  0.3746  0.2799
12486TIP3    H258950   3.401   6.205   2.374  0.6458  0.1196  0.3301
12487TIP3   OH258951   0.197   5.971  12.204  0.2522 -0.2624  0.3475
12487TIP3    H158952   0.222   5.962  12.112  0.0435 -0.9412  0.3486
12487TIP3    H258953   0.226   5.889  12.245 -0.6617 -0.4483  0.6490
12488TIP3   OH258954   0.085   3.153   2.614 -0.0838 -0.6257  0.1517
12488TIP3    H158955   0.129   3.120   2.693 -0.8807 -0.2056  0.7793
12488TIP3    H258956   0.105   3.088   2.547 -0.5887 -1.7454  1.0547
12489TIP3   OH258957   6.481   1.654  15.330  0.1893 -0.0428  0.5414
12489TIP3    H158958   6.566   1.614  15.349 -0.4175 -1.5395  0.1976
12489TIP3    H258959   6.486   1.678  15.237 -0.3972 -1.8566 -0.0017
12490TIP3   OH258960   0.586   1.076   4.258  0.0887  0.1663  0.3338
12490TIP3    H158961   0.605   1.021   4.182 -0.2863 -0.1722  0.4781
12490TIP3    H258962   0.670   1.115   4.282  1.2218 -3.0959  2.3902
12491TIP3   OH258963   1.344   0.817  13.637 -0.2999  0.5905 -0.0256
12491TIP3    H158964   1.341   0.886  13.571 -0.0381 -0.1908 -0.8924
12491TIP3    H258965   1.350   0.736  13.586 -2.2209 -0.2003  0.9176
12492TIP3   OH258966   3.780   4.098   0.940  0.0667 -0.0301 -0.5238
12492TIP3    H158967   3.720   4.104   0.866  1.6506  0.1079 -1.8368
12492TIP3    H258968   3.803   4.189   0.960  0.3482 -0.1127 -0.4602
12493TIP3   OH258969   0.161   2.553   2.588 -0.2301 -0.2014  0.0879
12493TIP3    H158970   0.121   2.504   2.660  1.0098 -0.9612  0.2787
12493TIP3    H258971   0.237   2.500   2.562  0.7393  1.2739 -0.1770
12494TIP3   OH258972   4.117   4.948   4.586 -0.2811  0.1106 -0.6077
12494TIP3    H158973   4.199   4.926   4.631 -1.4839 -1.9761  0.7005
12494TIP3    H258974   4.133   5.035   4.549  1.7879  0.6842  1.4080
12495TIP3   OH258975   4.482   0.741  13.759  0.2573 -0.5444 -0.1289
12495TIP3    H158976   4.490   0.835  13.742 -0.4881 -0.6425 -1.1208
12495TIP3    H258977   4.403   0.732  13.812  0.0948 -0.6530 -0.3896
12496TIP3   OH258978   0.871   0.116  11.120 -0.4762  0.4967  0.6651
12496TIP3    H158979   0.852   0.138  11.029 -0.6701  0.6855  0.7505
12496TIP3    H258980   0.860   0.021  11.124 -1.3687  0.5964  0.7017
12497TIP3   OH258981   1.901   5.383  10.692  0.2064  0.0043 -0.0536
12497TIP3    H158982   1.822   5.436  10.679  0.6521  0.2613 -2.0651
12497TIP3    H258983   1.872   5.294  10.673 -0.2932 -0.4057  2.3103
12498TIP3   OH258984   1.048   3.168   4.728 -0.4386  0.0682 -0.2366
12498TIP3    H158985   1.110   3.228   4.686 -0.1682 -1.1891 -1.7166
12498TIP3    H258986   1.017   3.216   4.805  2.7110  0.5823  0.8674
12499TIP3   OH258987   1.823   1.432  16.120  0.2653 -0.6570  0.4182
12499TIP3    H158988   1.806   1.519  16.156  0.9339 -0.5210  0.4003
12499TIP3    H258989   1.740   1.409  16.077  0.2086  0.1377  0.0726
12500TIP3   OH258990   0.552   2.384   5.524  0.3131 -0.1634 -0.3705
12500TIP3    H158991   0.642   2.401   5.553  0.5355 -1.6373 -0.1205
12500TIP3    H258992   0.553   2.405   5.430  0.8814 -0.0633 -0.3503
12501TIP3   OH258993   1.585   4.994  12.012 -0.7789  0.2805  1.0350
12501TIP3    H158994   1.591   4.904  12.044  0.7028 -0.5042 -1.2048
12501TIP3    H258995   1.511   4.993  11.951 -1.0209  0.7198  1.3118
12502TIP3   OH258996   2.454   3.116  14.816  0.1780  0.5643 -0.1722
12502TIP3    H158997   2.423   3.026  14.831 -0.0599  0.4981 -1.0006
12502TIP3    H258998   2.374   3.167  14.805  0.2671  1.1554  1.6845
12503TIP3   OH258999   1.857   1.519   3.367  0.2620 -0.9011 -0.2562
12503TIP3    H159000   1.779   1.573   3.357  1.4691  0.8487 -0.7007
12503TIP3    H259001   1.825   1.429   3.365 -2.0146 -0.2358  2.0825
12504TIP3   OH259002   6.088   4.119   1.155 -0.1660  0.5154 -0.1836
12504TIP3    H159003   6.068   4.194   1.099  2.8752  2.4658  1.0987
12504TIP3    H259004   6.008   4.105   1.206 -1.1594  2.2287 -1.1777
12505TIP3   OH259005   6.203   3.277   5.299 -0.0915  0.5740 -0.0464
12505TIP3    H159006   6.211   3.314   5.387  0.2964 -0.3012  0.3044
12505TIP3    H259007   6.109   3.268   5.285 -0.1549  0.5579  0.3594
12506TIP3   OH259008   2.588   1.745  13.555 -0.1655  0.4426 -0.2068
12506TIP3    H159009   2.507   1.701  13.581 -0.9204  1.4530 -0.8019
12506TIP3    H259010   2.628   1.685  13.491  0.5959 -1.0039  1.5251
12507TIP3   OH259011   0.006   4.833  13.019  0.0824 -0.0108 -0.1361
12507TIP3    H159012  -0.019   4.866  12.934  0.8687  0.8366 -0.0535
12507TIP3    H259013  -0.027   4.743  13.021 -5.1754  1.5643  0.9154
12508TIP3   OH259014   4.733   6.806  15.236  0.2013 -0.1854 -0.2032
12508TIP3    H159015   4.690   6.881  15.278 -0.4941 -0.7521  0.1286
12508TIP3    H259016   4.777   6.761  15.308  0.4978 -0.1766 -0.3803
12509TIP3   OH259017   4.950   1.065   4.245 -0.0349 -0.1819 -0.0538
12509TIP3    H159018   5.022   1.084   4.184 -0.7062 -0.9565 -1.1248
12509TIP3    H259019   4.990   1.012   4.314  0.6656  0.4049 -0.0010
12510TIP3   OH259020   5.852   4.462  12.439  0.0277 -0.0853  0.1611
12510TIP3    H159021   5.849   4.425  12.527  0.4964 -0.6219 -0.0465
12510TIP3    H259022   5.941   4.444  12.408 -0.1355  0.0913 -0.4251
12511TIP3   OH259023   4.770   5.454  16.025  0.4289  0.2137  1.2442
12511TIP3    H159024   4.786   5.378  16.081  0.8989  0.3644  1.3208
12511TIP3    H259025   4.810   5.528  16.073 -0.2000  0.5448  1.2692
12512TIP3   OH259026   6.021   1.744  10.932 -0.1593 -0.2877 -0.5384
12512TIP3    H159027   5.985   1.786  10.853 -1.7726  0.5201  0.5680
12512TIP3    H259028   6.114   1.732  10.912 -0.2029  1.3387 -1.9736
12513TIP3   OH259029   3.205   3.011   0.820 -0.2581 -0.3451  0.3184
12513TIP3    H159030   3.191   2.916   0.821  1.3052 -0.6984 -2.2987
12513TIP3    H259031   3.272   3.025   0.753 -1.8793  2.7846 -0.8645
12514TIP3   OH259032   1.540   4.833   3.372  0.1623  0.0327  0.1336
12514TIP3    H159033   1.481   4.898   3.334  1.5867  1.2907 -0.0099
12514TIP3    H259034   1.499   4.749   3.352 -0.6165  0.7783 -1.5963
12515TIP3   OH259035   1.490   2.938   0.563 -0.0779 -0.4616  0.2689
12515TIP3    H159036   1.463   3.002   0.497  2.6643 -0.3132 -0.8586
12515TIP3    H259037   1.550   2.879   0.515  0.6274 -1.4152  2.2179
12516TIP3   OH259038   1.894   3.479  16.591  0.6725 -0.0370  0.1393
12516TIP3    H159039   1.887   3.414  16.661  0.9544  0.3353  0.5179
12516TIP3    H259040   1.819   3.537  16.605  1.3323  0.6791  0.8105
12517TIP3   OH259041   5.950   3.508   2.531  0.0295 -0.2491  0.0615
12517TIP3    H159042   5.898   3.535   2.607 -0.1542 -0.3387 -0.0300
12517TIP3    H259043   5.940   3.412   2.528 -0.2911 -0.2094 -0.3035
12518TIP3   OH259044   0.574   6.697   0.435  0.2454 -0.5157  0.8506
12518TIP3    H159045   0.567   6.776   0.489 -1.0988  0.4780 -0.6542
12518TIP3    H259046   0.617   6.727   0.355 -0.0194 -1.3726  0.3770
12519TIP3   OH259047   6.002   1.792  14.396  0.5481 -0.3894  0.0947
12519TIP3    H159048   5.928   1.772  14.338  0.6469 -0.5163  0.0112
12519TIP3    H259049   6.047   1.865  14.354  2.0175 -1.9989 -1.2720
12520TIP3   OH259050   6.711   3.162  16.867 -0.3490  0.1502  0.2031
12520TIP3    H159051   6.786   3.219  16.849 -1.3778  0.9512 -1.9413
12520TIP3    H259052   6.732   3.081  16.820 -0.6672  0.2572 -0.1273
12521TIP3   OH259053   0.356   5.416  11.481  0.2503 -0.0256  0.2914
12521TIP3    H159054   0.316   5.335  11.511  0.2453 -1.2759 -2.7166
12521TIP3    H259055   0.282   5.474  11.464  0.2183  0.4211  1.8366
12522TIP3   OH259056   0.501   4.328   6.612 -0.4310 -0.2662 -0.2624
12522TIP3    H159057   0.426   4.332   6.672 -2.1004  0.9053 -2.2643
12522TIP3    H259058   0.537   4.416   6.613 -0.0289 -0.4279 -0.4159
12523TIP3   OH259059   4.515   5.750   3.595 -0.3113  0.1692  0.3526
12523TIP3    H159060   4.558   5.835   3.600  0.1992 -0.0373 -0.4201
12523TIP3    H259061   4.424   5.770   3.578 -0.0290  0.5488 -0.7795
12524TIP3   OH259062   2.420   0.312   0.379  0.5523 -0.0337 -0.4605
12524TIP3    H159063   2.493   0.267   0.422 -0.7333 -1.3825  0.4337
12524TIP3    H259064   2.353   0.244   0.369 -1.4931  1.6410  0.9357
12525TIP3   OH259065   1.885   6.597  15.911  0.1787  0.1778 -0.0488
12525TIP3    H159066   1.965   6.627  15.869  0.3402 -0.7202 -0.4146
12525TIP3    H259067   1.885   6.639  15.997  1.1790 -0.0135  0.0573
12526TIP3   OH259068   5.194   1.259  12.558  0.5992 -0.8258 -0.4575
12526TIP3    H159069   5.121   1.201  12.536 -0.6446 -0.2515  1.8168
12526TIP3    H259070   5.185   1.274  12.653  2.4509  0.9394 -0.4930
12527TIP3   OH259071   4.000   4.364  12.481 -0.4355  0.1627  0.3615
12527TIP3    H159072   3.950   4.338  12.404 -1.2696  0.6663  0.7112
12527TIP3    H259073   3.979   4.297  12.547 -1.0155  0.6098  0.6445
12528TIP3   OH259074   5.407   1.932   5.639 -0.1458 -0.2542  0.5946
12528TIP3    H159075   5.479   1.904   5.695  0.1169  1.2385  1.0445
12528TIP3    H259076   5.450   1.969   5.562 -0.4786 -0.8485  0.1116
12529TIP3   OH259077   3.454   5.119  15.642  0.0394  0.3594  0.2184
12529TIP3    H159078   3.515   5.151  15.575 -1.6147  1.0822 -1.0300
12529TIP3    H259079   3.465   5.180  15.715  0.9847  0.3079  0.1408
12530TIP3   OH259080   2.820   0.445  16.939 -0.2947 -0.0570  0.5405
12530TIP3    H159081   2.728   0.437  16.961 -1.0664 -1.5191 -2.7026
12530TIP3    H259082   2.826   0.527  16.890 -0.7277 -1.6236 -2.3671
12531TIP3   OH259083   5.950   2.655   5.275  0.0142  0.2753 -0.4299
12531TIP3    H159084   5.871   2.708   5.284 -0.0995 -0.0383  0.4707
12531TIP3    H259085   5.981   2.673   5.186  0.6673  2.8349  0.2241
12532TIP3   OH259086   0.839   1.165  15.850 -0.4342 -0.7217 -0.8260
12532TIP3    H159087   0.901   1.118  15.795 -1.6180 -1.2969 -1.7182
12532TIP3    H259088   0.891   1.233  15.892  0.8670 -1.4288 -1.2332
12533TIP3   OH259089   3.438   2.393   3.935  0.3793  0.0857 -0.4559
12533TIP3    H159090   3.477   2.410   4.021  0.8257  0.6323 -0.7596
12533TIP3    H259091   3.452   2.474   3.886  0.4660 -0.3564 -1.1725
12534TIP3   OH259092   0.501   3.646   0.276 -0.2587 -0.4344  0.5266
12534TIP3    H159093   0.450   3.612   0.350  1.1758 -0.6992  1.4358
12534TIP3    H259094   0.575   3.587   0.269  0.3940  0.4444 -0.2049
12535TIP3   OH259095   3.316   0.026   4.859 -0.6629  0.5250  0.0302
12535TIP3    H159096   3.411   0.041   4.850 -0.2058 -1.5974  0.8330
12535TIP3    H259097   3.286   0.098   4.914  0.9898 -0.1889  1.9856
12536TIP3   OH259098   5.453   3.749  12.940 -0.2783 -0.6023  0.4119
12536TIP3    H159099   5.444   3.843  12.929 -1.3459 -0.9034 -1.8101
12536TIP3    H259100   5.518   3.723  12.875 -0.5341 -1.4940  0.4955
12537TIP3   OH259101   0.799   1.856   0.679  0.0284  0.7017  0.0853
12537TIP3    H159102   0.775   1.843   0.588 -0.9924  0.3791  0.3902
12537TIP3    H259103   0.742   1.797   0.728  0.4663  0.9698  0.9471
12538TIP3   OH259104   4.372   2.051   4.631 -0.1279  0.2888 -0.6301
12538TIP3    H159105   4.391   2.042   4.724 -0.0971  1.5413 -0.5014
12538TIP3    H259106   4.304   1.985   4.614 -0.9861  0.8376  0.5275
12539TIP3   OH259107   6.285   1.995   5.293 -0.0763  0.3482 -0.0335
12539TIP3    H159108   6.208   1.948   5.261 -0.0552 -0.5314  1.1118
12539TIP3    H259109   6.308   2.055   5.222 -1.4142  0.1640 -0.6612
12540TIP3   OH259110   1.204   4.300   0.506 -0.0436  0.5322 -0.1140
12540TIP3    H159111   1.261   4.358   0.457  1.6725 -1.4612 -0.6082
12540TIP3    H259112   1.182   4.350   0.585  2.3580  1.4340  0.0808
12541TIP3   OH259113   1.054   6.493  11.533  0.1166  0.5113  0.7553
12541TIP3    H159114   0.985   6.433  11.505 -0.2089  0.3551  1.8509
12541TIP3    H259115   1.053   6.562  11.467 -0.3054 -0.0744  0.1272
12542TIP3   OH259116   0.830   0.980   1.279 -0.6244 -0.4014 -0.3341
12542TIP3    H159117   0.868   1.068   1.274 -0.3339 -0.3296  1.9662
12542TIP3    H259118   0.765   0.978   1.209 -0.0847  1.3580 -0.9396
12543TIP3   OH259119   5.151   2.003  15.819  0.1037 -0.4069 -0.5906
12543TIP3    H159120   5.095   1.942  15.770 -1.0655  0.8968 -0.9454
12543TIP3    H259121   5.101   2.021  15.899  0.1172  0.5817 -0.7957
12544TIP3   OH259122   0.864   0.617  13.837 -0.5115  0.2288 -0.0819
12544TIP3    H159123   0.924   0.593  13.766  0.4579  3.0389 -0.3347
12544TIP3    H259124   0.916   0.603  13.917  0.1323  1.5833 -0.2388
12545TIP3   OH259125   3.605   2.246  12.339  0.1371 -0.1598  0.0877
12545TIP3    H159126   3.697   2.261  12.320 -0.1076  0.3869 -0.7241
12545TIP3    H259127   3.583   2.167  12.290  0.6335 -1.4329  1.8233
12546TIP3   OH259128   6.603   0.391   1.031  0.0242  0.0448 -0.4209
12546TIP3    H159129   6.611   0.481   1.000 -2.8864  0.7636  0.6152
12546TIP3    H259130   6.692   0.368   1.059  1.0985  2.1262 -1.8113
12547TIP3   OH259131   3.556   1.052  11.901 -0.5802  0.0105  0.3749
12547TIP3    H159132   3.537   0.989  11.971 -0.1438 -0.0122  0.4782
12547TIP3    H259133   3.619   1.006  11.844 -1.5692 -0.2870 -0.5068
12548TIP3   OH259134   6.149   6.398   3.011  0.9037 -0.2946  0.2051
12548TIP3    H159135   6.091   6.336   2.966  1.0207 -2.0135  2.2651
12548TIP3    H259136   6.211   6.426   2.944  0.5154 -2.0293 -0.9348
12549TIP3   OH259137   1.839   4.348  16.777 -0.3262  0.1420  0.0580
12549TIP3    H159138   1.890   4.426  16.758 -0.9445  0.5409  0.0105
12549TIP3    H259139   1.867   4.284  16.711 -0.2234  0.5082 -0.2527
12550TIP3   OH259140   1.630   4.004  15.239  0.2593 -0.1854  0.2230
12550TIP3    H159141   1.699   4.070  15.228 -0.8927  1.1860  0.9840
12550TIP3    H259142   1.595   4.020  15.326  0.9010 -2.7772  1.0510
12551TIP3   OH259143   3.220   0.947   2.832 -0.1699  0.4462  0.7023
12551TIP3    H159144   3.306   0.917   2.803 -0.4800  0.0957  0.1263
12551TIP3    H259145   3.207   1.029   2.784  0.0298  0.7310  1.1289
12552TIP3   OH259146   0.099   0.251   1.843  0.3501 -0.3326 -0.0082
12552TIP3    H159147   0.130   0.286   1.927  0.3582 -2.6425  1.0282
12552TIP3    H259148   0.174   0.259   1.784  1.0617 -0.6280  0.8374
12553TIP3   OH259149   5.526   6.521  13.713 -0.6980 -0.3182 -0.3022
12553TIP3    H159150   5.517   6.583  13.786 -0.4986 -0.1931 -0.3834
12553TIP3    H259151   5.610   6.479  13.728  0.8158  1.8569 -2.0928
12554TIP3   OH259152   0.054   0.506   3.188  0.0846 -0.3995  0.0183
12554TIP3    H159153   0.129   0.561   3.210 -0.2649  0.3852 -0.7055
12554TIP3    H259154   0.060   0.493   3.093 -1.3719  0.7286 -0.2671
12555TIP3   OH259155   5.417   6.319  16.637  0.0292 -0.1280 -0.0818
12555TIP3    H159156   5.511   6.333  16.622  0.2742 -0.5156  0.9776
12555TIP3    H259157   5.412   6.286  16.727 -1.1931  0.5854  0.1306
12556TIP3   OH259158   3.215   2.584  11.195 -0.0799  0.3568 -0.5048
12556TIP3    H159159   3.257   2.654  11.245 -0.0057  0.0205 -0.0944
12556TIP3    H259160   3.131   2.569  11.239  1.1932 -1.9699  1.3985
12557TIP3   OH259161   6.432   4.695  14.010  0.1830 -0.2394  0.1422
12557TIP3    H159162   6.395   4.691  13.922  0.9313 -0.9240 -0.1535
12557TIP3    H259163   6.526   4.710  13.996  0.0742  1.3210  0.8759
12558TIP3   OH259164   4.604   1.809  13.743 -0.2143 -0.1469  0.0632
12558TIP3    H159165   4.578   1.859  13.821  1.9817  1.1440  0.0447
12558TIP3    H259166   4.536   1.829  13.679 -1.6862 -0.6734  1.3821
12559TIP3   OH259167   0.594   5.446  12.433 -0.4252 -0.1132  0.2667
12559TIP3    H159168   0.660   5.401  12.486  0.7109  0.0870 -0.9157
12559TIP3    H259169   0.591   5.535  12.469  0.0755 -0.0829  0.2454
12560TIP3   OH259170   2.713   1.666  15.018 -0.3946 -0.1374  0.1077
12560TIP3    H159171   2.633   1.674  14.967  0.2735  0.8514 -0.8163
12560TIP3    H259172   2.757   1.590  14.982 -0.2669  0.1360 -0.3241
12561TIP3   OH259173   5.840   4.250  12.673  0.3671 -0.4936 -0.0062
12561TIP3    H159174   5.843   4.234  12.767 -0.3206  1.2743  0.3748
12561TIP3    H259175   5.768   4.197  12.641 -0.1094 -0.2735  0.6835
12562TIP3   OH259176   2.314   2.207  16.452  0.0417 -0.5436  0.1701
12562TIP3    H159177   2.374   2.134  16.438  1.6293  0.6096  0.6956
12562TIP3    H259178   2.331   2.267  16.378 -0.4256 -0.1828  0.3499
12563TIP3   OH259179   4.903   1.583   6.402  0.2510  0.3026 -0.0144
12563TIP3    H159180   4.829   1.552   6.455  0.4072  1.9409  1.2734
12563TIP3    H259181   4.862   1.638   6.335 -0.0223 -2.4484 -2.2608
12564TIP3   OH259182   6.436   3.198  14.584 -0.0560  0.1488 -0.1976
12564TIP3    H159183   6.398   3.276  14.624 -0.3542  0.4709 -1.0778
12564TIP3    H259184   6.381   3.126  14.615  1.5687 -0.0862  2.4911
12565TIP3   OH259185   1.190   4.030  16.957  0.7412  1.0959 -0.1296
12565TIP3    H159186   1.142   4.087  17.016  0.2645 -0.3555  0.9450
12565TIP3    H259187   1.146   4.040  16.872 -0.7385  0.6972  0.5639
12566TIP3   OH259188   1.719   1.229   2.601  0.4981  0.1592  0.2437
12566TIP3    H159189   1.814   1.237   2.592  0.4000  0.3527 -0.8040
12566TIP3    H259190   1.691   1.192   2.517 -0.3682  0.2857  0.4719
12567TIP3   OH259191   2.011   4.925  11.951  0.4624  0.1907  0.1809
12567TIP3    H159192   2.039   4.833  11.945  0.1414  0.0649  0.5975
12567TIP3    H259193   1.954   4.937  11.875  0.3471 -0.0139  0.2333
12568TIP3   OH259194   0.274   1.853   5.038  0.4391  0.2200  0.0325
12568TIP3    H159195   0.300   1.790   4.970  0.7066  1.2921 -0.9082
12568TIP3    H259196   0.192   1.890   5.006  0.4370  0.5511  0.4187
12569TIP3   OH259197   1.705   1.519  16.505  0.1587  0.0094 -0.0767
12569TIP3    H159198   1.735   1.428  16.494  1.0620  0.4642 -1.8862
12569TIP3    H259199   1.611   1.515  16.490 -0.3275 -0.9957  2.6732
12570TIP3   OH259200   2.043   6.647   6.266  0.1595  0.7659 -0.3794
12570TIP3    H159201   2.028   6.704   6.341  1.2285  0.4859  0.0507
12570TIP3    H259202   2.117   6.687   6.220 -0.1806  0.6644 -1.0264
12571TIP3   OH259203   6.320   3.115  14.129 -0.1288 -0.3379 -0.4684
12571TIP3    H159204   6.361   3.059  14.196  0.2889  1.4454  0.8358
12571TIP3    H259205   6.237   3.072  14.109 -0.0421 -1.1669  0.8562
12572TIP3   OH259206   3.647   2.808  10.344 -0.3503 -0.1213 -0.3218
12572TIP3    H159207   3.716   2.837  10.284 -1.0456  1.0552 -0.5929
12572TIP3    H259208   3.567   2.812  10.292 -0.6880 -1.1269  0.0921
12573TIP3   OH259209   3.991   1.982   0.145 -0.3268  0.5034  0.6115
12573TIP3    H159210   3.985   1.975   0.050  1.7493  3.3594  0.1482
12573TIP3    H259211   3.937   2.057   0.167 -0.8010 -0.1326  1.7373
12574TIP3   OH259212   2.663   4.873  11.603  0.0021 -0.3597  0.2673
12574TIP3    H159213   2.686   4.812  11.673 -1.1879 -0.6025  0.4681
12574TIP3    H259214   2.719   4.849  11.530  1.2477 -0.1178  1.1223
12575TIP3   OH259215   5.060   3.658   2.367 -0.6546  0.2655 -0.3887
12575TIP3    H159216   5.088   3.583   2.314 -0.3989  1.1456 -1.5327
12575TIP3    H259217   5.132   3.671   2.429 -0.5745 -0.2501 -0.3669
12576TIP3   OH259218   3.561   1.417  12.826 -0.6520  0.4805 -0.0301
12576TIP3    H159219   3.481   1.452  12.866 -0.1166  1.9996 -0.2162
12576TIP3    H259220   3.591   1.487  12.768  1.4446  0.4269  0.8996
12577TIP3   OH259221   6.205   3.899  16.361 -0.3855  0.3960 -0.1454
12577TIP3    H159222   6.125   3.847  16.359 -0.5893  0.4737  2.3459
12577TIP3    H259223   6.220   3.915  16.455  2.7396  0.0708 -0.4912
12578TIP3   OH259224   6.214   1.365   6.389  0.0542 -0.1630  0.6708
12578TIP3    H159225   6.230   1.316   6.470 -1.4952 -0.7710  0.6460
12578TIP3    H259226   6.148   1.430   6.414 -0.3721 -0.2988 -0.0658
12579TIP3   OH259227   0.956   6.737  13.461  0.0827  0.3950  0.7459
12579TIP3    H159228   1.031   6.794  13.480 -0.4171  2.3413 -2.4141
12579TIP3    H259229   0.881   6.795  13.458 -0.6565 -0.5658 -1.4522
12580TIP3   OH259230   6.038   1.812   2.116  0.1537  0.1740  0.1956
12580TIP3    H159231   6.102   1.884   2.115  0.7369 -0.3434  0.0682
12580TIP3    H259232   6.038   1.781   2.207  0.2578  0.0119  0.1391
12581TIP3   OH259233   4.749   0.391  14.643 -0.2174 -0.5109 -0.0003
12581TIP3    H159234   4.721   0.364  14.556 -0.8803 -1.9452  0.6280
12581TIP3    H259235   4.837   0.424  14.630  0.4815 -2.5614 -0.9373
12582TIP3   OH259236   4.151   1.646  16.037  0.3918  0.0241 -0.3965
12582TIP3    H159237   4.210   1.601  16.098 -0.5752  0.5588  0.9717
12582TIP3    H259238   4.190   1.733  16.027 -0.2194  0.4302  0.6300
12583TIP3   OH259239   3.960   3.695   4.012  0.3239 -0.1871  0.3182
12583TIP3    H159240   3.874   3.733   4.028  1.0134  0.9043  1.7122
12583TIP3    H259241   3.946   3.629   3.945 -1.0044  2.4821 -2.2669
12584TIP3   OH259242   0.249   3.443   6.048 -0.0394  0.0417 -0.0173
12584TIP3    H159243   0.177   3.492   6.087 -1.4734 -0.8354 -1.4195
12584TIP3    H259244   0.325   3.466   6.101 -1.5160  0.2532  2.1676
12585TIP3   OH259245   6.383   1.450  13.524  0.5246 -0.9617  0.2292
12585TIP3    H159246   6.318   1.426  13.590  0.6382 -1.9367  0.0026
12585TIP3    H259247   6.464   1.407  13.554  0.4208 -1.9933 -0.8725
12586TIP3   OH259248   1.712   4.279  17.041 -0.3455 -0.3300 -0.3357
12586TIP3    H159249   1.731   4.266  16.948 -2.3245 -1.1929 -0.6698
12586TIP3    H259250   1.625   4.241  17.053  0.2816 -1.1357  2.0915
12587TIP3   OH259251   3.763   4.838  15.703 -0.2736  0.1019 -0.1077
12587TIP3    H159252   3.688   4.860  15.758 -0.0300  1.1830 -0.1861
12587TIP3    H259253   3.839   4.871  15.752 -0.1025  1.6803 -1.3665
12588TIP3   OH259254   5.156   2.519  16.445  0.4384 -0.1493  0.5915
12588TIP3    H159255   5.130   2.611  16.440  0.9850 -0.0507 -1.2846
12588TIP3    H259256   5.134   2.492  16.534 -4.0740  0.4942 -0.1096
12589TIP3   OH259257   1.301   4.958   0.208 -0.0328  0.4306 -0.3838
12589TIP3    H159258   1.217   4.917   0.229 -0.4989  2.5685  2.4300
12589TIP3    H259259   1.361   4.926   0.275  0.6276  1.2515 -0.5760
12590TIP3   OH259260   2.659   3.692   1.536 -0.4736  0.8723  0.0437
12590TIP3    H159261   2.623   3.703   1.449  1.8623 -2.1978 -1.5262
12590TIP3    H259262   2.740   3.743   1.536 -0.3015  0.6065  0.2971
12591TIP3   OH259263   0.825   4.944  12.527 -0.1265  0.1048  0.2958
12591TIP3    H159264   0.858   5.007  12.462  1.2675  0.1654  1.0306
12591TIP3    H259265   0.817   4.862  12.478  2.7724 -0.3404  0.4105
12592TIP3   OH259266   5.404   1.103   5.810 -0.9128  0.1469  0.3375
12592TIP3    H159267   5.485   1.053   5.812 -0.9809  0.0449  1.2525
12592TIP3    H259268   5.362   1.084   5.894 -1.7737  0.3792 -0.0217
12593TIP3   OH259269   5.360   0.707  13.436  0.0316  0.2238 -0.3606
12593TIP3    H159270   5.414   0.658  13.499 -1.6088 -2.0192 -0.5597
12593TIP3    H259271   5.284   0.650  13.420 -0.8167  1.8092 -2.5212
12594TIP3   OH259272   6.586   0.922  11.061  0.0704  0.1261  0.2998
12594TIP3    H159273   6.670   0.890  11.027 -0.1215 -0.7902  0.6599
12594TIP3    H259274   6.521   0.880  11.006 -0.1981 -0.3573  0.9723
12595TIP3   OH259275   5.947   2.444  12.667 -0.4094 -0.5661 -0.2288
12595TIP3    H159276   5.913   2.379  12.606 -2.2533  0.9903 -0.9226
12595TIP3    H259277   5.877   2.508  12.677  0.9214  0.7511  1.3130
12596TIP3   OH259278   0.922   3.769   2.849  0.6254 -0.8471 -0.1236
12596TIP3    H159279   0.895   3.837   2.787  2.1471 -0.4022 -0.3410
12596TIP3    H259280   0.862   3.779   2.924 -0.9085 -1.0673 -1.2719
12597TIP3   OH259281   1.035   1.716  15.475 -0.0019 -0.2157 -0.1602
12597TIP3    H159282   0.985   1.669  15.542  1.7672  0.3605  1.6865
12597TIP3    H259283   1.012   1.808  15.488  1.9599  0.1497  1.2295
12598TIP3   OH259284   6.139   3.558  15.909  0.5636  0.3112 -0.6972
12598TIP3    H159285   6.194   3.483  15.935 -1.3365  0.0668  3.4074
12598TIP3    H259286   6.168   3.629  15.966 -1.8714  0.7618  0.0805
12599TIP3   OH259287   6.536   2.328   0.044  0.1321 -0.1280  0.0748
12599TIP3    H159288   6.481   2.255   0.073 -1.0009  0.9169  0.6351
12599TIP3    H259289   6.626   2.296   0.055 -0.3187 -2.0745 -1.3900
12600TIP3   OH259290   5.095   2.565  16.934 -0.3019  0.2502 -0.5002
12600TIP3    H159291   5.057   2.626  16.998 -1.3737  0.8102 -1.6193
12600TIP3    H259292   5.142   2.501  16.987 -1.5852  0.3880  0.8836
12601TIP3   OH259293   2.375   6.657   0.636 -0.3560 -0.5781 -0.0195
12601TIP3    H159294   2.336   6.724   0.693 -0.7790  0.9262 -1.9776
12601TIP3    H259295   2.300   6.607   0.603 -0.1053 -1.4936  0.7381
12602TIP3   OH259296   1.380   5.976   2.453  0.0711 -0.3637  0.0477
12602TIP3    H159297   1.338   6.060   2.469  0.2350  0.3530 -2.7993
12602TIP3    H259298   1.308   5.916   2.432 -0.0420 -1.0215  2.0267
12603TIP3   OH259299   3.622   1.210  16.102  0.6057  0.3505 -0.0766
12603TIP3    H159300   3.632   1.284  16.042  1.5617  0.5363  0.2988
12603TIP3    H259301   3.555   1.238  16.164 -0.1247  0.3003 -0.8253
12604TIP3   OH259302   6.443   5.328  14.743 -0.7474 -0.4618  0.4086
12604TIP3    H159303   6.378   5.266  14.776 -0.6737  0.4129  2.3542
12604TIP3    H259304   6.392   5.406  14.721 -0.4217  0.1864  1.8366
12605TIP3   OH259305   1.383   5.242   0.371  0.0506  0.1776 -0.1778
12605TIP3    H159306   1.315   5.213   0.432  1.3521  1.0860  1.7964
12605TIP3    H259307   1.337   5.253   0.288 -1.8377 -0.9332  0.6415
12606TIP3   OH259308   0.401   6.790  14.843 -0.0536 -0.1796  0.3187
12606TIP3    H159309   0.350   6.713  14.819 -1.1200  0.7931 -0.6494
12606TIP3    H259310   0.337   6.854  14.874  0.4357  1.2420 -1.3832
12607TIP3   OH259311   2.295   3.789   3.486  0.0831 -0.2715  0.2965
12607TIP3    H159312   2.246   3.729   3.544  0.2887 -2.4525 -1.6214
12607TIP3    H259313   2.376   3.742   3.466  0.0498  0.4133 -1.6687
12608TIP3   OH259314   2.399   5.149   4.224 -0.2996  0.2723 -0.0791
12608TIP3    H159315   2.334   5.213   4.254 -1.4443 -0.8997  0.0500
12608TIP3    H259316   2.391   5.151   4.128  0.3663  1.0018 -0.1305
12609TIP3   OH259317   6.001   6.327   4.205  0.0862 -0.2968 -0.0025
12609TIP3    H159318   6.058   6.351   4.278 -0.4206  1.3284 -0.0967
12609TIP3    H259319   5.960   6.244   4.231  0.5550 -0.1692  1.1698
12610TIP3   OH259320   6.664   0.125  15.007  0.2318 -0.2584 -0.6804
12610TIP3    H159321   6.687   0.216  14.988 -0.3167  0.3019  1.1917
12610TIP3    H259322   6.661   0.083  14.921 -1.0545  1.8361 -1.7322
12611TIP3   OH259323   3.865   0.283  14.840 -0.8952  0.1883  0.2533
12611TIP3    H159324   3.804   0.357  14.842 -0.2254  0.8296 -1.3593
12611TIP3    H259325   3.920   0.299  14.763  1.2294 -0.4293  1.5421
12612TIP3   OH259326   6.391   2.376  15.745  0.6086 -0.1696  0.3013
12612TIP3    H159327   6.417   2.306  15.804  1.2960  0.8293  1.2250
12612TIP3    H259328   6.326   2.426  15.793 -1.0544 -1.0472 -0.9527
12613TIP3   OH259329   0.660   6.530   3.755 -0.0325  0.0212  0.3082
12613TIP3    H159330   0.576   6.484   3.763 -1.8135  2.5766 -2.0305
12613TIP3    H259331   0.661   6.590   3.830 -0.7808  0.6362 -0.1600
12614TIP3   OH259332   4.113   2.906   5.478  0.0994  0.0847 -0.0309
12614TIP3    H159333   4.033   2.869   5.443 -0.9539  0.9577  1.3467
12614TIP3    H259334   4.096   3.000   5.484  0.7505  0.1420  1.4272
12615TIP3   OH259335   4.971   5.290  17.138  0.2375 -0.3883 -0.7162
12615TIP3    H159336   4.936   5.375  17.166 -2.2415 -1.3454 -0.6607
12615TIP3    H259337   5.050   5.279  17.190  0.3441  1.6642 -0.3573
12616TIP3   OH259338   0.237   6.499   2.694  0.8177 -0.7010  0.3710
12616TIP3    H159339   0.175   6.517   2.623  0.7505 -1.3742  0.2537
12616TIP3    H259340   0.182   6.489   2.771  0.8308 -0.7053  0.3798
12617TIP3   OH259341   1.444   6.609   1.500 -0.0884 -0.2900 -0.1862
12617TIP3    H159342   1.525   6.651   1.528 -0.6021  0.0143  0.8737
12617TIP3    H259343   1.374   6.660   1.542 -0.7421 -2.1471  1.0977
12618TIP3   OH259344   2.067   0.910   1.216 -0.0968  0.0068 -0.1426
12618TIP3    H159345   2.120   0.989   1.208 -0.7387  0.7795  2.5199
12618TIP3    H259346   2.101   0.852   1.147  1.6083  1.8741 -0.9756
12619TIP3   OH259347   3.029   2.344  15.605 -0.3821  0.0357  0.2193
12619TIP3    H159348   2.997   2.339  15.695  0.0883  0.5711  0.4214
12619TIP3    H259349   3.113   2.298  15.606  0.1932  1.0509  0.3353
12620TIP3   OH259350   5.956   0.989   6.474  0.6447  0.2830  0.3811
12620TIP3    H159351   5.944   1.082   6.492 -1.3407  0.4581 -1.4094
12620TIP3    H259352   5.883   0.946   6.519  0.4237 -0.1526 -0.3632
12621TIP3   OH259353   0.123   4.097  17.180 -0.0664 -0.3127 -0.7320
12621TIP3    H159354   0.129   4.061  17.092  0.5798  0.7865 -1.1551
12621TIP3    H259355   0.110   4.021  17.236  1.4453 -1.2299 -1.5731
12622TIP3   OH259356   2.571   2.295   5.473 -0.1456  0.5000  0.1850
12622TIP3    H159357   2.489   2.250   5.452  1.1454 -1.7401 -0.3720
12622TIP3    H259358   2.562   2.382   5.433 -1.7395 -0.1506 -0.9467
12623TIP3   OH259359   5.947   1.655   5.072  0.0125  0.2974  0.1694
12623TIP3    H159360   6.012   1.634   5.138 -0.4701  1.9240  1.2454
12623TIP3    H259361   5.866   1.669   5.122 -1.6279 -3.0865 -1.2408
12624TIP3   OH259362   2.434   6.114   3.342 -0.4493 -0.5428  0.4481
12624TIP3    H159363   2.499   6.082   3.405 -0.1396  0.7239  0.7998
12624TIP3    H259364   2.358   6.136   3.396 -0.2504  0.3740  0.3584
12625TIP3   OH259365   5.843   5.553  14.774 -1.0947 -0.2855 -0.2327
12625TIP3    H159366   5.757   5.541  14.814 -1.0800 -0.4178 -0.2395
12625TIP3    H259367   5.899   5.489  14.818 -1.2919 -1.0844 -1.1005
12626TIP3   OH259368   6.244   2.520  14.295  0.1470 -0.3148  0.0482
12626TIP3    H159369   6.269   2.428  14.303  2.9702  0.2616 -1.0210
12626TIP3    H259370   6.250   2.555  14.384  0.3995 -0.8850  0.2582
12627TIP3   OH259371   1.887   1.972   2.392 -0.0990  0.6578  0.0057
12627TIP3    H159372   1.934   2.025   2.328  0.2318 -0.4544 -0.7239
12627TIP3    H259373   1.835   2.034   2.443  0.7864  1.7205 -0.3613
12628TIP3   OH259374   1.593   6.740   3.169 -0.3892 -0.4175 -0.1192
12628TIP3    H159375   1.583   6.835   3.167 -1.3047 -0.5002  0.0555
12628TIP3    H259376   1.676   6.726   3.215 -0.7677  0.2754  0.8198
12629TIP3   OH259377   2.411   6.322  16.841 -0.1736  0.1363 -0.1770
12629TIP3    H159378   2.421   6.379  16.917 -0.0824  0.2464 -0.2727
12629TIP3    H259379   2.318   6.327  16.819  0.0570  1.2199 -0.9530
12630TIP3   OH259380   5.593   0.627  11.732  0.3038  0.4215  0.3547
12630TIP3    H159381   5.624   0.584  11.652 -0.1905  4.1534 -2.1075
12630TIP3    H259382   5.499   0.609  11.734  0.6883 -1.7422  1.6114
12631TIP3   OH259383   4.314   3.718   0.576  0.0824  0.5694 -0.2649
12631TIP3    H159384   4.238   3.737   0.632 -0.0536  0.8461 -0.5403
12631TIP3    H259385   4.389   3.725   0.635 -0.1099  0.2048  0.0305
12632TIP3   OH259386   3.129   2.392  12.444  0.1936 -0.0335  0.2130
12632TIP3    H159387   3.050   2.360  12.488  0.0342  1.6542  1.2716
12632TIP3    H259388   3.188   2.317  12.444 -0.3063 -0.5030  2.1391
12633TIP3   OH259389   2.669   4.808   4.739  0.6420 -0.1520  0.7327
12633TIP3    H159390   2.645   4.727   4.783 -0.9497 -0.0519  0.1167
12633TIP3    H259391   2.585   4.849   4.717  1.3732  0.1819 -1.6914
12634TIP3   OH259392   4.019   3.917   1.673  0.1321 -0.4471 -0.0891
12634TIP3    H159393   4.048   3.905   1.582  0.7522 -0.1519  0.0644
12634TIP3    H259394   4.100   3.936   1.722 -0.2650 -0.0346  0.4238
12635TIP3   OH259395   4.395   1.966   4.906  0.2732  0.2133 -0.6043
12635TIP3    H159396   4.405   2.056   4.938 -1.3259  0.6085 -1.1489
12635TIP3    H259397   4.461   1.916   4.955  1.7152  1.7925 -0.8457
12636TIP3   OH259398   3.720   4.731  15.322  0.6632  0.0832  0.3701
12636TIP3    H159399   3.757   4.673  15.388  1.3561  1.4949  1.2726
12636TIP3    H259400   3.784   4.730  15.251  0.7965 -0.0565  0.4924
12637TIP3   OH259401   4.498   4.713  15.049  0.0009 -0.2533  0.1841
12637TIP3    H159402   4.481   4.691  15.141  3.5931  1.1719  1.3631
12637TIP3    H259403   4.466   4.803  15.040 -1.8010 -0.9289 -0.4919
12638TIP3   OH259404   0.558   0.862  12.114 -0.4083 -0.7542  0.4214
12638TIP3    H159405   0.544   0.896  12.203 -2.4516 -0.6576  0.1038
12638TIP3    H259406   0.575   0.940  12.062  1.2810 -0.8467  0.7496
12639TIP3   OH259407   4.665   5.108  11.667  0.2777 -0.2700  0.6482
12639TIP3    H159408   4.665   5.012  11.662  1.6247 -0.3504  1.5519
12639TIP3    H259409   4.627   5.136  11.584 -1.0109 -1.5842  0.7542
12640TIP3   OH259410   0.615   0.798  14.993  0.0756 -0.1247 -0.0704
12640TIP3    H159411   0.534   0.779  14.945 -1.2509  0.9493  1.5864
12640TIP3    H259412   0.683   0.798  14.927 -1.2460 -1.2548 -1.5153
12641TIP3   OH259413   6.009   2.168  11.417  0.9403  0.5286 -0.4975
12641TIP3    H159414   6.068   2.203  11.350  0.2103  3.4590  0.2566
12641TIP3    H259415   5.967   2.245  11.455 -0.6417 -1.2113  1.5406
12642TIP3   OH259416   2.152   5.956  14.932  0.3097 -0.0965 -0.2878
12642TIP3    H159417   2.146   5.901  15.011 -0.3993 -0.2944 -0.4660
12642TIP3    H259418   2.245   5.959  14.912  1.1112  3.3484  2.8910
12643TIP3   OH259419   2.524   1.322  13.823  0.2380  0.4569 -0.3430
12643TIP3    H159420   2.497   1.351  13.910  1.2478  0.2754  0.0492
12643TIP3    H259421   2.590   1.254  13.840 -0.4039 -0.4251 -1.2410
12644TIP3   OH259422   0.660   6.760  16.279 -0.2418  0.8206  0.1140
12644TIP3    H159423   0.750   6.785  16.258  0.0749 -0.6781 -0.3826
12644TIP3    H259424   0.623   6.838  16.321  1.6739  1.0376  1.5278
12645TIP3   OH259425   3.074   5.732  11.784 -0.1799  0.1344 -0.4857
12645TIP3    H159426   3.038   5.644  11.780 -1.3633  0.6067 -0.7460
12645TIP3    H259427   3.136   5.736  11.711  2.0978 -1.3670  1.2280
12646TIP3   OH259428   4.691   4.285   2.455 -0.0891  0.2774  0.2665
12646TIP3    H159429   4.606   4.313   2.422 -0.2940  0.6040  1.0333
12646TIP3    H259430   4.720   4.217   2.394 -0.5983  0.6195 -0.3685
12647TIP3   OH259431   4.618   6.805   5.806 -0.2458  0.2750 -0.4500
12647TIP3    H159432   4.568   6.793   5.725  1.3624  0.5644 -1.5583
12647TIP3    H259433   4.644   6.716   5.831 -0.0484  0.2436 -0.7515
12648TIP3   OH259434   2.937   0.444   2.969  0.0460  0.4121 -0.0258
12648TIP3    H159435   2.900   0.531   2.986 -1.0733  0.1814 -1.1229
12648TIP3    H259436   2.866   0.383   2.988  0.8935 -0.2993  0.9524
12649TIP3   OH259437   1.874   6.645  11.937  0.4161  0.0263  0.5326
12649TIP3    H159438   1.843   6.596  11.861  1.1157 -0.0146  0.2650
12649TIP3    H259439   1.966   6.622  11.944  0.2290 -0.4041  1.7450
12650TIP3   OH259440   1.837   0.294  10.675  1.3751  0.1365  0.1830
12650TIP3    H159441   1.930   0.293  10.698  1.5860  1.8288 -0.4057
12650TIP3    H259442   1.800   0.366  10.726  0.2205 -0.9361  0.9160
12651TIP3   OH259443   5.173   1.537   4.741  0.7808  0.7812  0.6319
12651TIP3    H159444   5.168   1.518   4.647 -0.3578 -1.1257  1.0365
12651TIP3    H259445   5.248   1.596   4.749  2.0843 -0.4801 -1.2815
12652TIP3   OH259446   6.745   0.035   6.778  0.4398  0.2352 -0.6698
12652TIP3    H159447   6.664   0.011   6.732 -0.5857  1.3632  0.4517
12652TIP3    H259448   6.767  -0.043   6.829 -0.2617  0.0881 -0.5749
12653TIP3   OH259449   5.157   1.799  12.496  0.2995  0.2006  0.3333
12653TIP3    H159450   5.092   1.854  12.453  0.2726  0.4707  0.7184
12653TIP3    H259451   5.118   1.711  12.495  0.5695  0.0855 -0.7397
12654TIP3   OH259452   3.606   1.504   3.477  0.3492  0.3950  0.5079
12654TIP3    H159453   3.582   1.429   3.530  0.7305 -0.4772 -0.5051
12654TIP3    H259454   3.539   1.570   3.495 -1.5485 -1.1501 -0.5647
12655TIP3   OH259455   3.878   1.600  16.013  0.2018 -0.6910  0.8669
12655TIP3    H159456   3.871   1.537  15.941  1.8670 -0.4959  0.5039
12655TIP3    H259457   3.971   1.619  16.020 -0.1849  1.1842  1.4652
12656TIP3   OH259458   0.433   1.339   2.182  0.1361 -0.4911 -0.3790
12656TIP3    H159459   0.493   1.268   2.159  0.5646  0.1619 -1.3584
12656TIP3    H259460   0.483   1.419   2.167 -0.3238  0.0297  0.7480
12657TIP3   OH259461   2.463   5.504   6.400 -0.7006  0.6453  0.5120
12657TIP3    H159462   2.404   5.428   6.401  0.8716 -0.7236 -1.8241
12657TIP3    H259463   2.435   5.556   6.475 -2.3469 -1.8577  1.7993
12658TIP3   OH259464   3.807   2.247  11.752 -0.5530  0.0762  0.1321
12658TIP3    H159465   3.724   2.211  11.784 -1.3080 -0.7907 -2.5387
12658TIP3    H259466   3.782   2.327  11.706  0.2105  0.2946  0.0858
12659TIP3   OH259467   5.313   5.941  14.849 -0.2490  0.8385  0.1444
12659TIP3    H159468   5.261   6.010  14.891 -2.3464 -1.1633  1.0702
12659TIP3    H259469   5.313   5.869  14.913  1.6219 -0.1674 -0.8930
12660TIP3   OH259470   1.500   6.196  12.757  0.5281 -0.2658  0.1548
12660TIP3    H159471   1.565   6.174  12.690 -1.4952 -0.1215 -1.9967
12660TIP3    H259472   1.455   6.272  12.721 -0.2436  0.2136  2.0261
12661TIP3   OH259473   0.017   0.941   1.468 -0.3516 -0.6195 -0.1891
12661TIP3    H159474   0.110   0.924   1.456 -0.3794 -0.2606 -0.9705
12661TIP3    H259475  -0.021   0.929   1.381 -0.7770  0.7960 -0.2232
12662TIP3   OH259476   3.323   6.327  10.921 -0.0344  0.0292  0.5918
12662TIP3    H159477   3.399   6.366  10.877  0.8671 -0.6756  1.4650
12662TIP3    H259478   3.304   6.248  10.871 -1.6574  1.3316 -0.9823
12663TIP3   OH259479   5.116   4.368   0.182  0.0681  0.2143  0.1669
12663TIP3    H159480   5.126   4.449   0.132 -0.0290 -0.0694 -0.3117
12663TIP3    H259481   5.204   4.347   0.212  0.4412 -0.5677 -1.3768
12664TIP3   OH259482   4.446   4.161   3.581  0.2796  0.3837  0.0797
12664TIP3    H159483   4.523   4.139   3.633 -0.5669  0.3179  1.3481
12664TIP3    H259484   4.421   4.080   3.538  0.7024  0.3191 -0.0417
12665TIP3   OH259485   2.634   1.417  15.759  0.0339  0.9366  0.3550
12665TIP3    H159486   2.695   1.354  15.798  0.8477  1.4702 -0.0224
12665TIP3    H259487   2.548   1.377  15.769  0.3895  0.3879  1.3494
12666TIP3   OH259488   5.608   4.491  11.389 -0.1372  0.1614 -0.0889
12666TIP3    H159489   5.620   4.478  11.295  0.4894 -0.0573  0.0214
12666TIP3    H259490   5.696   4.485  11.426 -0.4175 -0.0592  0.5509
12667TIP3   OH259491   4.750   0.088   1.094  0.1211  0.5080 -0.3758
12667TIP3    H159492   4.717   0.042   1.171  1.8901 -1.5177 -0.7224
12667TIP3    H259493   4.753   0.020   1.026  0.9359  1.6435 -1.5108
12668TIP3   OH259494   0.757   3.193   0.295 -0.1657  0.3770 -0.4057
12668TIP3    H159495   0.850   3.184   0.273 -0.0523  2.5037 -1.0243
12668TIP3    H259496   0.712   3.133   0.235  0.7123  0.2492 -0.9544
12669TIP3   OH259497   3.564   0.444  13.116  0.0304  0.7349 -0.3240
12669TIP3    H159498   3.525   0.413  13.198 -0.2464  0.4159 -0.5734
12669TIP3    H259499   3.622   0.373  13.089  0.1517  0.8576 -0.3864
12670TIP3   OH259500   1.528   2.381  15.217  0.0184 -0.5429  0.2860
12670TIP3    H159501   1.537   2.401  15.310  1.5125  0.9015 -0.1184
12670TIP3    H259502   1.521   2.466  15.174 -1.5560 -1.2027 -0.8853
12671TIP3   OH259503   1.709   6.441  14.509  0.0089  0.1058 -0.2493
12671TIP3    H159504   1.783   6.381  14.505  1.1775  1.5016 -0.2926
12671TIP3    H259505   1.731   6.502  14.579 -1.3784  0.2270  0.1202
12672TIP3   OH259506   1.587   0.122  14.964  0.5829 -0.3736  0.6442
12672TIP3    H159507   1.524   0.132  15.035 -0.2877 -1.8883  0.1288
12672TIP3    H259508   1.533   0.115  14.885  1.5186  0.9633 -0.1730
12673TIP3   OH259509   6.435   4.187  10.611 -0.3116  0.2469 -0.3865
12673TIP3    H159510   6.503   4.182  10.544 -0.5968  1.0559 -0.7522
12673TIP3    H259511   6.421   4.097  10.639 -0.3059 -0.1237 -1.5371
12674TIP3   OH259512   0.181   4.144   5.350 -0.4452  0.5559  0.5684
12674TIP3    H159513   0.121   4.074   5.374 -0.4899  0.0108 -0.9983
12674TIP3    H259514   0.268   4.105   5.359 -0.3242  1.1825  2.3388
12675TIP3   OH259515   2.549   1.230  10.014 -0.3939  0.7653  0.5931
12675TIP3    H159516   2.528   1.168  10.083 -1.0661  0.8639  0.4889
12675TIP3    H259517   2.481   1.297  10.021  0.1863  1.3662  0.5541
12676TIP3   OH259518   4.533   6.058   0.762  0.1297 -0.4837 -0.0348
12676TIP3    H159519   4.583   6.001   0.703  1.9567  0.6067  0.3871
12676TIP3    H259520   4.580   6.142   0.761 -1.2286  0.3378  1.0426
12677TIP3   OH259521   6.121   5.163  11.462  0.4436 -0.4249 -0.3719
12677TIP3    H159522   6.042   5.198  11.503 -0.0283 -0.9286 -0.8467
12677TIP3    H259523   6.116   5.191  11.371  0.0655 -1.6799 -0.7610
12678TIP3   OH259524   1.932   4.966  10.965 -0.1613  0.6212 -0.1059
12678TIP3    H159525   1.887   4.893  10.922 -0.6152  1.7647 -1.6444
12678TIP3    H259526   2.024   4.939  10.969 -0.2631  0.1012 -0.9815
12679TIP3   OH259527   4.754   4.433  13.604  0.5219 -0.0566  0.0195
12679TIP3    H159528   4.712   4.429  13.690 -1.1556  1.5137 -0.6520
12679TIP3    H259529   4.796   4.519  13.602  0.7226 -0.1680 -0.6605
12680TIP3   OH259530   5.394   4.093  13.517 -0.4806  0.4339  0.5607
12680TIP3    H159531   5.375   4.036  13.443 -0.6712  0.7343  0.3779
12680TIP3    H259532   5.452   4.041  13.573  0.9188  0.7589 -0.5382
12681TIP3   OH259533   2.763   6.320  12.129 -0.2880 -0.2003  0.2247
12681TIP3    H159534   2.798   6.342  12.042 -0.5679  0.0411  0.1705
12681TIP3    H259535   2.741   6.405  12.167  0.8742 -0.2124  0.9877
12682TIP3   OH259536   4.170   0.398  12.722 -0.6320 -0.7575  0.0902
12682TIP3    H159537   4.194   0.314  12.763  1.4535 -0.7245 -0.9080
12682TIP3    H259538   4.212   0.464  12.777  1.0487 -0.6392 -1.2627
12683TIP3   OH259539   6.177   5.349   0.185 -0.1512 -0.3132  0.2588
12683TIP3    H159540   6.108   5.287   0.162  0.3199  0.0098 -2.3946
12683TIP3    H259541   6.230   5.356   0.105 -0.0371  3.2714  0.4691
12684TIP3   OH259542   3.939   6.473  14.755  0.3445  0.9390  0.1277
12684TIP3    H159543   4.018   6.471  14.809 -1.0206  0.4362  2.2129
12684TIP3    H259544   3.966   6.520  14.676  3.5874 -1.9679 -0.7530
12685TIP3   OH259545   6.535   3.997   5.473 -0.3263 -0.6390  0.2672
12685TIP3    H159546   6.442   4.019   5.471 -0.2639 -0.3638 -0.9278
12685TIP3    H259547   6.564   4.011   5.382  0.5254 -2.2275  0.2593
12686TIP3   OH259548   0.386   2.368   0.179 -0.0154  0.5534 -0.1038
12686TIP3    H159549   0.367   2.454   0.141 -1.5082  0.9262  1.3462
12686TIP3    H259550   0.359   2.377   0.271  0.2791 -1.3156  0.1935
12687TIP3   OH259551   1.023   4.290  14.193 -0.2094 -0.3189 -0.4796
12687TIP3    H159552   1.047   4.199  14.172  0.9420 -0.2590  0.4894
12687TIP3    H259553   1.098   4.342  14.164 -0.4765  0.2242 -0.2147
12688TIP3   OH259554   1.786   3.101  14.248 -0.5173 -1.0559 -0.3003
12688TIP3    H159555   1.698   3.066  14.265 -1.4387  1.7085  1.3203
12688TIP3    H259556   1.843   3.054  14.310 -1.4635 -0.6662  0.9140
12689TIP3   OH259557   3.557   1.097   4.426  0.2836 -0.3140  0.0700
12689TIP3    H159558   3.560   1.192   4.436 -2.7620 -0.0270 -0.8266
12689TIP3    H259559   3.645   1.073   4.397  1.6803  1.9530  2.0671
12690TIP3   OH259560   1.373   4.535   4.564  0.2570  0.2082 -0.7599
12690TIP3    H159561   1.384   4.504   4.654 -1.2136  2.3501  0.2358
12690TIP3    H259562   1.458   4.520   4.523  0.6205 -1.8981  0.5956
12691TIP3   OH259563   1.132   6.763   1.416  0.0522  0.0589  0.0622
12691TIP3    H159564   1.080   6.685   1.401  1.6411 -1.1681  0.6352
12691TIP3    H259565   1.176   6.747   1.499  0.8112  1.3338 -0.0676
12692TIP3   OH259566   5.139   0.212   2.585 -0.5436 -0.3347  0.4657
12692TIP3    H159567   5.145   0.250   2.498  0.5106 -0.6400  0.3791
12692TIP3    H259568   5.140   0.117   2.570  1.8388 -0.4475  0.8452
12693TIP3   OH259569   3.082   1.554   5.229  0.4139  0.4389 -0.2759
12693TIP3    H159570   3.012   1.587   5.172 -0.2583  0.4821  0.5584
12693TIP3    H259571   3.096   1.464   5.201 -0.7720  0.0612  0.2827
12694TIP3   OH259572   4.118   3.926   2.205 -0.5136  0.0663 -0.5689
12694TIP3    H159573   4.050   3.888   2.149  0.1605 -0.5317 -0.9893
12694TIP3    H259574   4.127   3.864   2.277 -0.3084  0.0664 -0.5938
12695TIP3   OH259575   6.405   2.325  14.870 -1.7385 -0.0634  0.1361
12695TIP3    H159576   6.321   2.371  14.869 -2.1251 -0.6722  1.6164
12695TIP3    H259577   6.432   2.325  14.962  0.2474  0.7164 -0.3790
12696TIP3   OH259578   0.531   4.646  12.768 -0.0700  0.1688 -0.1910
12696TIP3    H159579   0.457   4.676  12.822 -0.5667  1.8362 -1.7151
12696TIP3    H259580   0.565   4.570  12.815 -0.3528  1.6145  2.5756
12697TIP3   OH259581   1.396   2.838  15.013  0.2119  0.1161 -0.7032
12697TIP3    H159582   1.302   2.852  15.020  0.2340 -0.1074  0.0436
12697TIP3    H259583   1.434   2.895  15.080  0.5462 -0.4950 -0.3671
12698TIP3   OH259584   5.835   6.204   2.530  0.5520  0.0104 -0.6639
12698TIP3    H159585   5.776   6.251   2.588  1.9809 -0.6814  1.4503
12698TIP3    H259586   5.899   6.270   2.502  1.3762 -0.2000  0.6739
12699TIP3   OH259587   6.094   0.182   4.397  0.8172 -0.1129 -0.0181
12699TIP3    H159588   6.181   0.220   4.410  0.8935  0.1298 -1.1038
12699TIP3    H259589   6.065   0.216   4.312 -0.5957  0.2857  0.5905
12700TIP3   OH259590   1.713   1.691   4.478 -0.7896 -0.7833 -0.4362
12700TIP3    H159591   1.768   1.616   4.455 -1.4703 -1.1187 -0.9893
12700TIP3    H259592   1.774   1.754   4.517 -0.0776 -1.2980 -0.7003
12701TIP3   OH259593   6.390   4.595  13.065  0.2798 -0.1492  0.4423
12701TIP3    H159594   6.333   4.521  13.046  1.4246 -0.8978 -0.1907
12701TIP3    H259595   6.452   4.561  13.130  0.5347  0.4016  0.4943
12702TIP3   OH259596   4.634   0.784  16.134  0.3469  0.3871 -0.1231
12702TIP3    H159597   4.687   0.854  16.096 -0.4931  0.7902 -0.5827
12702TIP3    H259598   4.564   0.829  16.182  0.7356 -0.1278  0.9753
12703TIP3   OH259599   4.591   5.417  14.000  0.2225  0.4799  0.2990
12703TIP3    H159600   4.612   5.383  14.087  1.1694  0.6559  0.1531
12703TIP3    H259601   4.662   5.479  13.981 -0.5528  1.2483 -0.1492
12704TIP3   OH259602   3.836   5.383  15.375  0.3982  0.3157 -0.3556
12704TIP3    H159603   3.763   5.373  15.315 -0.4352  0.1580  0.6712
12704TIP3    H259604   3.873   5.295  15.383  1.6221  0.6183 -1.9568
12705TIP3   OH259605   3.774   1.364   0.270  0.1212  0.2347 -0.0477
12705TIP3    H159606   3.838   1.425   0.306 -1.1240  0.6800  1.5482
12705TIP3    H259607   3.822   1.315   0.203  2.1880  0.3654  1.2350
12706TIP3   OH259608   0.428   4.589  16.954  0.1372  0.1393  0.2322
12706TIP3    H159609   0.411   4.683  16.962  3.0405  0.6800  1.1950
12706TIP3    H259610   0.354   4.556  16.903 -0.6167  3.0500 -0.7706
12707TIP3   OH259611   6.678   0.273   2.232 -0.0799 -0.6854  0.4598
12707TIP3    H159612   6.751   0.308   2.283 -0.4886 -0.5906  0.9865
12707TIP3    H259613   6.619   0.348   2.219  1.0060 -0.1496 -1.9964
12708TIP3   OH259614   6.463   1.250   0.721 -0.1531 -0.4296 -0.1079
12708TIP3    H159615   6.407   1.228   0.796  0.9004 -2.9021  0.0600
12708TIP3    H259616   6.428   1.198   0.649  0.9322 -0.7600 -0.4163
12709TIP3   OH259617   1.407   3.161   0.173  0.7979 -0.2117 -0.5927
12709TIP3    H159618   1.497   3.192   0.166  0.3279  0.8380 -3.3330
12709TIP3    H259619   1.355   3.229   0.131 -1.6381  0.3826  3.0109
12710TIP3   OH259620   2.991   5.626  12.259 -0.0292  0.1326  0.3055
12710TIP3    H159621   2.932   5.625  12.335 -0.9877  0.0766 -0.4307
12710TIP3    H259622   2.955   5.693  12.201 -0.5778 -1.2904 -1.0763
12711TIP3   OH259623   5.679   1.474  16.346 -0.6148 -0.0965 -0.3418
12711TIP3    H159624   5.589   1.466  16.380 -0.7720  1.3010 -0.3816
12711TIP3    H259625   5.677   1.427  16.262 -1.1410 -0.5939 -0.0595
12712TIP3   OH259626   3.392   3.802  11.815 -0.5965 -0.0595 -0.2186
12712TIP3    H159627   3.395   3.737  11.745 -1.3044  0.1212 -0.4294
12712TIP3    H259628   3.339   3.873  11.779  2.4322  1.9567 -1.0594
12713TIP3   OH259629   1.441   3.304  17.086  0.1776  0.2160 -0.3439
12713TIP3    H159630   1.486   3.246  17.025  0.6464  0.9096 -0.6833
12713TIP3    H259631   1.512   3.352  17.130 -0.1227 -0.6047  1.1078
12714TIP3   OH259632   6.733   6.591   3.289 -0.1283 -0.6616  0.2641
12714TIP3    H159633   6.764   6.555   3.206  1.0100 -0.5679  0.6343
12714TIP3    H259634   6.733   6.685   3.277  0.1289 -0.6441  0.4052
12715TIP3   OH259635   6.425   1.814  11.786 -0.7163 -0.5554  0.3610
12715TIP3    H159636   6.520   1.802  11.791 -0.4811  0.3719 -1.1293
12715TIP3    H259637   6.392   1.776  11.867  0.8635 -1.4522  0.6417
12716TIP3   OH259638   5.090   2.972   3.347  0.1519 -0.9132  0.3244
12716TIP3    H159639   5.139   2.946   3.269  0.6568  2.0402 -0.4311
12716TIP3    H259640   4.999   2.981   3.316 -0.0604 -1.8646  0.6332
12717TIP3   OH259641   6.212   2.103   0.296  0.1607  0.2764  0.1077
12717TIP3    H159642   6.301   2.136   0.303 -0.2218  1.1512  1.2145
12717TIP3    H259643   6.172   2.154   0.226  0.1661  0.7631  0.4574
12718TIP3   OH259644   6.145   0.448  12.257  0.2610 -0.7002 -0.1033
12718TIP3    H159645   6.098   0.404  12.187  0.5543 -1.2458  0.0330
12718TIP3    H259646   6.172   0.377  12.316  1.4250 -0.4260 -0.2843
12719TIP3   OH259647   5.452   5.827   3.535  0.2101  0.3566 -0.1162
12719TIP3    H159648   5.426   5.835   3.626 -0.6574  0.0800 -0.3331
12719TIP3    H259649   5.373   5.845   3.485  0.1428 -1.4928 -0.7636
12720TIP3   OH259650   4.098   4.950   3.873 -0.2994  0.3076  0.3882
12720TIP3    H159651   4.152   5.015   3.827 -0.2491  0.5227  0.7490
12720TIP3    H259652   4.012   4.956   3.831 -0.1254  0.1727  0.0100
12721TIP3   OH259653   0.314   3.152  14.316 -0.2202 -0.0093 -0.0223
12721TIP3    H159654   0.280   3.223  14.262  0.3281  0.9077  0.7891
12721TIP3    H259655   0.243   3.131  14.377  0.8286  2.5205  2.2713
12722TIP3   OH259656   3.316   2.899   2.147 -1.0249 -0.1298  0.4537
12722TIP3    H159657   3.352   2.824   2.100 -2.3484 -0.4656 -0.0571
12722TIP3    H259658   3.386   2.926   2.206 -0.4114 -1.5625  0.4125
12723TIP3   OH259659   3.982   3.016  14.293 -0.4640  0.5537  0.2244
12723TIP3    H159660   3.961   3.034  14.202  0.7652 -0.2925 -0.2400
12723TIP3    H259661   3.905   2.969  14.326 -1.2594  1.5782 -0.1244
12724TIP3   OH259662   5.539   5.842   6.970 -0.3891  0.0785  0.4761
12724TIP3    H159663   5.610   5.780   6.956  0.6402  1.3691 -0.3487
12724TIP3    H259664   5.460   5.796   6.942  0.4075 -0.6756 -0.6122
12725TIP3   OH259665   0.238   0.492  16.774  0.7084  0.4556  0.0817
12725TIP3    H159666   0.241   0.421  16.838 -0.5887 -0.7463 -1.1345
12725TIP3    H259667   0.291   0.561  16.814  0.1673 -0.3216  2.3208
12726TIP3   OH259668   1.934   2.082  13.305 -0.2337  0.5554  0.1355
12726TIP3    H159669   1.877   2.158  13.304  0.5971  1.2139 -1.7404
12726TIP3    H259670   1.955   2.066  13.213  2.4483  0.2751  0.6987
12727TIP3   OH259671   3.409   6.248  14.928 -0.3424  0.1381  0.4243
12727TIP3    H159672   3.347   6.263  14.857  0.9371 -2.7723 -1.4879
12727TIP3    H259673   3.375   6.171  14.974  1.1414 -0.7438  0.1133
12728TIP3   OH259674   4.098   2.554   4.802  0.4414  0.2950  0.2028
12728TIP3    H159675   4.077   2.633   4.752  1.6518 -1.0458 -2.6593
12728TIP3    H259676   4.188   2.568   4.832  0.4482  0.2685  0.1952
12729TIP3   OH259677   4.201   0.604   0.991  0.4773  0.5924  0.1430
12729TIP3    H159678   4.148   0.639   1.062  2.3403  3.4734  0.3132
12729TIP3    H259679   4.196   0.671   0.923  3.7490  1.0658  0.1961
12730TIP3   OH259680   6.012   4.147  14.269 -0.5813 -0.0702  0.2900
12730TIP3    H159681   6.087   4.201  14.244  0.6296 -1.3842  1.0173
12730TIP3    H259682   5.946   4.211  14.297  0.7476  1.0502  0.9739
12731TIP3   OH259683   3.828   0.518   4.887 -0.1720 -0.5589 -0.1107
12731TIP3    H159684   3.856   0.439   4.934  0.8620 -0.9043 -1.2477
12731TIP3    H259685   3.903   0.577   4.892 -0.0314 -0.6042 -1.2915
12732TIP3   OH259686   4.425   3.435   3.262 -0.6122  0.1548  0.0936
12732TIP3    H159687   4.424   3.352   3.308  1.4757  0.6446  1.1305
12732TIP3    H259688   4.335   3.446   3.229 -1.4422 -1.5133  1.6753
12733TIP3   OH259689   1.061   0.258  12.934  0.3668 -0.0528 -0.1112
12733TIP3    H159690   1.116   0.214  12.869  0.1804  1.7843 -1.5820
12733TIP3    H259691   1.075   0.351  12.919  1.0381  0.5095  3.1453
12734TIP3   OH259692   0.998   4.641  16.660 -0.8959 -0.7862 -0.9218
12734TIP3    H159693   1.082   4.598  16.675 -0.1047  0.9043 -0.2974
12734TIP3    H259694   0.995   4.657  16.566 -0.6697 -1.1385 -0.9920
12735TIP3   OH259695   1.256   1.151  16.368 -0.4657 -0.2600 -0.4438
12735TIP3    H159696   1.324   1.212  16.341 -0.7673 -0.3671 -1.4984
12735TIP3    H259697   1.257   1.155  16.464  1.6197 -0.9172 -0.3785
12736TIP3   OH259698   6.224   2.003  16.405  0.1332  0.1766  0.1917
12736TIP3    H159699   6.192   2.015  16.316 -1.1208 -0.4836  0.5235
12736TIP3    H259700   6.152   1.959  16.451  1.6235 -1.7143  0.9040
12737TIP3   OH259701   3.867   4.576   1.638 -0.0957 -0.1786 -0.0986
12737TIP3    H159702   3.868   4.625   1.721 -0.3428 -0.8541  0.3141
12737TIP3    H259703   3.776   4.549   1.628 -0.0065 -0.3557 -0.4446
12738TIP3   OH259704   2.945   2.705  11.693 -0.3726 -0.4450 -0.4406
12738TIP3    H159705   2.962   2.611  11.687 -1.7775 -0.7520  0.1273
12738TIP3    H259706   2.890   2.714  11.771 -0.0974  0.8765 -0.3819
12739TIP3   OH259707   0.353   3.147  15.131  0.5429 -0.0244 -0.0957
12739TIP3    H159708   0.313   3.224  15.169 -0.9952 -1.4181  1.2398
12739TIP3    H259709   0.437   3.178  15.097 -1.1038  2.7645 -1.9949
12740TIP3   OH259710   3.871   3.244   0.734  0.7508  0.1185 -0.3539
12740TIP3    H159711   3.846   3.165   0.780 -0.6476  1.3468  1.1185
12740TIP3    H259712   3.791   3.276   0.693  1.0530  1.3105 -0.0605
12741TIP3   OH259713   1.161   1.683  14.310  0.1478 -0.5084  0.1317
12741TIP3    H159714   1.189   1.597  14.339 -1.2646 -0.7273  0.8707
12741TIP3    H259715   1.066   1.678  14.304  0.1206  0.6448 -0.9914
12742TIP3   OH259716   0.384   5.004  12.404 -0.2917 -0.0677 -0.3080
12742TIP3    H159717   0.460   5.007  12.463 -1.3247 -0.6259  1.1067
12742TIP3    H259718   0.412   5.051  12.326  1.7267 -0.7921 -0.0730
12743TIP3   OH259719   6.218   6.017   3.564 -0.4835 -0.3662 -0.4262
12743TIP3    H159720   6.204   6.102   3.524  0.6634  0.1220  0.1852
12743TIP3    H259721   6.129   5.987   3.587 -0.9205  0.5164 -0.9218
12744TIP3   OH259722   4.521   2.159  13.527 -0.1541 -0.9305 -0.2774
12744TIP3    H159723   4.525   2.171  13.433 -1.3957 -1.2689 -0.3991
12744TIP3    H259724   4.477   2.074  13.538 -1.7619 -0.0393  0.5858
12745TIP3   OH259725   4.383   4.287   0.931 -0.3542 -0.3833 -0.5687
12745TIP3    H159726   4.457   4.274   0.990 -0.1549 -0.3072 -0.7989
12745TIP3    H259727   4.328   4.352   0.975  0.2368  0.3302 -0.8753
12746TIP3   OH259728   5.762   4.104   6.519  0.2203  0.0833 -0.3456
12746TIP3    H159729   5.765   4.188   6.566  3.4297 -0.4757  0.6776
12746TIP3    H259730   5.687   4.113   6.459 -0.7605  2.8737  1.1149
12747TIP3   OH259731   5.296   5.525  15.180  0.3726  0.1908 -0.2009
12747TIP3    H159732   5.277   5.508  15.088  1.2956 -0.9051 -0.2190
12747TIP3    H259733   5.254   5.453  15.227  0.9148  0.0752  0.1179
12748TIP3   OH259734   3.509   0.966  10.509 -0.7016  0.3996  0.5690
12748TIP3    H159735   3.557   1.048  10.521 -0.7868  1.0079 -2.4423
12748TIP3    H259736   3.524   0.943  10.417 -3.0605 -1.4208  0.5526
12749TIP3   OH259737   4.165   3.230  15.113 -0.2819  0.1384  0.2224
12749TIP3    H159738   4.234   3.241  15.178  0.5697 -1.3611 -0.3676
12749TIP3    H259739   4.187   3.292  15.044 -0.7684  1.2023  0.9979
12750TIP3   OH259740   5.585   1.770   0.073  0.3209 -0.4864  0.2669
12750TIP3    H159741   5.519   1.828   0.034 -0.2039 -1.2144  0.0576
12750TIP3    H259742   5.584   1.792   0.167  0.7288  0.4225  0.0695
12751TIP3   OH259743   1.329   1.270  11.267  0.2960  0.1732 -0.2009
12751TIP3    H159744   1.356   1.186  11.305  0.8165 -0.1311 -1.2203
12751TIP3    H259745   1.306   1.323  11.343  0.7890 -0.6046  0.5183
12752TIP3   OH259746   1.171   4.832   1.001  0.1393  0.5649  0.2900
12752TIP3    H159747   1.100   4.850   1.062 -0.5752  2.1375 -0.9383
12752TIP3    H259748   1.227   4.909   1.006  0.1933  0.6179 -0.8494
12753TIP3   OH259749   3.235   0.629  16.518  0.1737 -0.0377  0.4463
12753TIP3    H159750   3.240   0.535  16.537 -0.4288 -0.1165  0.2293
12753TIP3    H259751   3.273   0.671  16.596 -0.2451 -0.4336  0.8693
12754TIP3   OH259752   2.445   3.437  12.260  0.4485  0.0709  0.1547
12754TIP3    H159753   2.380   3.455  12.192  0.6574  0.6650  0.1026
12754TIP3    H259754   2.517   3.395  12.215  0.4992  0.2767  0.0443
12755TIP3   OH259755   0.278   4.947  14.461  0.0757 -0.3325 -0.6512
12755TIP3    H159756   0.296   4.930  14.368 -0.9992  1.5752 -1.2584
12755TIP3    H259757   0.187   4.976  14.463  0.0131 -0.5574  1.0486
12756TIP3   OH259758   4.491   0.831   6.183  0.2031  0.0737 -0.2448
12756TIP3    H159759   4.414   0.820   6.239  0.5870 -0.0391  0.2685
12756TIP3    H259760   4.470   0.783   6.103  0.8846 -2.4863  1.0126
12757TIP3   OH259761   5.140   4.691   5.501 -0.3680  0.2513  0.0675
12757TIP3    H159762   5.080   4.678   5.574  1.3713  0.7571  1.6582
12757TIP3    H259763   5.128   4.782   5.475 -2.1700 -0.3565 -1.4504
12758TIP3   OH259764   6.525   2.486   0.343  0.3860 -0.2061 -0.2315
12758TIP3    H159765   6.502   2.510   0.432 -1.0534  0.6784 -0.8163
12758TIP3    H259766   6.579   2.407   0.353 -0.9373 -0.9721  1.3419
12759TIP3   OH259767   6.534   0.229  16.759 -0.3868 -0.0280 -0.4261
12759TIP3    H159768   6.599   0.170  16.721 -1.6487 -0.0363 -2.8010
12759TIP3    H259769   6.464   0.171  16.790 -0.0681  0.0698  0.5052
12760TIP3   OH259770   6.640   6.522   5.433 -0.5286  0.1354  0.2028
12760TIP3    H159771   6.693   6.549   5.508  0.6505 -1.3884 -0.0325
12760TIP3    H259772   6.565   6.582   5.434  1.3068  2.6126  0.3699
12761TIP3   OH259773   2.487   1.908  13.335 -0.2018 -0.5490  0.4442
12761TIP3    H159774   2.496   1.842  13.266 -0.2520 -0.5088  0.3990
12761TIP3    H259775   2.497   1.859  13.416  0.9839 -0.4256  0.3905
12762TIP3   OH259776   4.407   4.307   5.171  0.6922  0.2386  0.1208
12762TIP3    H159777   4.405   4.239   5.238  1.4176  1.7770  1.7562
12762TIP3    H259778   4.500   4.328   5.161  0.5332  0.5186 -0.8689
12763TIP3   OH259779   3.994   3.887   1.167 -0.4866  0.3820  0.3696
12763TIP3    H159780   3.899   3.881   1.168 -0.4429 -0.3562  0.7733
12763TIP3    H259781   4.012   3.977   1.141 -1.3025  0.7444  1.0107
12764TIP3   OH259782   6.579   2.820  15.885 -0.0508  0.4571 -0.0492
12764TIP3    H159783   6.535   2.893  15.842  0.8952  0.7774 -0.5201
12764TIP3    H259784   6.658   2.858  15.923  0.7600 -0.4031 -0.8005
12765TIP3   OH259785   6.211   3.364  15.232  0.4273 -0.0079  0.1620
12765TIP3    H159786   6.222   3.451  15.271  0.8534  1.0408 -2.1175
12765TIP3    H259787   6.272   3.364  15.157 -2.5119 -0.6417 -2.4330
12766TIP3   OH259788   2.714   3.856  11.826 -0.3615  0.2676 -0.1344
12766TIP3    H159789   2.796   3.863  11.777 -1.3199 -1.6417 -2.1938
12766TIP3    H259790   2.646   3.869  11.760 -1.7308 -1.3701  0.8636
12767TIP3   OH259791   4.696   0.888  13.192 -0.1646 -0.1964 -1.1339
12767TIP3    H159792   4.708   0.973  13.234 -0.0928 -0.5758 -0.3758
12767TIP3    H259793   4.608   0.861  13.216  0.1104 -0.7116 -0.6666
12768TIP3   OH259794   4.915   3.391   3.881 -0.1432 -0.1721  0.2737
12768TIP3    H159795   4.850   3.461   3.869 -0.7447 -0.4330  1.7718
12768TIP3    H259796   4.893   3.326   3.814  0.7161  1.2328 -1.4592
12769TIP3   OH259797   5.557   3.153  13.351  0.3202  0.2814  0.1198
12769TIP3    H159798   5.476   3.115  13.386  0.2843 -0.0440 -0.3046
12769TIP3    H259799   5.620   3.081  13.354  0.3299  0.2644 -0.4248
12770TIP3   OH259800   4.393   4.207   2.548 -0.1535  0.2320  0.3479
12770TIP3    H159801   4.395   4.249   2.463  0.1598 -0.5363 -0.0367
12770TIP3    H259802   4.306   4.167   2.554 -1.0266  2.1543  1.3452
12771TIP3   OH259803   2.411   1.110   3.237  0.2900  0.1948  0.1977
12771TIP3    H159804   2.461   1.116   3.319 -2.1921  0.0450  1.8205
12771TIP3    H259805   2.320   1.112   3.265 -0.6572 -1.1214 -2.5019
12772TIP3   OH259806   0.941   1.593  11.303 -0.3122  0.3477  0.0704
12772TIP3    H159807   0.874   1.540  11.259 -0.7408  0.0028  1.1111
12772TIP3    H259808   0.910   1.683  11.295 -0.4022  0.2847 -0.2973
12773TIP3   OH259809   4.426   1.099  14.041 -0.1298 -0.2732  0.0730
12773TIP3    H159810   4.399   1.055  14.122  1.5187 -1.9970 -0.2153
12773TIP3    H259811   4.478   1.174  14.070 -1.6130  0.5867  0.5860
12774TIP3   OH259812   2.320   0.235  15.821 -0.5366 -0.1145 -0.3470
12774TIP3    H159813   2.240   0.192  15.790 -1.3675 -0.2677  1.8432
12774TIP3    H259814   2.289   0.312  15.868  0.7447  0.8597 -1.0571
12775TIP3   OH259815   4.532   6.571  11.865 -0.1161  0.0165  0.2748
12775TIP3    H159816   4.589   6.648  11.869  0.6587 -0.4673 -0.9420
12775TIP3    H259817   4.453   6.602  11.820  0.3570  0.0177 -0.5685
12776TIP3   OH259818   4.798   0.231  11.484 -0.0876  0.6236 -0.2786
12776TIP3    H159819   4.773   0.322  11.469  0.7173  1.1083  1.1700
12776TIP3    H259820   4.859   0.211  11.413  1.7611  2.0758  0.7982
12777TIP3   OH259821   1.618   3.921   3.743 -0.1993 -0.1963  0.1963
12777TIP3    H159822   1.674   3.997   3.727  1.4567 -1.5560 -0.9725
12777TIP3    H259823   1.610   3.916   3.838  1.9873 -0.1044  0.4429
12778TIP3   OH259824   0.062   3.859  14.383  0.1484 -0.6730 -0.2931
12778TIP3    H159825   0.139   3.872  14.439 -0.1570  0.3393 -0.0754
12778TIP3    H259826   0.047   3.945  14.343 -1.3887 -0.6083  0.3654
12779TIP3   OH259827   4.488   5.751  10.963  0.6492 -0.1331  0.2155
12779TIP3    H159828   4.496   5.811  11.037  0.8493 -1.8011  1.6036
12779TIP3    H259829   4.394   5.730  10.959  0.7346 -0.5633  0.4293
12780TIP3   OH259830   3.512   2.618  13.853  0.0436 -0.0146  0.1840
12780TIP3    H159831   3.498   2.605  13.759  0.0065 -3.2147  0.5423
12780TIP3    H259832   3.561   2.542  13.882 -1.2693  0.0688  3.0485
12781TIP3   OH259833   3.069   3.146  12.987  0.2592 -0.0582 -1.0823
12781TIP3    H159834   3.107   3.097  13.059 -1.9179 -0.5890 -0.1992
12781TIP3    H259835   3.102   3.235  12.998  1.6792 -0.5953 -0.7654
12782TIP3   OH259836   6.532   2.658   2.049  0.3360  0.2427  0.5999
12782TIP3    H159837   6.523   2.732   2.109  2.0602  0.3383  0.7665
12782TIP3    H259838   6.454   2.664   1.994  1.2457  3.2885 -0.5826
12783TIP3   OH259839   2.417   0.635  15.864  0.6600  0.1536 -0.0657
12783TIP3    H159840   2.367   0.574  15.919 -0.0920 -0.2902 -1.1783
12783TIP3    H259841   2.394   0.609  15.774  0.5770  1.8802 -0.5717
12784TIP3   OH259842   2.490   3.280  12.501 -0.4446  0.1692  0.1569
12784TIP3    H159843   2.406   3.242  12.474  0.0848 -0.9439  0.0407
12784TIP3    H259844   2.516   3.335  12.427 -0.7499 -0.0045 -0.0802
12785TIP3   OH259845   1.584   1.609  12.682 -0.6592  0.2818  0.3578
12785TIP3    H159846   1.679   1.607  12.695 -0.4887  0.9998 -0.6640
12785TIP3    H259847   1.559   1.699  12.704 -0.9581  0.3575 -0.2811
12786TIP3   OH259848   1.845   4.794  15.879  0.2310  0.1773 -0.1335
12786TIP3    H159849   1.889   4.722  15.924  0.2649  0.4923  0.3507
12786TIP3    H259850   1.786   4.752  15.817 -2.3344 -0.4476  2.4972
12787TIP3   OH259851   2.778   0.899   2.967  0.1451 -0.3627  0.9238
12787TIP3    H159852   2.823   0.815   2.956  0.5968 -0.1538  1.1591
12787TIP3    H259853   2.849   0.963   2.973 -0.1043  0.6120 -3.2467
12788TIP3   OH259854   1.044   2.880   1.633 -0.2790 -0.4254  0.4955
12788TIP3    H159855   1.001   2.904   1.551  1.9983  1.9713 -0.1535
12788TIP3    H259856   1.015   2.946   1.696  0.2655 -0.4722  0.8041
12789TIP3   OH259857   3.313   3.620  13.574  0.1464 -0.6760  0.1285
12789TIP3    H159858   3.387   3.570  13.608  0.0934 -0.1636  1.0298
12789TIP3    H259859   3.352   3.685  13.516  0.5302  0.3558  1.5075
12790TIP3   OH259860   4.118   1.239   1.507 -0.2892 -0.0888 -0.7251
12790TIP3    H159861   4.153   1.169   1.562 -0.4533  0.9938  0.7929
12790TIP3    H259862   4.023   1.227   1.511 -0.3524  0.6583  0.1435
12791TIP3   OH259863   5.727   3.954  16.586 -0.0211 -0.2961  0.2430
12791TIP3    H159864   5.729   3.975  16.493  0.4772  1.2245  0.5617
12791TIP3    H259865   5.643   3.988  16.617 -0.0391 -0.4972  0.4207
12792TIP3   OH259866   2.074   2.111   3.089 -0.2335 -0.5294 -0.0427
12792TIP3    H159867   2.129   2.172   3.139  1.1735 -1.2623 -0.6510
12792TIP3    H259868   2.001   2.165   3.059  1.5585  1.2190 -1.5579
12793TIP3   OH259869   3.631   2.723  11.525  0.1813  0.1017  0.2374
12793TIP3    H159870   3.540   2.741  11.502  0.5053  1.1605 -0.2503
12793TIP3    H259871   3.635   2.738  11.620  0.5713  3.4362 -0.1968
12794TIP3   OH259872   2.386   4.411  14.497 -0.3126 -0.0137  0.2416
12794TIP3    H159873   2.315   4.381  14.441  1.1154  0.3088 -1.8488
12794TIP3    H259874   2.446   4.336  14.502  0.1065  0.3283  0.4110
12795TIP3   OH259875   3.998   4.157   2.203  0.4587  0.0493 -0.8181
12795TIP3    H159876   4.041   4.072   2.215  0.5741 -0.1264 -2.3020
12795TIP3    H259877   4.058   4.220   2.241  2.1792 -0.1693 -3.0260
12796TIP3   OH259878   4.532   0.533  12.947  0.4676  0.5820  0.0940
12796TIP3    H159879   4.574   0.582  13.017 -0.8679  1.9247  0.0082
12796TIP3    H259880   4.546   0.441  12.969  1.5495  0.9952  1.1847
12797TIP3   OH259881   1.239   4.918   4.441  0.3592 -0.3398 -0.0970
12797TIP3    H159882   1.207   5.008   4.448  3.8600  1.0195  0.4500
12797TIP3    H259883   1.233   4.883   4.530 -2.5621 -1.3532 -0.6041
12798TIP3   OH259884   3.335   5.574   5.329  0.7156 -0.0518 -0.1694
12798TIP3    H159885   3.328   5.569   5.425 -0.5776 -1.2049 -0.2959
12798TIP3    H259886   3.417   5.529   5.308  0.5048 -0.6693  0.3240
12799TIP3   OH259887   1.915   2.617   4.369  0.0039  0.3992 -0.5228
12799TIP3    H159888   1.929   2.695   4.315  0.5095  0.6963  0.0168
12799TIP3    H259889   1.956   2.546   4.320  0.1726  0.6052 -0.6809
12800TIP3   OH259890   5.812   5.010   1.082 -0.1199  0.0419  0.0156
12800TIP3    H159891   5.788   4.970   1.166  0.1099  0.6968  0.4025
12800TIP3    H259892   5.854   4.939   1.033 -0.4321 -0.4002  0.3782
12801TIP3   OH259893   3.736   2.879   1.794  0.2288 -0.0682  0.3498
12801TIP3    H159894   3.740   2.809   1.729  1.3192  1.2210 -1.0551
12801TIP3    H259895   3.813   2.866   1.849 -0.4597 -0.9062  1.1427
12802TIP3   OH259896   4.337   6.582   2.123  0.7254  0.1477 -0.0742
12802TIP3    H159897   4.315   6.493   2.149 -1.7178  0.2161 -1.5253
12802TIP3    H259898   4.409   6.572   2.061  0.4801 -0.8354 -0.2197
12803TIP3   OH259899   1.452   1.024  11.379  0.0096  0.5846  0.2888
12803TIP3    H159900   1.382   1.013  11.443  0.5581 -1.2357  0.6250
12803TIP3    H259901   1.524   0.970  11.412  0.2297 -0.6300 -1.9872
12804TIP3   OH259902   3.880   3.542  14.339  0.0649  0.4806  0.3247
12804TIP3    H159903   3.788   3.561  14.361 -0.7735 -0.3764 -2.1283
12804TIP3    H259904   3.911   3.490  14.413 -2.1803 -1.1950  0.2027
12805TIP3   OH259905   3.290   5.981   3.207 -0.3881  0.0188  0.1301
12805TIP3    H159906   3.208   6.021   3.237 -0.5520  0.3498 -0.7191
12805TIP3    H259907   3.344   5.975   3.285 -0.3136  2.0158  0.2692
12806TIP3   OH259908   5.993   3.767  14.647  0.4026 -0.2344  0.0580
12806TIP3    H159909   5.900   3.786  14.660  0.1586 -1.3534  0.0265
12806TIP3    H259910   6.022   3.736  14.733  0.3041 -1.5847 -0.3697
12807TIP3   OH259911   1.858   1.582  17.131  0.1707  0.7054 -0.2873
12807TIP3    H159912   1.798   1.637  17.081 -0.5733  0.0275 -0.1534
12807TIP3    H259913   1.803   1.539  17.197  0.2983 -1.8320 -1.6918
12808TIP3   OH259914   2.944   2.960   0.672 -0.5363 -0.1998  0.0191
12808TIP3    H159915   3.002   2.994   0.604  0.7076  1.7929  1.9488
12808TIP3    H259916   2.975   3.001   0.753 -3.1436 -0.9462  1.5193
12809TIP3   OH259917   4.358   2.060   0.827  0.2298 -0.5278 -0.1545
12809TIP3    H159918   4.262   2.059   0.827  0.0557 -2.7806  3.7303
12809TIP3    H259919   4.381   2.113   0.903  2.0524 -0.9150 -0.4034
12810TIP3   OH259920   5.784   6.788   4.561  0.0215  0.1455  1.0521
12810TIP3    H159921   5.739   6.713   4.599  1.0320 -2.0746 -1.7391
12810TIP3    H259922   5.722   6.860   4.569 -2.8817 -2.0527 -0.0158
12811TIP3   OH259923   5.309   5.750   1.131  0.7194 -0.0494 -0.3241
12811TIP3    H159924   5.359   5.745   1.212  0.4739 -0.9738 -0.2211
12811TIP3    H259925   5.367   5.714   1.064  0.4224 -0.5387 -0.3176
12812TIP3   OH259926   3.150   3.914   4.654  0.9444  0.3396  0.4307
12812TIP3    H159927   3.127   3.980   4.589  0.3434 -1.0152 -0.8126
12812TIP3    H259928   3.071   3.903   4.706  1.5138  1.6229  1.6076
12813TIP3   OH259929   2.012   3.618   0.100  0.5516  1.0723 -0.8831
12813TIP3    H159930   2.001   3.688   0.036 -0.7134  0.0928 -1.7964
12813TIP3    H259931   1.954   3.643   0.172 -0.1581  0.8110 -1.3562
12814TIP3   OH259932   3.684   5.303   3.563 -0.4964  0.3948 -0.7133
12814TIP3    H159933   3.749   5.316   3.632 -1.3249 -1.3364  0.4525
12814TIP3    H259934   3.704   5.217   3.527 -2.5172 -0.4743  0.1217
12815TIP3   OH259935   0.483   3.084  13.494 -0.0138  0.2523 -0.1108
12815TIP3    H159936   0.558   3.073  13.553  0.5652  0.0940 -0.8515
12815TIP3    H259937   0.432   3.004  13.504  1.0524 -0.6066 -1.1417
12816TIP3   OH259938   1.133   1.821  16.430 -0.0991  0.3397 -0.4165
12816TIP3    H159939   1.070   1.872  16.480  0.1691  0.2137  0.0590
12816TIP3    H259940   1.081   1.769  16.369 -0.3947  0.9141 -0.6561
12817TIP3   OH259941   5.812   6.729  16.631 -0.1231 -0.2115  0.3415
12817TIP3    H159942   5.819   6.820  16.603  0.2285  0.1438  1.5434
12817TIP3    H259943   5.813   6.679  16.549  2.7630  0.6629 -0.2775
12818TIP3   OH259944   2.114   4.993  15.538 -0.4467  0.4583 -0.0796
12818TIP3    H159945   2.041   4.931  15.543 -0.1727  0.2171  2.3102
12818TIP3    H259946   2.167   4.962  15.465 -1.6655 -0.5977 -0.5559
12819TIP3   OH259947   1.460   2.851  14.526 -0.0056  0.0742  0.6104
12819TIP3    H159948   1.397   2.897  14.581 -0.4143 -1.1957  1.2350
12819TIP3    H259949   1.409   2.824  14.449 -0.0024 -0.1234  0.6763
12820TIP3   OH259950   6.405   6.455  16.271 -0.2487 -0.3495 -0.2466
12820TIP3    H159951   6.410   6.480  16.179  0.4595 -0.1417 -0.1572
12820TIP3    H259952   6.353   6.375  16.272  0.6335 -0.9340 -0.9365
12821TIP3   OH259953   1.373   0.447   0.224 -0.4546 -0.9442 -0.4511
12821TIP3    H159954   1.424   0.416   0.299 -2.0937 -2.7637 -0.0224
12821TIP3    H259955   1.400   0.391   0.152 -0.7261 -0.8942 -0.5924
12822TIP3   OH259956   0.774   3.510   0.003 -0.2633 -0.3082  0.7727
12822TIP3    H159957   0.869   3.498   0.008  0.0570  0.4415 -1.9768
12822TIP3    H259958   0.744   3.505   0.094  2.5143  0.4385  1.8137
12823TIP3   OH259959   3.306   2.982   4.708  0.2398  0.1001 -0.0157
12823TIP3    H159960   3.271   3.037   4.638  1.9001  0.9091 -0.2597
12823TIP3    H259961   3.395   2.959   4.679  0.1557 -1.4230  0.8109
12824TIP3   OH259962   6.516   4.395   2.125 -0.3923 -0.5193  0.4562
12824TIP3    H159963   6.430   4.358   2.146 -1.4450  1.4096 -0.1317
12824TIP3    H259964   6.510   4.418   2.032 -0.4263  2.4028  1.0781
12825TIP3   OH259965   5.596   0.451  16.252  0.0595 -0.4922 -0.0310
12825TIP3    H159966   5.552   0.392  16.190  0.2669  0.0179 -0.6748
12825TIP3    H259967   5.581   0.538  16.217  1.7852 -0.3108 -0.4108
12826TIP3   OH259968   4.807   5.388  13.738 -0.4714  0.1079  0.1689
12826TIP3    H159969   4.731   5.330  13.738  0.2720 -0.9047 -0.8264
12826TIP3    H259970   4.779   5.465  13.688 -0.9066 -0.1698 -0.0134
12827TIP3   OH259971   3.757   6.387  12.841  0.0928 -0.0502 -0.2728
12827TIP3    H159972   3.665   6.407  12.827  0.4304  1.8570 -0.0369
12827TIP3    H259973   3.759   6.292  12.856 -1.4836 -0.6428 -3.0318
12828TIP3   OH259974   6.737   2.909  14.684  0.2010  0.0084  0.1987
12828TIP3    H159975   6.832   2.910  14.677  0.1077 -0.5185 -1.3624
12828TIP3    H259976   6.713   2.817  14.681 -0.2892  0.0269  2.1820
12829TIP3   OH259977   5.115   2.434   1.715 -0.0762 -0.3460  0.3531
12829TIP3    H159978   5.122   2.474   1.801 -1.0610 -1.3525  0.9400
12829TIP3    H259979   5.024   2.404   1.710  0.5017 -2.2070 -0.1453
12830TIP3   OH259980   2.375   4.787   1.865  0.2369 -0.0724 -0.4414
12830TIP3    H159981   2.376   4.708   1.811  1.1506 -1.2438  1.2108
12830TIP3    H259982   2.456   4.833   1.841  0.1518 -0.0864 -0.7610
12831TIP3   OH259983   1.542   5.574   4.883  0.2652 -0.0694  0.7264
12831TIP3    H159984   1.530   5.668   4.896 -0.5872 -0.1005  0.2476
12831TIP3    H259985   1.596   5.547   4.957  0.5960  0.8094  0.8229
12832TIP3   OH259986   0.588   4.458   5.199 -0.2035  0.2475  0.0623
12832TIP3    H159987   0.568   4.382   5.254 -1.4014 -1.0799 -2.0928
12832TIP3    H259988   0.603   4.529   5.261  0.0834 -1.5204  2.1343
12833TIP3   OH259989   4.626   6.505  13.555 -0.4072  0.0575  0.4199
12833TIP3    H159990   4.559   6.574  13.548 -1.7093 -1.1808  0.0660
12833TIP3    H259991   4.634   6.470  13.467  0.1722 -0.3050  0.6104
12834TIP3   OH259992   5.712   6.420  11.544  0.1015  0.3115  0.1152
12834TIP3    H159993   5.648   6.373  11.597 -1.3212 -0.1913 -1.9232
12834TIP3    H259994   5.680   6.510  11.541 -0.0567  0.2476 -0.1982
12835TIP3   OH259995   1.483   3.485   4.602 -0.6454  0.5264 -0.1989
12835TIP3    H159996   1.549   3.443   4.547 -0.4287  0.9955 -0.2990
12835TIP3    H259997   1.495   3.579   4.587 -0.4947  0.6644  0.7566
12836TIP3   OH259998   5.942   4.499  12.887 -0.4910  0.5570  0.5363
12836TIP3    H159999   5.866   4.536  12.842  0.2534  0.5245 -0.7717
12836TIP3    H260000   5.912   4.414  12.918 -0.9126  0.4215 -0.2192
12837TIP3   OH260001   6.728   4.303   3.266  0.1470 -0.3436  0.3170
12837TIP3    H160002   6.712   4.267   3.353  1.9881 -0.6625  0.5688
12837TIP3    H260003   6.714   4.397   3.275  1.4492 -0.2177  1.2844
12838TIP3   OH260004   2.650   1.271  12.090  0.0696  0.5949  0.0582
12838TIP3    H160005   2.606   1.308  12.014  1.1559  1.3927 -0.2178
12838TIP3    H260006   2.727   1.327  12.103  2.7348 -2.4068 -1.3548
12839TIP3   OH260007   3.921   3.945   3.046 -0.1068 -0.1238 -0.0434
12839TIP3    H160008   3.856   4.014   3.032 -1.3473 -1.0406  0.9183
12839TIP3    H260009   3.884   3.868   3.002  0.7739 -0.4484 -0.2441
12840TIP3   OH260010   2.769   3.738  10.922  0.0612 -0.4960 -0.3235
12840TIP3    H160011   2.847   3.687  10.944  0.4078  1.1872  2.8397
12840TIP3    H260012   2.698   3.674  10.920  0.6585 -1.3806  2.4512
12841TIP3   OH260013   6.116   3.156  13.072  0.3794  0.2890  0.2722
12841TIP3    H160014   6.046   3.201  13.119 -0.6172 -1.1377  0.2034
12841TIP3    H260015   6.171   3.117  13.140 -0.3884 -0.7723  0.3069
12842TIP3   OH260016   0.903   2.390  10.990 -0.4441  0.8679 -0.1071
12842TIP3    H160017   0.953   2.369  10.911 -1.5816  2.9114 -1.4340
12842TIP3    H260018   0.856   2.309  11.011  1.8917 -0.5174  0.0950
12843TIP3   OH260019   6.654   1.624  17.132 -0.0408 -0.3260  0.6991
12843TIP3    H160020   6.704   1.563  17.077 -0.9731 -1.5759  1.1731
12843TIP3    H260021   6.569   1.631  17.088 -0.2410 -0.0583  1.1219
12844TIP3   OH260022   4.346   0.125   0.072 -0.6093 -0.0974 -0.1248
12844TIP3    H160023   4.406   0.166   0.134 -1.4044 -0.1943  0.7276
12844TIP3    H260024   4.373   0.159  -0.013 -0.0701  0.7416  0.3650
12845TIP3   OH260025   2.538   6.579   5.106  0.1408 -0.6489  0.0367
12845TIP3    H160026   2.486   6.653   5.138 -0.6304 -0.6225 -1.2425
12845TIP3    H260027   2.621   6.587   5.154 -0.8615 -0.4761  1.8406
12846TIP3   OH260028   3.396   3.597   0.906  0.1045 -0.2012  0.3099
12846TIP3    H160029   3.433   3.685   0.893  1.1367 -0.6534  0.1072
12846TIP3    H260030   3.330   3.589   0.837  1.1361 -0.1897 -0.7012
12847TIP3   OH260031   2.013   4.497   0.846  0.1657 -0.6033  0.0784
12847TIP3    H160032   1.961   4.431   0.892  0.1618 -0.4692  0.2712
12847TIP3    H260033   2.101   4.489   0.883  0.5949 -1.6619 -1.1214
12848TIP3   OH260034   1.114   6.127   5.085 -0.3709  0.2159 -0.4461
12848TIP3    H160035   1.192   6.075   5.104 -0.4462  0.2955  0.1003
12848TIP3    H260036   1.093   6.106   4.994  1.0391  1.2002 -1.0233
12849TIP3   OH260037   6.189   4.749  16.146  0.1539 -0.2728  0.5467
12849TIP3    H160038   6.279   4.732  16.118 -0.0137  0.1064 -0.2478
12849TIP3    H260039   6.148   4.662  16.149  0.5481 -0.4482  0.9458
12850TIP3   OH260040   5.049   6.044  12.420 -0.2718  0.2958 -0.6887
12850TIP3    H160041   5.101   6.124  12.422  0.0586  0.0709  0.0046
12850TIP3    H260042   5.089   5.991  12.351 -0.1041  0.4716 -0.7278
12851TIP3   OH260043   5.511   1.821  15.979  0.1677 -0.1934 -0.2921
12851TIP3    H160044   5.536   1.901  15.933  1.9989  0.6451  2.0102
12851TIP3    H260045   5.432   1.845  16.028 -0.5133 -0.4587 -1.2262
12852TIP3   OH260046   5.073   4.503   4.297 -0.0660 -0.4831  0.1258
12852TIP3    H160047   5.147   4.473   4.244 -1.4927 -0.8616 -1.7867
12852TIP3    H260048   5.009   4.533   4.232 -0.7480  1.9124  1.7908
12853TIP3   OH260049   2.409   4.221  11.428 -0.3061  0.3817  0.5664
12853TIP3    H160050   2.414   4.296  11.368 -1.5008  0.2367  0.2507
12853TIP3    H260051   2.498   4.187  11.433  0.3109  1.9596  0.8940
12854TIP3   OH260052   5.117   4.197  15.951  0.9140 -0.0586  0.3639
12854TIP3    H160053   5.147   4.245  16.028  2.4516 -0.2987 -0.0475
12854TIP3    H260054   5.063   4.259  15.903  0.4268  0.2790  1.3301
12855TIP3   OH260055   3.145   6.078  15.720  0.1480  0.0432 -0.1967
12855TIP3    H160056   3.081   6.026  15.671  0.5213 -2.0332  1.3738
12855TIP3    H260057   3.165   6.152  15.662 -1.5588 -0.7427 -1.9036
12856TIP3   OH260058   4.175   2.584   0.473  0.3550 -0.8292  0.2776
12856TIP3    H160059   4.160   2.620   0.385  1.1795 -2.4812 -0.5975
12856TIP3    H260060   4.090   2.551   0.500 -0.2078  0.8739  0.7107
12857TIP3   OH260061   3.609   3.303  11.751  0.0027  0.0108 -0.3672
12857TIP3    H160062   3.562   3.331  11.673 -1.1323 -1.1757 -0.1451
12857TIP3    H260063   3.663   3.229  11.721  0.0997  0.0060 -0.1815
12858TIP3   OH260064   5.725   5.527   3.961 -0.7461  0.2904 -0.4094
12858TIP3    H160065   5.801   5.583   3.976 -0.6362  0.1457 -0.4140
12858TIP3    H260066   5.760   5.453   3.910 -0.9856  0.4590 -0.8206
12859TIP3   OH260067   3.583   0.139   3.214  0.3102 -0.0615 -0.2617
12859TIP3    H160068   3.508   0.170   3.264  1.7849  2.3843  0.6491
12859TIP3    H260069   3.589   0.199   3.140 -0.8269 -2.6067 -2.6151
12860TIP3   OH260070   4.694   0.706   5.445 -0.2592  0.3157 -0.5154
12860TIP3    H160071   4.709   0.680   5.536  0.2286  1.2428 -0.3168
12860TIP3    H260072   4.624   0.649   5.415  0.3914 -0.8347  0.0637
12861TIP3   OH260073   3.367   1.303   1.230  0.1519  0.2790 -0.0472
12861TIP3    H160074   3.362   1.372   1.296 -1.7427  1.0277 -0.9181
12861TIP3    H260075   3.304   1.237   1.259  2.6501 -1.6996  1.3261
12862TIP3   OH260076   4.331   1.231  17.081  0.5815  0.1571  0.1210
12862TIP3    H160077   4.387   1.203  17.009  1.1202  0.1231  0.5461
12862TIP3    H260078   4.279   1.303  17.044  1.6952  0.9307  0.0307
12863TIP3   OH260079   0.085   3.603   2.197 -0.3148  0.0166 -0.3452
12863TIP3    H160080   0.025   3.666   2.235  0.4468  1.2215 -1.0922
12863TIP3    H260081   0.095   3.536   2.264 -0.4845  1.1187  0.8092
12864TIP3   OH260082   1.409   2.095   4.869  0.0988  0.2140 -0.1542
12864TIP3    H160083   1.440   2.101   4.960 -0.3527  0.9749 -0.0361
12864TIP3    H260084   1.319   2.062   4.877 -0.3975  1.4849 -0.2115
12865TIP3   OH260085   2.080   2.033   1.785 -0.3238  0.2488 -0.5100
12865TIP3    H160086   2.104   2.112   1.833 -1.0275 -1.6422  3.3307
12865TIP3    H260087   2.164   1.989   1.768 -0.1324 -0.2433  1.4372
12866TIP3   OH260088   0.046   6.804   2.566 -0.5113  0.3285 -0.3911
12866TIP3    H160089  -0.024   6.840   2.512 -1.5086 -1.8382 -0.6172
12866TIP3    H260090   0.032   6.710   2.565  2.0708 -0.1367  0.0555
12867TIP3   OH260091   4.847   3.147   5.554 -0.1217  0.6077 -0.2031
12867TIP3    H160092   4.894   3.089   5.615 -0.6093  0.9510  0.5091
12867TIP3    H260093   4.909   3.161   5.482  0.6033  0.4888  0.3845
12868TIP3   OH260094   3.322   3.292   5.967 -0.1276 -0.6283 -0.4155
12868TIP3    H160095   3.335   3.386   5.981 -2.3097 -0.3736  0.2288
12868TIP3    H260096   3.408   3.254   5.983  0.8536  1.2542 -0.8466
12869TIP3   OH260097   0.875   4.316  11.595  0.2207 -0.0330  0.6103
12869TIP3    H160098   0.826   4.286  11.671 -0.2664  1.5589  0.9535
12869TIP3    H260099   0.811   4.362  11.541  0.9372  0.4254  0.1269
12870TIP3   OH260100   2.390   6.593  15.924 -0.4388 -0.1622 -0.5381
12870TIP3    H160101   2.345   6.524  15.972  0.0423  0.8264  1.4657
12870TIP3    H260102   2.453   6.629  15.987  1.7829 -0.1706 -2.6016
12871TIP3   OH260103   2.177   3.537   2.192 -0.3722 -0.1667 -0.5531
12871TIP3    H160104   2.260   3.572   2.159 -1.0866  0.0982 -2.1681
12871TIP3    H260105   2.165   3.455   2.145 -0.5970 -0.6577  0.3428
12872TIP3   OH260106   5.004   1.577   0.382 -0.0996  0.0197  0.0101
12872TIP3    H160107   5.097   1.599   0.378 -0.2899  0.7792 -0.6107
12872TIP3    H260108   4.978   1.598   0.471  0.7938 -2.3141  0.9075
12873TIP3   OH260109   5.957   4.615  16.477  0.0342 -0.3787 -0.0068
12873TIP3    H160110   6.006   4.561  16.415  1.2053 -0.4205  0.9072
12873TIP3    H260111   5.937   4.556  16.550  0.2298  0.0940  0.4402
12874TIP3   OH260112   4.163   0.662  14.256  0.5805 -0.4523  0.6128
12874TIP3    H160113   4.167   0.584  14.312  0.5441 -0.2538  0.8916
12874TIP3    H260114   4.160   0.735  14.317  1.1642 -0.1999  0.3516
12875TIP3   OH260115   0.990   1.248  14.280 -0.1350 -0.1037  0.1355
12875TIP3    H160116   0.900   1.214  14.281 -0.0821 -0.4630 -1.8768
12875TIP3    H260117   0.993   1.304  14.202  1.5238 -0.5453 -0.1513
12876TIP3   OH260118   6.256   2.685  15.612  0.1963  0.0371 -0.2571
12876TIP3    H160119   6.171   2.705  15.650  0.4432  1.5461 -0.4212
12876TIP3    H260120   6.309   2.653  15.685 -0.1560  0.2410  0.0893
12877TIP3   OH260121   1.683   5.662   5.935  0.0027 -0.1536 -0.8398
12877TIP3    H160122   1.683   5.645   6.029  0.4391 -0.2649 -0.8605
12877TIP3    H260123   1.767   5.704   5.918  0.3192 -0.9583 -1.3241
12878TIP3   OH260124   2.759   5.943   2.888  0.1147 -0.2072 -0.5853
12878TIP3    H160125   2.829   5.887   2.922  0.0129  0.0263  0.0219
12878TIP3    H260126   2.680   5.889   2.895  0.0115  0.0213  0.0294
12879TIP3   OH260127   6.131   4.441  12.420 -0.9648 -0.6738 -0.1664
12879TIP3    H160128   6.134   4.472  12.330 -1.1145  0.0388  0.0694
12879TIP3    H260129   6.222   4.440  12.448 -0.9545 -0.5084 -0.1955
12880TIP3   OH260130   6.052   5.843   1.163  0.6445  0.7106  0.1921
12880TIP3    H160131   6.039   5.761   1.211 -2.9401  0.5187 -0.8825
12880TIP3    H260132   6.014   5.910   1.220 -0.5219  0.9507 -0.8358
12881TIP3   OH260133   6.775   3.624  12.920 -0.1056  0.4239  0.1914
12881TIP3    H160134   6.803   3.597  12.832  0.8748  2.5488 -0.1940
12881TIP3    H260135   6.686   3.589  12.928 -1.1881  2.2034 -2.6434
12882TIP3   OH260136   2.323   5.008   3.893 -0.2274 -0.4034  0.3821
12882TIP3    H160137   2.339   5.102   3.901  1.0014 -0.3939 -1.5225
12882TIP3    H260138   2.236   5.002   3.851 -1.8452 -0.2669  3.4660
12883TIP3   OH260139   1.191   6.002   5.374  0.2888 -0.4838  0.1859
12883TIP3    H160140   1.165   5.937   5.309 -0.0263  0.5601 -0.7639
12883TIP3    H260141   1.111   6.053   5.390  0.5976 -0.1538  0.7094
12884TIP3   OH260142   1.286   1.288   5.830 -0.1792 -0.0993 -0.5366
12884TIP3    H160143   1.234   1.343   5.889  0.8799  0.6718 -0.2937
12884TIP3    H260144   1.270   1.324   5.743 -1.6256 -1.1445 -0.7406
12885TIP3   OH260145   5.461   6.055  13.123 -0.6371  0.1291  0.0816
12885TIP3    H160146   5.525   6.101  13.178  1.0563  0.1344 -1.7631
12885TIP3    H260147   5.444   5.973  13.169  0.6774  0.1630  0.6701
12886TIP3   OH260148   0.259   6.707  11.650 -0.1716  0.3848  0.3164
12886TIP3    H160149   0.263   6.718  11.555  0.5036 -0.3693  0.2465
12886TIP3    H260150   0.222   6.619  11.662  2.1222 -0.6156  0.6748
12887TIP3   OH260151   3.531   2.536  11.163 -0.2481 -0.1390 -0.1931
12887TIP3    H160152   3.535   2.578  11.077  1.2200  0.1539 -0.0111
12887TIP3    H260153   3.565   2.602  11.223  1.3347 -1.2766  0.2115
12888TIP3   OH260154   4.814   3.103   3.980 -0.1496 -0.2181 -0.0221
12888TIP3    H160155   4.891   3.135   3.935 -0.1874  1.8243  1.2362
12888TIP3    H260156   4.742   3.120   3.921  0.2296 -1.3554 -0.8476
12889TIP3   OH260157   4.737   2.053   0.191  0.8622 -0.1889 -0.3401
12889TIP3    H160158   4.771   2.106   0.119  1.6635 -0.2906 -0.0386
12889TIP3    H260159   4.800   2.063   0.261 -0.2371  0.4218  0.5983
12890TIP3   OH260160   2.442   5.966   3.109  0.3362 -0.0467 -0.7599
12890TIP3    H160161   2.449   5.985   3.202  0.3184  2.1335 -1.1451
12890TIP3    H260162   2.522   6.003   3.071 -0.2190  0.2007 -1.7447
12891TIP3   OH260163   0.514   3.629  16.117  0.1232 -0.1318 -0.3168
12891TIP3    H160164   0.604   3.622  16.151 -0.1908 -0.6301  0.4228
12891TIP3    H260165   0.523   3.683  16.038  1.2100 -0.9569 -0.7810
12892TIP3   OH260166   6.624   6.606   1.120  0.6382  0.2533 -0.5209
12892TIP3    H160167   6.558   6.536   1.122  0.1603  0.7008 -0.1235
12892TIP3    H260168   6.676   6.588   1.042 -0.9156  0.7516 -1.7267
12893TIP3   OH260169   5.776   3.777   4.556 -0.3762 -0.0855  0.4344
12893TIP3    H160170   5.684   3.800   4.567 -0.1696  0.6400  0.7455
12893TIP3    H260171   5.777   3.682   4.549 -1.4462  0.0180 -2.4492
12894TIP3   OH260172   5.297   4.175  12.602  0.2989 -0.0522 -0.0764
12894TIP3    H160173   5.349   4.254  12.594  0.4108 -0.2741 -2.2096
12894TIP3    H260174   5.317   4.140  12.688  1.2783  1.5166  0.3494
12895TIP3   OH260175   6.646   2.239   1.136 -0.0858 -0.8010 -0.5374
12895TIP3    H160176   6.578   2.184   1.098 -1.8510 -1.8205  3.6008
12895TIP3    H260177   6.706   2.178   1.179  2.2882  0.2338 -2.1496
12896TIP3   OH260178   4.709   4.967  15.613  0.4304 -0.0389 -0.2974
12896TIP3    H160179   4.752   5.048  15.642  0.8137 -0.4341  0.2609
12896TIP3    H260180   4.687   4.983  15.521  1.7125  0.2250 -0.5845
12897TIP3   OH260181   3.600   1.970   0.029 -0.3917 -0.3239  0.7043
12897TIP3    H160182   3.583   2.044  -0.029  0.4028 -0.9565 -0.3670
12897TIP3    H260183   3.649   2.007   0.102  2.1493 -0.1256 -0.9877
12898TIP3   OH260184   6.632   6.194   1.258 -0.0422  0.2277  0.2456
12898TIP3    H160185   6.659   6.239   1.178  0.0391  2.1126  1.2582
12898TIP3    H260186   6.539   6.174   1.243  0.0658  0.2350 -0.4655
12899TIP3   OH260187   3.272   3.443   1.191  0.2945 -0.4440  0.1054
12899TIP3    H160188   3.327   3.514   1.159  1.2201 -0.9949  0.4187
12899TIP3    H260189   3.185   3.462   1.157  0.5985  0.6560 -0.0862
12900TIP3   OH260190   3.273   6.020  11.008 -0.0285  0.5173 -0.4666
12900TIP3    H160191   3.221   6.028  11.089 -1.6075 -0.2872 -1.3552
12900TIP3    H260192   3.298   5.928  11.005  0.6665  0.7026 -0.5307
12901TIP3   OH260193   4.916   6.480  16.737 -0.2876  0.3342  0.2104
12901TIP3    H160194   4.863   6.436  16.804  0.0777  1.3898  1.2248
12901TIP3    H260195   5.006   6.455  16.759 -0.2705 -0.9491 -1.1336
12902TIP3   OH260196   5.040   2.576   6.416  0.6225  0.4561 -0.0098
12902TIP3    H160197   5.017   2.669   6.422  0.2958  0.3238  1.0832
12902TIP3    H260198   5.089   2.558   6.497  0.7958 -0.2923 -0.2726
12903TIP3   OH260199   0.493   1.886  13.284  0.6124  0.3217 -0.0891
12903TIP3    H160200   0.518   1.964  13.334  0.8103  0.8132 -0.9374
12903TIP3    H260201   0.573   1.834  13.280  1.5305  1.7733 -2.5821
12904TIP3   OH260202   5.563   6.827  10.583 -0.7605 -0.3049  0.1813
12904TIP3    H160203   5.550   6.890  10.654 -1.2194 -0.0481 -0.1325
12904TIP3    H260204   5.639   6.775  10.612 -0.7599 -0.0135  0.7229
12905TIP3   OH260205   2.899   5.788   4.732 -0.5784 -0.0850 -0.2085
12905TIP3    H160206   2.903   5.858   4.797 -1.6170 -0.8360  0.7128
12905TIP3    H260207   2.988   5.754   4.727 -0.7416 -0.9643  1.9427
12906TIP3   OH260208   5.680   4.458   2.190  0.0522 -0.4511 -0.2206
12906TIP3    H160209   5.668   4.508   2.109 -0.4275 -0.3245 -0.0710
12906TIP3    H260210   5.592   4.448   2.225  0.4055  1.0080  1.1973
12907TIP3   OH260211   0.480   1.117  14.049 -0.2740 -0.2558  0.2910
12907TIP3    H160212   0.470   1.122  14.144  2.4224 -0.1249  0.6484
12907TIP3    H260213   0.472   1.024  14.029 -0.1374 -0.3712  0.7669
12908TIP3   OH260214   3.500   0.852   4.041 -0.1343  0.6748  0.1592
12908TIP3    H160215   3.415   0.836   4.001  0.4810 -0.4708 -0.7625
12908TIP3    H260216   3.481   0.871   4.133 -1.3996  0.8945 -0.1395
12909TIP3   OH260217   3.925   6.588  13.440  0.2163  0.9759 -0.3297
12909TIP3    H160218   3.842   6.588  13.487 -1.0548 -1.7705 -2.3338
12909TIP3    H260219   3.924   6.670  13.391 -0.7737  1.4868  0.4942
12910TIP3   OH260220   4.854   2.336  15.286  0.0540 -0.0264 -0.1701
12910TIP3    H160221   4.941   2.363  15.316 -0.0976  0.1272  0.1312
12910TIP3    H260222   4.794   2.399  15.325 -0.1469  0.1822 -0.7999
12911TIP3   OH260223   4.731   4.967  14.226  0.2622  0.1947 -0.0871
12911TIP3    H160224   4.818   4.934  14.245  0.0748  0.9785  2.5325
12911TIP3    H260225   4.673   4.920  14.285 -0.3144  3.2682  2.0576
12912TIP3   OH260226   4.426   5.574  15.024 -0.0080  1.2279  0.2070
12912TIP3    H160227   4.408   5.580  14.930 -0.5570  1.4739  0.3243
12912TIP3    H260228   4.372   5.643  15.063  1.7621  2.4836  0.5060
12913TIP3   OH260229   0.143   5.892   0.580  0.3022 -0.2969 -0.6711
12913TIP3    H160230   0.094   5.878   0.499 -0.2231  0.3534 -0.4735
12913TIP3    H260231   0.121   5.981   0.607 -0.1191 -0.7385  0.5699
12914TIP3   OH260232   1.978   2.886  13.765 -0.2270 -0.5225  0.5432
12914TIP3    H160233   1.978   2.797  13.729  1.6796 -0.4327  0.2152
12914TIP3    H260234   2.045   2.885  13.833 -0.1612  0.6630  0.5257
12915TIP3   OH260235   3.485   1.424   6.028  0.4570 -1.1266 -0.2852
12915TIP3    H160236   3.478   1.508   6.072 -0.2301 -0.7514 -1.0806
12915TIP3    H260237   3.576   1.397   6.041  0.3523 -0.8902  1.0763
12916TIP3   OH260238   4.715   6.768   2.040  0.1260  0.3752 -0.3183
12916TIP3    H160239   4.701   6.839   2.102  1.5042  0.5663 -0.2152
12916TIP3    H260240   4.801   6.785   2.002  0.2196 -0.9068 -0.7258
12917TIP3   OH260241   5.600   5.508   6.262 -0.5206 -0.5479 -0.0678
12917TIP3    H160242   5.601   5.460   6.179  0.8213 -1.0535  0.2084
12917TIP3    H260243   5.650   5.452   6.322 -0.1746  0.5176  0.6639
12918TIP3   OH260244   5.993   5.805  15.061 -0.8903  0.5476 -0.7419
12918TIP3    H160245   6.026   5.716  15.072  1.4488  1.2281 -1.7636
12918TIP3    H260246   5.924   5.797  14.995 -1.4355 -0.6171 -0.0712
12919TIP3   OH260247   6.472   6.594  16.488  0.2267  0.1897  0.0133
12919TIP3    H160248   6.470   6.559  16.400 -0.9272  0.7986 -0.2221
12919TIP3    H260249   6.557   6.637  16.495  1.0524 -1.3499 -0.1843
12920TIP3   OH260250   2.438   2.926  12.856 -0.6410  0.5616 -0.4148
12920TIP3    H160251   2.457   2.909  12.948 -0.9814  1.0399 -0.2467
12920TIP3    H260252   2.397   2.846  12.824  0.9706 -0.2287 -0.6072
12921TIP3   OH260253   0.063   5.943   5.445 -0.1332 -0.7186 -0.2726
12921TIP3    H160254   0.071   5.903   5.358  0.8691  1.2241 -1.1343
12921TIP3    H260255  -0.012   6.003   5.436  0.9160  0.6377 -0.3242
12922TIP3   OH260256   1.181   4.674  16.961  0.1323 -0.0766 -0.0929
12922TIP3    H160257   1.193   4.638  17.049  1.1500 -0.0650 -0.2163
12922TIP3    H260258   1.146   4.762  16.976 -2.0749 -0.9417  0.2159
12923TIP3   OH260259   1.118   4.099  10.527 -0.2201 -0.2389 -0.1043
12923TIP3    H160260   1.033   4.092  10.569 -1.0880  2.0042 -1.3504
12923TIP3    H260261   1.153   4.010  10.530 -2.0356 -0.9801  1.5225
12924TIP3   OH260262   1.131   4.665   3.941  0.1749 -0.1430 -0.0277
12924TIP3    H160263   1.188   4.590   3.925  0.5621  0.2336 -0.4200
12924TIP3    H260264   1.128   4.673   4.036  0.8599 -0.0932 -0.0076
12925TIP3   OH260265   5.869   3.489   3.104  0.7679  0.2199  0.1630
12925TIP3    H160266   5.957   3.461   3.077  0.3317 -0.9398 -0.1134
12925TIP3    H260267   5.885   3.559   3.167  1.9767 -1.1988  1.5426
12926TIP3   OH260268   1.905   0.242  12.653 -0.1386  0.2137  0.1135
12926TIP3    H160269   1.991   0.247  12.695 -1.0303 -1.2912  2.3422
12926TIP3    H260270   1.923   0.234  12.560  2.1339 -0.2915  0.5579
12927TIP3   OH260271   5.997   2.677  15.730  0.1093 -0.1734  0.1013
12927TIP3    H160272   5.972   2.586  15.748 -0.4756 -0.0773 -0.1906
12927TIP3    H260273   5.951   2.699  15.649  0.2708  0.3748  0.1544
12928TIP3   OH260274   0.349   0.604   4.592 -0.0189  0.2783 -0.4001
12928TIP3    H160275   0.418   0.622   4.528  0.6166 -0.3551  0.0994
12928TIP3    H260276   0.268   0.626   4.546  0.2071 -2.3336 -2.3206
12929TIP3   OH260277   0.528   0.076  12.300 -0.3884 -0.4079  0.3236
12929TIP3    H160278   0.558   0.120  12.379  0.8517  0.9639 -0.8366
12929TIP3    H260279   0.438   0.106  12.288  0.0837  1.0158  0.1527
12930TIP3   OH260280   6.728   3.799   4.651 -0.3217 -0.3176 -0.0607
12930TIP3    H160281   6.821   3.820   4.638 -0.7848  1.5519 -0.6139
12930TIP3    H260282   6.721   3.778   4.745  1.0831 -3.1367 -0.4774
12931TIP3   OH260283   2.749   2.069   0.623 -0.0420 -0.4983  0.2157
12931TIP3    H160284   2.802   2.126   0.567 -1.4079 -0.5142 -1.1775
12931TIP3    H260285   2.748   2.113   0.708  2.2194 -0.5592  0.3142
12932TIP3   OH260286   6.588   3.341   1.638 -0.4170  0.6460 -0.2002
12932TIP3    H160287   6.542   3.339   1.722 -0.6557 -1.4690 -0.3274
12932TIP3    H260288   6.519   3.327   1.573 -0.1106  1.4196 -0.7071
12933TIP3   OH260289   6.556   1.914   3.744 -0.0580 -0.1364 -0.1865
12933TIP3    H160290   6.582   1.892   3.833 -0.5048 -1.3565 -0.3452
12933TIP3    H260291   6.462   1.931   3.749 -0.1399 -0.4851 -0.4680
12934TIP3   OH260292   5.271   2.986  11.241 -0.8193  0.2240  0.0793
12934TIP3    H160293   5.304   3.076  11.231 -2.5799  0.8546 -0.3157
12934TIP3    H260294   5.232   2.966  11.156 -0.5356 -0.8985  0.1991
12935TIP3   OH260295   0.669   4.833  15.644 -0.2186  0.0118  0.1112
12935TIP3    H160296   0.678   4.818  15.738  0.9958 -0.0479 -0.0072
12935TIP3    H260297   0.676   4.928  15.635 -0.5614  0.0378  0.0974
12936TIP3   OH260298   5.861   1.600  11.440 -0.0306 -0.5168 -0.1353
12936TIP3    H160299   5.771   1.616  11.469  0.2881 -0.9504  1.1433
12936TIP3    H260300   5.875   1.664  11.370 -0.1867  1.9872  1.9851
12937TIP3   OH260301   1.139   6.577  12.864 -0.0420 -0.5258 -0.2638
12937TIP3    H160302   1.144   6.631  12.786 -0.6359 -0.8233 -0.5132
12937TIP3    H260303   1.223   6.590  12.908 -0.5764  1.4809  0.2877
12938TIP3   OH260304   0.644   1.203   2.095 -0.2868  0.0056 -0.0722
12938TIP3    H160305   0.720   1.215   2.151  0.0038  0.6863 -0.6064
12938TIP3    H260306   0.680   1.196   2.007 -0.8785  0.9893 -0.4061
12939TIP3   OH260307   4.721   4.617  11.556  0.5499 -0.0727  0.7546
12939TIP3    H160308   4.778   4.693  11.564  1.3463 -0.7130  1.3193
12939TIP3    H260309   4.779   4.546  11.527 -0.4730 -0.1171 -1.3486
12940TIP3   OH260310   4.408   5.155   2.760  0.0310  0.4732 -0.5505
12940TIP3    H160311   4.490   5.132   2.716  0.0809 -0.5855  0.0839
12940TIP3    H260312   4.344   5.162   2.689  0.4543  0.3423 -0.9477
12941TIP3   OH260313   4.124   2.874  12.658 -0.2585  0.2353  0.0062
12941TIP3    H160314   4.067   2.921  12.720  0.1083 -2.4083  2.5846
12941TIP3    H260315   4.075   2.874  12.576 -3.0723 -0.1278  1.5538
12942TIP3   OH260316   5.314   4.798   0.893  0.0757 -0.7219  0.9095
12942TIP3    H160317   5.247   4.753   0.946 -0.3019  0.1596  1.2131
12942TIP3    H260318   5.394   4.747   0.907 -0.2922 -1.1811  1.4023
12943TIP3   OH260319   2.972   6.120  13.794  0.4184 -0.5217 -0.1063
12943TIP3    H160320   3.021   6.074  13.862  0.6967 -0.1156 -0.0269
12943TIP3    H260321   3.014   6.206  13.789  0.2855 -0.4876 -0.6660
12944TIP3   OH260322   1.156   1.079  10.872  0.0802  0.6627  0.0316
12944TIP3    H160323   1.086   1.045  10.816  0.1439  2.6438 -1.3728
12944TIP3    H260324   1.236   1.058  10.825  0.2104  1.2896 -0.0346
12945TIP3   OH260325   0.681   2.549   1.127 -1.2925  0.1156 -0.0982
12945TIP3    H160326   0.740   2.573   1.198 -1.6528  0.4082  0.1047
12945TIP3    H260327   0.642   2.467   1.154 -1.2183  0.0831 -0.0890
12946TIP3   OH260328   3.315   0.423  10.284 -0.9071  0.4058 -0.0455
12946TIP3    H160329   3.314   0.405  10.378 -1.4472  1.3333  0.1357
12946TIP3    H260330   3.224   0.443  10.262 -0.8798 -0.3011 -0.8779
12947TIP3   OH260331   2.116   3.125   1.404  0.6788 -0.1052 -0.6211
12947TIP3    H160332   2.203   3.158   1.428  1.5029 -1.0151 -2.2001
12947TIP3    H260333   2.069   3.203   1.375 -0.0316  0.8698  2.7485
12948TIP3   OH260334   0.272   4.329   2.888  0.3425  0.2756 -0.6258
12948TIP3    H160335   0.186   4.287   2.888  0.5092 -0.1898  1.5042
12948TIP3    H260336   0.305   4.316   2.977  2.7745  0.1472 -1.4727
12949TIP3   OH260337   0.519   6.751   1.194 -0.6275 -0.2758 -0.2260
12949TIP3    H160338   0.467   6.673   1.211 -1.3783  0.4704  1.0196
12949TIP3    H260339   0.550   6.779   1.280 -0.4995  0.8858 -0.6242
12950TIP3   OH260340   0.242   6.554  14.783  0.2307 -0.3072 -0.5751
12950TIP3    H160341   0.192   6.526  14.706 -0.5688 -0.5458  0.0225
12950TIP3    H260342   0.314   6.492  14.788  1.0943  0.5074 -1.9083
12951TIP3   OH260343   1.810   1.773   2.209 -0.4781  0.7405  0.0493
12951TIP3    H160344   1.839   1.854   2.252 -1.5229  0.1524  1.9483
12951TIP3    H260345   1.872   1.707   2.237 -0.7589  0.4893  0.0828
12952TIP3   OH260346   5.691   0.138  13.864 -0.1761 -0.5629 -0.2203
12952TIP3    H160347   5.603   0.136  13.901 -0.7578 -2.8874 -1.5572
12952TIP3    H260348   5.750   0.138  13.940 -1.2130  2.6948  0.7446
12953TIP3   OH260349   1.374   4.349  13.090 -0.0496 -0.3103 -0.4858
12953TIP3    H160350   1.382   4.352  13.185 -0.6922 -0.1917 -0.4343
12953TIP3    H260351   1.455   4.389  13.058  0.4103 -0.8345 -0.0006
12954TIP3   OH260352   2.898   2.174   0.162 -0.3651 -0.4216 -0.0409
12954TIP3    H160353   2.880   2.102   0.102 -2.5948 -2.1945  2.5394
12954TIP3    H260354   2.993   2.175   0.170 -0.0347 -0.6509 -2.8118
12955TIP3   OH260355   5.326   1.541  17.047 -0.3064 -0.3351  0.0454
12955TIP3    H160356   5.382   1.477  17.091  0.2855  0.7058  0.8329
12955TIP3    H260357   5.386   1.609  17.016 -1.1322  0.8835  1.0512
12956TIP3   OH260358   2.832   2.509   1.502  0.0646  0.1603  0.0905
12956TIP3    H160359   2.840   2.493   1.408  1.5238  0.5848  0.1237
12956TIP3    H260360   2.860   2.599   1.514  1.6855 -0.4336  1.1394
12957TIP3   OH260361   0.856   4.358   3.102  0.2231 -0.2329  0.5890
12957TIP3    H160362   0.930   4.401   3.146 -0.5355 -0.6367  2.3444
12957TIP3    H260363   0.893   4.278   3.065  0.8041 -0.1141  0.8960
12958TIP3   OH260364   5.099   3.846  11.290  0.3566  0.1088 -0.2326
12958TIP3    H160365   5.067   3.923  11.243  2.0032  1.7532  1.2208
12958TIP3    H260366   5.140   3.792  11.223 -0.6753  0.5375 -1.2461
12959TIP3   OH260367   3.371   2.757   5.463  0.2013  0.3953  0.1849
12959TIP3    H160368   3.357   2.828   5.400  1.1456 -0.0314 -0.5145
12959TIP3    H260369   3.291   2.756   5.515  0.4972  2.5551  0.7902
12960TIP3   OH260370   5.956   4.528  17.051 -0.6851 -0.1275  0.0093
12960TIP3    H160371   5.967   4.612  17.006  0.4278  0.4387  1.2457
12960TIP3    H260372   6.045   4.495  17.061 -1.0063 -0.8202  0.6874
12961TIP3   OH260373   6.772   3.393  13.271  0.1752  0.4121  0.1766
12961TIP3    H160374   6.799   3.467  13.216  0.3628 -1.0980 -1.9103
12961TIP3    H260375   6.832   3.323  13.248 -2.4691 -1.6336 -1.1240
12962TIP3   OH260376   4.819   2.567  14.937  0.4532  0.2230 -0.6184
12962TIP3    H160377   4.848   2.479  14.915 -2.2413 -0.5489 -1.4004
12962TIP3    H260378   4.832   2.574  15.032  3.1668  0.0503 -0.8787
12963TIP3   OH260379   1.598   3.509  10.977  0.1559 -0.1751  0.4863
12963TIP3    H160380   1.685   3.539  11.003 -1.4968  3.7699  2.3294
12963TIP3    H260381   1.573   3.447  11.046  0.2881  1.3019  1.9428
12964TIP3   OH260382   6.224   5.469  13.438  0.3789  0.3266 -0.1655
12964TIP3    H160383   6.179   5.553  13.445 -0.9630 -0.4569  1.1525
12964TIP3    H260384   6.303   5.479  13.492 -0.4185  0.3571  1.0167
12965TIP3   OH260385   1.431   4.513   1.885  0.0653 -0.2231 -0.0094
12965TIP3    H160386   1.458   4.437   1.833 -1.4779 -0.1426 -0.9860
12965TIP3    H260387   1.489   4.584   1.855 -2.1977  0.4358 -3.4774
12966TIP3   OH260388   4.640   6.754   3.923  0.5785  0.1780 -0.3158
12966TIP3    H160389   4.549   6.771   3.947  0.8460  0.5661  0.4643
12966TIP3    H260390   4.651   6.800   3.840  0.4690  1.4374  0.3338
12967TIP3   OH260391   0.504   5.558  13.053 -0.1610 -0.0917  0.0443
12967TIP3    H160392   0.590   5.551  13.094 -0.1403 -0.0661  0.0061
12967TIP3    H260393   0.452   5.610  13.115 -0.2088 -0.2812  0.1608
12968TIP3   OH260394   2.941   3.343   3.616 -0.0680  0.2089 -0.1308
12968TIP3    H160395   3.007   3.375   3.678 -0.1517  0.4180 -0.1515
12968TIP3    H260396   2.985   3.348   3.531  0.4910 -1.2257  0.0331
12969TIP3   OH260397   1.865   2.877   4.524  0.4828 -0.3461  0.7492
12969TIP3    H160398   1.879   2.804   4.585 -0.4323 -1.2367 -0.0538
12969TIP3    H260399   1.952   2.913   4.510  0.8634 -0.8443  1.7035
12970TIP3   OH260400   0.542   0.218  13.156 -0.1554 -0.1537 -0.5375
12970TIP3    H160401   0.497   0.268  13.088 -0.6069  0.8754  0.4908
12970TIP3    H260402   0.480   0.149  13.180  0.3188 -1.0095 -1.6958
12971TIP3   OH260403   0.732   2.568  12.660  0.6348 -0.4744 -0.0437
12971TIP3    H160404   0.731   2.529  12.747  0.3945  0.8809  0.5817
12971TIP3    H260405   0.646   2.610  12.652  1.3379  0.9946 -0.1737
12972TIP3   OH260406   4.104   0.783  12.362  0.5797  0.1352  0.1371
12972TIP3    H160407   4.054   0.758  12.440 -0.0022 -0.0319 -0.2888
12972TIP3    H260408   4.056   0.746  12.289  0.1110  1.8249 -0.4530
12973TIP3   OH260409   5.786   2.353  15.166  0.3513  0.1223 -0.4060
12973TIP3    H160410   5.833   2.329  15.086  0.0910 -0.5406 -0.3649
12973TIP3    H260411   5.730   2.278  15.185  0.8752 -0.0029  0.7575
12974TIP3   OH260412   5.014   2.109  15.371  0.1776  0.3768  0.0324
12974TIP3    H160413   4.939   2.162  15.341  0.1807  1.9307  2.4857
12974TIP3    H260414   4.975   2.040  15.424  0.3550 -0.5757 -1.0346
12975TIP3   OH260415   5.089   1.542  16.909 -0.1906  0.2308 -0.3795
12975TIP3    H160416   5.155   1.534  16.977  1.9328  0.1694 -2.3119
12975TIP3    H260417   5.109   1.625  16.865 -0.2227 -0.6291 -2.1295
12976TIP3   OH260418   2.540   0.755   1.041  0.0148 -0.9706  0.6110
12976TIP3    H160419   2.485   0.752   1.120 -2.1804 -0.2069 -0.8071
12976TIP3    H260420   2.528   0.669   1.000 -0.6699 -0.5890 -0.0176
12977TIP3   OH260421   6.214   1.994  14.725 -0.1922  0.4931  0.1260
12977TIP3    H160422   6.186   1.914  14.771  0.7186 -0.0032 -0.1477
12977TIP3    H260423   6.228   1.966  14.635  1.2649  0.6587  0.2670
12978TIP3   OH260424   5.306   4.606   5.930  0.1252  0.5548 -0.7026
12978TIP3    H160425   5.321   4.699   5.917  0.0219  0.6039 -0.4821
12978TIP3    H260426   5.353   4.585   6.011  1.2735  0.1274 -1.4610
12979TIP3   OH260427   5.800   0.347  12.402 -0.4113 -0.4176  0.0472
12979TIP3    H160428   5.875   0.364  12.346  0.1425 -1.5831  0.4134
12979TIP3    H260429   5.727   0.332  12.341 -0.7014  2.0092 -0.3076
12980TIP3   OH260430   4.247   3.118   0.918 -0.0859 -0.2559  0.3785
12980TIP3    H160431   4.247   3.053   0.847 -0.7309  0.4815 -0.3227
12980TIP3    H260432   4.259   3.201   0.873  1.6622  0.0505  1.3472
12981TIP3   OH260433   1.710   6.759   0.953 -0.4841 -0.0695  0.3004
12981TIP3    H160434   1.754   6.705   0.887 -0.3917  0.2410  0.1078
12981TIP3    H260435   1.687   6.839   0.906 -0.2428  0.2315  0.6987
12982TIP3   OH260436   0.422   2.981   1.301  0.5636 -0.0756  0.1367
12982TIP3    H160437   0.470   3.009   1.379 -0.5844 -1.0593  1.2452
12982TIP3    H260438   0.481   3.002   1.228  1.1323  2.0668  1.1262
12983TIP3   OH260439   0.665   6.810  14.971  0.4561  0.9896 -0.3679
12983TIP3    H160440   0.688   6.717  14.977  0.9675  1.2171  1.5574
12983TIP3    H260441   0.588   6.811  14.913 -2.1514 -1.1588  2.6619
12984TIP3   OH260442   4.970   6.769   1.955  0.3154 -0.2372 -0.1045
12984TIP3    H160443   5.044   6.708   1.955  0.2230 -0.3656  0.8758
12984TIP3    H260444   4.946   6.778   1.863  0.7842 -1.1373 -0.3234
12985TIP3   OH260445   0.733   1.118   5.740 -0.4534  0.1111 -0.3192
12985TIP3    H160446   0.705   1.159   5.822  0.3066  0.2203 -0.1048
12985TIP3    H260447   0.731   1.024   5.759 -0.5352  0.1255 -0.2574
12986TIP3   OH260448   6.168   4.678  13.581  0.3473  0.2315  0.2472
12986TIP3    H160449   6.243   4.639  13.536  1.4922  1.0020  1.4342
12986TIP3    H260450   6.137   4.746  13.521  1.5745  0.9489  0.4087
12987TIP3   OH260451   3.152   0.663   1.766 -0.6336 -0.1174  0.3692
12987TIP3    H160452   3.230   0.698   1.809  0.4024 -1.7752 -0.0930
12987TIP3    H260453   3.103   0.621   1.836 -0.8245  0.3878  0.5480
12988TIP3   OH260454   2.170   3.718  12.289 -0.2038 -0.1718 -0.0208
12988TIP3    H160455   2.152   3.797  12.238 -0.1486 -0.4401 -0.4646
12988TIP3    H260456   2.084   3.684  12.312 -0.2266  0.4588  0.8784
12989TIP3   OH260457   6.138   3.729   5.775  0.2292 -0.6344 -0.3065
12989TIP3    H160458   6.200   3.765   5.838  1.3314 -2.1179 -0.4868
12989TIP3    H260459   6.109   3.646   5.814 -0.3484 -0.7732 -1.0032
12990TIP3   OH260460   2.535   2.933   0.960 -0.0151  0.2121  0.4308
12990TIP3    H160461   2.470   3.003   0.971 -0.1451  0.2596 -0.6045
12990TIP3    H260462   2.483   2.853   0.951  0.0808  0.1894  0.0658
12991TIP3   OH260463   6.276   2.805   5.835  0.2859 -0.5075 -0.2095
12991TIP3    H160464   6.201   2.746   5.833 -1.5084  1.4906  2.3306
12991TIP3    H260465   6.263   2.863   5.759  0.3534 -1.3334 -0.8713
12992TIP3   OH260466   3.801   0.349   3.589  0.1009  0.4739 -0.4515
12992TIP3    H160467   3.786   0.437   3.623 -0.3559  0.5931 -0.9366
12992TIP3    H260468   3.866   0.361   3.519 -0.3771  0.5195 -0.8987
12993TIP3   OH260469   0.178   1.291  11.036  0.5911  0.3744  0.5238
12993TIP3    H160470   0.174   1.361  11.101  2.0990  1.8808 -0.8962
12993TIP3    H260471   0.148   1.331  10.955  2.5843 -0.2081 -0.5905
12994TIP3   OH260472   4.996   5.859   1.530  0.5199 -0.4004  0.0287
12994TIP3    H160473   5.056   5.795   1.493  0.0895  0.3797 -2.2051
12994TIP3    H260474   5.004   5.935   1.472 -0.3517  0.8806  1.4962
12995TIP3   OH260475   1.133   0.381   2.347  0.0507 -0.0112 -0.7821
12995TIP3    H160476   1.192   0.353   2.416 -0.3083  2.2743  0.5437
12995TIP3    H260477   1.046   0.356   2.378 -0.3978  3.1013  0.9176
12996TIP3   OH260478   5.702   5.635   6.500 -0.1486  0.1959 -0.0320
12996TIP3    H160479   5.783   5.634   6.549 -1.2425 -1.1472  1.8878
12996TIP3    H260480   5.694   5.546   6.465 -1.0503  0.1409  0.2897
12997TIP3   OH260481   5.515   0.503  11.483 -0.1202 -0.3644 -0.2097
12997TIP3    H160482   5.508   0.470  11.393 -2.1365 -1.7982  0.4152
12997TIP3    H260483   5.480   0.592  11.478  1.6618  0.3266 -1.1766
12998TIP3   OH260484   1.499   3.598  13.493  0.4961 -0.2471 -0.4538
12998TIP3    H160485   1.570   3.614  13.430  0.6306  0.4895 -0.1219
12998TIP3    H260486   1.433   3.551  13.443  0.6147  0.3025 -1.1400
12999TIP3   OH260487   2.450   4.399  10.900  0.2739 -0.1003 -0.3216
12999TIP3    H160488   2.480   4.473  10.847  3.0700 -1.1229 -0.3175
12999TIP3    H260489   2.401   4.344  10.838  0.8482  0.2432 -1.1002
13000TIP3   OH260490   5.017   1.164   1.172  0.3249  0.5998 -0.2373
13000TIP3    H160491   5.088   1.141   1.113 -1.3286  2.0851 -2.9908
13000TIP3    H260492   4.954   1.093   1.163  0.1384  0.7427 -0.0696
13001TIP3   OH260493   2.219   0.508   6.211  0.4536  0.0859  0.0686
13001TIP3    H160494   2.166   0.575   6.254 -0.7825 -0.3497 -0.7144
13001TIP3    H260495   2.175   0.493   6.127  0.4813 -1.9407  0.3623
13002TIP3   OH260496   0.291   3.779   5.348  0.2271  0.3246 -0.5351
13002TIP3    H160497   0.207   3.825   5.352  0.9572  1.6568  0.4270
13002TIP3    H260498   0.331   3.795   5.434  0.8891 -1.4426 -0.4777
13003TIP3   OH260499   3.461   6.800  12.991 -0.1832  0.2223 -0.0946
13003TIP3    H160500   3.396   6.824  13.056  0.2758  1.4747 -0.0665
13003TIP3    H260501   3.412   6.752  12.924 -0.8751 -0.0188  0.5701
13004TIP3   OH260502   1.939   3.694  13.953  0.2506  0.3105 -0.5291
13004TIP3    H160503   2.015   3.640  13.930  0.1945  0.4089 -0.9475
13004TIP3    H260504   1.956   3.722  14.043 -0.2720 -1.3639  0.1294
13005TIP3   OH260505   1.417   2.547  14.357  0.5725  0.2519 -0.1550
13005TIP3    H160506   1.358   2.521  14.428  0.8814  0.5283  0.2061
13005TIP3    H260507   1.381   2.630  14.326  2.3604  1.9359  1.9763
13006TIP3   OH260508   4.649   2.109   3.632 -0.6378  0.1179  0.0033
13006TIP3    H160509   4.709   2.171   3.592  0.2801 -0.2849  0.6938
13006TIP3    H260510   4.590   2.082   3.562  0.9486 -0.6115 -1.1042
13007TIP3   OH260511   3.855   4.464   2.540  0.4257  0.0465  0.4751
13007TIP3    H160512   3.907   4.496   2.465  1.2988  0.1574  1.1127
13007TIP3    H260513   3.765   4.487   2.517  0.4918 -1.0871 -1.1448
13008TIP3   OH260514   4.081   4.353  13.701  0.5498 -0.1379 -0.3721
13008TIP3    H160515   4.077   4.416  13.774  1.4355 -2.2435  1.6323
13008TIP3    H260516   3.989   4.337  13.679  0.2091 -0.0680  0.8794
13009TIP3   OH260517   5.341   6.523   0.174 -0.1003  0.2328  0.0520
13009TIP3    H160518   5.277   6.551   0.109  0.4468  0.4416 -0.4076
13009TIP3    H260519   5.371   6.604   0.215  0.4298  0.2039 -0.2716
13010TIP3   OH260520   6.318   6.663  12.106  0.0769  0.0950  0.2897
13010TIP3    H160521   6.338   6.658  12.013 -0.0747  1.5562  0.1608
13010TIP3    H260522   6.403   6.653  12.150  0.3617  0.8992 -0.0644
13011TIP3   OH260523   1.294   3.670   0.379 -0.0740 -0.3572 -0.2914
13011TIP3    H160524   1.208   3.680   0.418  0.3927 -3.7495  2.0102
13011TIP3    H260525   1.351   3.729   0.429 -0.4832 -0.6082  0.4805
13012TIP3   OH260526   4.532   6.314   3.308  0.2721 -0.1655 -0.0242
13012TIP3    H160527   4.623   6.331   3.334  0.7207  0.1812 -1.6960
13012TIP3    H260528   4.536   6.302   3.213 -1.1567 -2.1463  0.1051
13013TIP3   OH260529   6.165   4.066   2.010  0.3805  0.5387  0.8295
13013TIP3    H160530   6.183   4.097   1.921  0.0954  0.5130  0.7607
13013TIP3    H260531   6.082   4.018   2.002  1.6181 -1.7185  0.5826
13014TIP3   OH260532   5.913   2.154   4.468  0.4332 -0.0976  0.7019
13014TIP3    H160533   5.907   2.143   4.373  0.9678 -0.4832  0.7074
13014TIP3    H260534   6.007   2.161   4.485  0.2977  0.8438  1.1088
13015TIP3   OH260535   6.212   3.037   1.505  0.0307  0.5105  0.3109
13015TIP3    H160536   6.171   2.960   1.545 -0.0917  0.0424 -0.6902
13015TIP3    H260537   6.138   3.092   1.478  0.1100  0.7854  0.6571
13016TIP3   OH260538   5.204   4.241   1.335 -0.0883 -0.3638  0.3811
13016TIP3    H160539   5.111   4.245   1.315 -0.1725  0.6654  0.9223
13016TIP3    H260540   5.224   4.147   1.335 -0.8653 -0.5452 -0.8334
13017TIP3   OH260541   1.410   0.461  11.603 -0.7120 -0.5512 -0.6615
13017TIP3    H160542   1.481   0.397  11.596 -1.2194 -1.1735 -0.1603
13017TIP3    H260543   1.455   0.545  11.617 -0.0988 -1.0916  0.7545
13018TIP3   OH260544   6.316   1.379  12.942  0.3450  0.6397  0.0742
13018TIP3    H160545   6.370   1.402  13.018 -1.1843  0.0253  1.4216
13018TIP3    H260546   6.366   1.410  12.867  1.3146  2.5233  1.3924
13019TIP3   OH260547   5.447   0.663   5.991 -0.1080 -0.1829 -0.1595
13019TIP3    H160548   5.381   0.732   5.992  2.0707  2.0069  0.2600
13019TIP3    H260549   5.511   0.689   6.057  0.1589 -3.3633  1.0276
13020TIP3   OH260550   0.045   6.692   0.969  0.4324 -0.1389 -0.2955
13020TIP3    H160551   0.109   6.703   0.898  0.8136  2.9976  0.3984
13020TIP3    H260552  -0.014   6.767   0.960 -2.8302 -2.5089 -0.4234
13021TIP3   OH260553   6.533   3.760   6.153  0.1616 -0.3068  0.2994
13021TIP3    H160554   6.537   3.671   6.118 -1.0938 -0.1298 -0.3513
13021TIP3    H260555   6.609   3.804   6.116 -0.0674 -0.6785 -0.6384
13022TIP3   OH260556   3.653   6.610   3.494 -0.1414  0.1345  0.4862
13022TIP3    H160557   3.590   6.543   3.467  0.5945 -0.5810  0.5066
13022TIP3    H260558   3.739   6.573   3.472  0.2374  2.4289 -2.7715
13023TIP3   OH260559   5.554   5.920  16.094 -0.2903 -0.2907  0.0191
13023TIP3    H160560   5.579   5.872  16.015 -0.2406 -1.3145  0.6424
13023TIP3    H260561   5.556   5.854  16.163  0.2274  0.7178  0.9835
13024TIP3   OH260562   4.790   1.083   2.290 -0.4578 -0.2453  0.3540
13024TIP3    H160563   4.843   1.039   2.223  0.9544 -0.4236  1.5331
13024TIP3    H260564   4.854   1.113   2.354 -1.4602  2.5567  0.1759
13025TIP3   OH260565   2.827   0.498   3.633  0.1486  0.0913 -0.2923
13025TIP3    H160566   2.869   0.578   3.604  1.0525 -1.1882 -2.8282
13025TIP3    H260567   2.898   0.433   3.635 -1.0055 -1.2461 -0.9137
13026TIP3   OH260568   2.879   3.826   1.435  0.1937  0.5949  0.4568
13026TIP3    H160569   2.903   3.830   1.527 -0.3307 -2.2871  0.8012
13026TIP3    H260570   2.949   3.776   1.394 -0.9877 -0.6478 -0.1166
13027TIP3   OH260571   3.549   6.634  12.383 -0.4342 -0.4201  0.2050
13027TIP3    H160572   3.600   6.714  12.372 -1.2903  0.0138 -0.9271
13027TIP3    H260573   3.608   6.573  12.427  1.2716 -0.1370 -1.5338
13028TIP3   OH260574   1.996   6.700  11.263 -0.4248  0.0300  0.0148
13028TIP3    H160575   2.065   6.699  11.329 -1.0018 -0.6707  0.6300
13028TIP3    H260576   2.037   6.662  11.184 -0.2390 -0.8687  0.5256
13029TIP3   OH260577   4.740   5.436   1.686  0.4223  0.4361  0.1823
13029TIP3    H160578   4.772   5.518   1.648  2.0111  0.4782  1.4854
13029TIP3    H260579   4.754   5.446   1.780 -1.7545 -0.3552  0.6562
13030TIP3   OH260580   6.398   0.022  13.698  0.3498  0.1602 -0.0475
13030TIP3    H160581   6.317   0.071  13.683 -0.4223 -0.6250  1.3658
13030TIP3    H260582   6.453   0.043  13.622 -1.4224  0.1752 -1.3891
13031TIP3   OH260583   0.936   1.670  16.271 -0.1723  0.4406 -0.1873
13031TIP3    H160584   0.885   1.617  16.332  1.2236 -0.6359  0.0924
13031TIP3    H260585   0.878   1.743  16.248 -1.0875  0.3551  1.6719
13032TIP3   OH260586   4.327   5.466   6.111  0.4846 -0.2430  0.0959
13032TIP3    H160587   4.291   5.386   6.074 -1.7810  0.8005 -0.1636
13032TIP3    H260588   4.374   5.438   6.190 -0.0579 -1.8324 -0.1177
13033TIP3   OH260589   5.322   0.381  14.553 -0.5965  0.2873  0.6938
13033TIP3    H160590   5.407   0.341  14.572  0.2411  1.3619 -0.6087
13033TIP3    H260591   5.259   0.311  14.569  0.6305 -0.9159  0.4976
13034TIP3   OH260592   5.363   6.831  13.670  0.0269  0.0881  0.6397
13034TIP3    H160593   5.346   6.741  13.642 -1.6202  1.4459 -3.3598
13034TIP3    H260594   5.293   6.852  13.731  0.0683 -1.0980  1.1120
13035TIP3   OH260595   1.779   4.502   0.670 -0.4037 -0.1751 -0.3780
13035TIP3    H160596   1.751   4.561   0.740  1.4512 -1.0460  1.2067
13035TIP3    H260597   1.867   4.474   0.696  0.9798  0.5164 -3.7831
13036TIP3   OH260598   0.266   1.152   4.483  0.1680  0.2285  0.0428
13036TIP3    H160599   0.337   1.216   4.493 -0.4408  1.2552 -1.6374
13036TIP3    H260600   0.214   1.161   4.562  0.2491  1.6797 -0.0293
13037TIP3   OH260601   2.314   0.630   5.853 -0.1860  0.5041  0.0988
13037TIP3    H160602   2.324   0.539   5.882 -0.5494  0.0738 -1.0790
13037TIP3    H260603   2.219   0.641   5.842 -0.0399  0.4857 -1.3781
13038TIP3   OH260604   2.153   0.486   2.327 -0.3295 -0.3833 -0.1836
13038TIP3    H160605   2.166   0.443   2.412 -1.0310  2.1235  1.3226
13038TIP3    H260606   2.073   0.447   2.293 -1.4733  0.2610  1.5781
13039TIP3   OH260607   5.258   6.303  13.555 -0.4220 -0.4977  0.3478
13039TIP3    H160608   5.289   6.320  13.466  0.2766 -2.7728  0.1074
13039TIP3    H260609   5.259   6.389  13.597  1.1685  0.3323 -1.2400
13040TIP3   OH260610   0.649   6.200  16.014 -0.1589  0.7693 -0.0217
13040TIP3    H160611   0.669   6.122  16.066 -0.1828  1.1597  0.5811
13040TIP3    H260612   0.687   6.272  16.063 -1.0207  1.2591 -0.0569
13041TIP3   OH260613   2.747   2.921  12.241 -0.3159  0.1686 -0.7070
13041TIP3    H160614   2.826   2.947  12.289  0.4393  0.3535 -2.0167
13041TIP3    H260615   2.675   2.961  12.290  0.3407 -0.3641  0.7633
13042TIP3   OH260616   5.880   3.724  15.364 -0.6522 -0.2207  0.6553
13042TIP3    H160617   5.952   3.786  15.364  0.8628 -1.7480 -2.3398
13042TIP3    H260618   5.810   3.768  15.316 -1.1737  0.6299  2.1238
13043TIP3   OH260619   0.732   5.819   6.542 -0.0610  0.0474 -0.2719
13043TIP3    H160620   0.658   5.873   6.571 -1.2789 -1.3432 -0.6939
13043TIP3    H260621   0.764   5.777   6.621  1.6391  2.1704  0.2690
13044TIP3   OH260622   2.667   2.161  16.506  0.1144  0.2244  0.0289
13044TIP3    H160623   2.742   2.130  16.556 -0.6415  0.7743  1.5775
13044TIP3    H260624   2.633   2.083  16.462  1.6040 -0.0118 -0.7568
13045TIP3   OH260625   0.719   2.547  12.943  0.2312 -0.5738 -0.4615
13045TIP3    H160626   0.625   2.563  12.934  0.0131 -0.9669  0.9300
13045TIP3    H260627   0.727   2.453  12.959  0.5208 -0.1207  2.7376
13046TIP3   OH260628   2.565   0.446   5.022 -0.1624 -0.3363 -0.4564
13046TIP3    H160629   2.619   0.496   5.083 -0.6414 -1.3565  0.8418
13046TIP3    H260630   2.625   0.382   4.984 -0.3698 -1.2784  0.7674
13047TIP3   OH260631   2.375   6.734  12.217  0.0143  0.2987 -0.0736
13047TIP3    H160632   2.330   6.696  12.292  0.7699  0.2018  0.3395
13047TIP3    H260633   2.332   6.695  12.141  1.4000 -2.1751  0.3313
13048TIP3   OH260634   2.363   1.424  13.304  0.3822 -0.5730 -0.0222
13048TIP3    H160635   2.453   1.393  13.297  0.3007 -0.6160 -0.9313
13048TIP3    H260636   2.340   1.408  13.396  0.7812 -2.0123 -0.1458
13049TIP3   OH260637   2.353   3.663   4.327 -0.4169  1.0155 -0.4378
13049TIP3    H160638   2.405   3.688   4.404 -0.4902  3.6912 -1.1654
13049TIP3    H260639   2.268   3.637   4.363 -0.0418  1.0160  0.4667
13050TIP3   OH260640   2.612   3.808   1.809  0.0083  0.3148 -0.2228
13050TIP3    H160641   2.591   3.756   1.731 -0.0422  1.7278 -1.1961
13050TIP3    H260642   2.562   3.767   1.880 -0.1549 -0.8456 -0.9787
13051TIP3   OH260643   5.062   1.835   4.806 -0.3057 -0.0714 -0.4083
13051TIP3    H160644   5.141   1.792   4.838 -0.9085  0.1587  1.5575
13051TIP3    H260645   5.088   1.877   4.724  0.9460 -2.0060 -1.0509
13052TIP3   OH260646   3.037   2.209   5.158 -0.2982  0.6089 -0.5799
13052TIP3    H160647   3.031   2.296   5.198  1.3802  1.5102 -2.1364
13052TIP3    H260648   3.131   2.188   5.161 -0.5053 -0.5023 -1.5332
13053TIP3   OH260649   6.036   1.361  15.398  0.3193 -0.1654  0.2809
13053TIP3    H160650   6.128   1.385  15.384  0.6155 -1.3416  0.1273
13053TIP3    H260651   5.994   1.443  15.425  1.1057  0.7139 -1.0370
13054TIP3   OH260652   2.941   0.607   4.146 -0.2908  0.0349  0.0696
13054TIP3    H160653   2.853   0.583   4.117 -0.4676  1.9112 -1.1451
13054TIP3    H260654   2.950   0.567   4.232 -1.8953 -1.1232 -0.2533
13055TIP3   OH260655   1.139   3.842  12.290 -0.3955  0.3050 -0.4358
13055TIP3    H160656   1.080   3.900  12.241  0.3295 -0.0522 -1.8021
13055TIP3    H260657   1.130   3.757  12.247 -0.9771 -0.4729  1.1547
13056TIP3   OH260658   3.551   4.497  12.098  0.7341  0.5505  0.3165
13056TIP3    H160659   3.510   4.411  12.110  1.0675  0.4679  0.9290
13056TIP3    H260660   3.593   4.515  12.183  0.6240  1.3391  0.2096
13057TIP3   OH260661   4.606   2.727  13.085  0.0930  0.2488  0.0450
13057TIP3    H160662   4.662   2.755  13.012  1.4786 -0.4448  0.7899
13057TIP3    H260663   4.566   2.645  13.056 -1.2878  1.1953 -0.8338
13058TIP3   OH260664   0.472   1.375   5.107 -0.1695 -0.7332  0.0253
13058TIP3    H160665   0.490   1.288   5.143  0.5090 -0.8894 -0.6625
13058TIP3    H260666   0.510   1.435   5.171 -1.0572 -0.9184  0.7376
13059TIP3   OH260667   2.099   0.859   3.248 -0.3821 -0.0153 -0.3790
13059TIP3    H160668   2.114   0.881   3.156 -1.3458 -0.2844 -0.6099
13059TIP3    H260669   2.026   0.797   3.247 -0.6316  0.2416  0.5946
13060TIP3   OH260670   6.169   0.187  13.929  0.1066 -0.0472  0.0010
13060TIP3    H160671   6.234   0.118  13.915 -1.5883 -1.7308 -0.0584
13060TIP3    H260672   6.099   0.144  13.978 -2.2281  0.8632 -2.2851
13061TIP3   OH260673   4.255   5.799  16.167  0.1491 -0.3455  0.3199
13061TIP3    H160674   4.166   5.782  16.197 -0.5010 -1.8584 -2.1048
13061TIP3    H260675   4.311   5.765  16.236 -1.1583  0.1888  1.6811
13062TIP3   OH260676   6.009   6.282   0.358  0.0957 -0.1990  0.2518
13062TIP3    H160677   6.034   6.367   0.324  1.7258  0.3163  2.5147
13062TIP3    H260678   6.085   6.226   0.341 -0.4690 -0.8833 -0.0930
13063TIP3   OH260679   5.109   5.815  12.167 -0.3631 -0.1859  0.2832
13063TIP3    H160680   5.054   5.819  12.245  0.5394 -1.5701  1.0356
13063TIP3    H260681   5.048   5.802  12.095 -1.1287 -0.0515  0.8934
13064TIP3   OH260682   6.260   0.772   1.470  0.0174 -0.0397 -0.0678
13064TIP3    H160683   6.323   0.831   1.429  1.3998 -1.2441  0.2383
13064TIP3    H260684   6.175   0.807   1.445  0.7977  0.9057 -1.5526
13065TIP3   OH260685   1.219   1.752   1.273 -0.7254 -0.2303 -0.3196
13065TIP3    H160686   1.288   1.801   1.316 -0.8266 -2.1488  2.2870
13065TIP3    H260687   1.139   1.800   1.294 -0.6532 -0.5731  0.8178
13066TIP3   OH260688   1.371   2.028   0.553  0.7416  0.1653 -0.1952
13066TIP3    H160689   1.387   2.083   0.476  1.6896  1.5250  0.9267
13066TIP3    H260690   1.310   1.961   0.522  1.8001  0.0954 -2.3756
13067TIP3   OH260691   4.472   1.945  13.922 -0.0325 -0.3348 -0.4653
13067TIP3    H160692   4.493   1.929  14.014 -1.4275 -1.5849 -0.3214
13067TIP3    H260693   4.387   1.903  13.909 -0.5594  1.0780 -1.9666
13068TIP3   OH260694   1.167   2.529   2.565 -0.7078 -0.3854 -0.5483
13068TIP3    H160695   1.100   2.530   2.496 -1.4896 -0.1914  0.2037
13068TIP3    H260696   1.118   2.522   2.647  0.1898 -0.1271  0.0266
13069TIP3   OH260697   5.637   4.387   2.583 -0.2441 -0.5854 -0.1552
13069TIP3    H160698   5.662   4.444   2.510  0.0109 -0.7900 -0.2299
13069TIP3    H260699   5.676   4.428   2.660  0.0060 -0.7023 -0.2200
13070TIP3   OH260700   6.055   1.785  14.093  0.8033  0.3879 -0.1699
13070TIP3    H160701   6.011   1.759  14.012  0.0017 -0.5457  0.5319
13070TIP3    H260702   5.990   1.838  14.140  1.4780  1.4235 -0.3982
13071TIP3   OH260703   4.684   4.314   4.702 -0.0516 -0.2461  0.5249
13071TIP3    H160704   4.665   4.293   4.794  2.8811  1.3079  1.6085
13071TIP3    H260705   4.701   4.230   4.661 -2.1529 -1.0424  1.1217
13072TIP3   OH260706   2.380   0.548   1.897  0.0070 -0.2476 -0.4308
13072TIP3    H160707   2.394   0.632   1.942 -0.4871 -1.6298  2.5336
13072TIP3    H260708   2.297   0.559   1.850  0.4690  1.2301 -0.9476
13073TIP3   OH260709   4.947   0.022   3.065 -0.5617  0.0150  0.0368
13073TIP3    H160710   4.995   0.105   3.065 -1.5242  0.6081 -1.2020
13073TIP3    H260711   4.889   0.028   3.141 -0.7494  0.5736 -0.1423
13074TIP3   OH260712   2.776   5.764   0.675 -1.1315  0.3445  0.6969
13074TIP3    H160713   2.828   5.811   0.740  1.0959  0.0433 -0.7574
13074TIP3    H260714   2.800   5.805   0.591  1.0003 -3.2451 -0.6791
13075TIP3   OH260715   2.884   3.586   0.082  0.9346  0.0455  0.1731
13075TIP3    H160716   2.913   3.643   0.152  1.2889 -0.3109  0.3241
13075TIP3    H260717   2.908   3.632   0.002 -1.5406  1.5508  0.1933
13076TIP3   OH260718   2.469   2.609  16.772  0.0694 -0.9644 -0.0834
13076TIP3    H160719   2.427   2.541  16.823  0.7880  0.0086  1.9264
13076TIP3    H260720   2.435   2.598  16.684 -0.3151 -3.4889  0.3075
13077TIP3   OH260721   1.639   3.475  15.433 -0.6152  0.6823 -0.4630
13077TIP3    H160722   1.714   3.426  15.398 -0.1551  1.7567 -1.0180
13077TIP3    H260723   1.570   3.464  15.368 -0.6677  0.3971 -0.3614
13078TIP3   OH260724   4.253   4.141   1.311 -0.3691  0.2131 -0.1378
13078TIP3    H160725   4.295   4.141   1.225 -1.2283  0.5240 -0.5683
13078TIP3    H260726   4.221   4.231   1.321 -0.4679  0.1159  0.4145
13079TIP3   OH260727   6.634   4.818   4.201  0.5246 -0.1003 -0.0890
13079TIP3    H160728   6.702   4.768   4.156  0.6901 -0.2941  0.3752
13079TIP3    H260729   6.618   4.770   4.282  0.5321  0.4818  0.2635
13080TIP3   OH260730   0.953   0.989  11.549 -0.2255 -0.3687  0.0852
13080TIP3    H160731   0.890   0.987  11.621  0.3246  0.2894  0.5932
13080TIP3    H260732   0.938   0.907  11.502 -1.8465  0.0229 -0.1417
13081TIP3   OH260733   5.138   1.596   0.045 -0.0248 -0.2946 -0.1071
13081TIP3    H160734   5.193   1.581  -0.032 -0.1318  0.5507 -0.3536
13081TIP3    H260735   5.186   1.554   0.117  1.8690  1.9027  0.0353
13082TIP3   OH260736   6.363   2.962   0.771 -0.4998  0.0840 -0.0282
13082TIP3    H160737   6.280   2.916   0.784 -0.4149  0.3867  1.8055
13082TIP3    H260738   6.339   3.054   0.769 -0.3772  0.1018 -1.1480
13083TIP3   OH260739   1.289   6.089   4.001  0.4870  0.0084 -0.2066
13083TIP3    H160740   1.369   6.089   4.053  1.9065 -0.6170 -2.2340
13083TIP3    H260741   1.285   6.176   3.962  0.0494  0.1106  0.0589
13084TIP3   OH260742   1.589   2.299   3.728  0.0132 -0.2378 -0.4511
13084TIP3    H160743   1.612   2.242   3.655  2.4854 -0.3306  0.3004
13084TIP3    H260744   1.543   2.373   3.688  1.0259 -0.4331 -2.0484
13085TIP3   OH260745   3.568   6.690  15.471 -0.3287  0.2253 -0.5689
13085TIP3    H160746   3.567   6.667  15.378  2.3123  1.3127 -0.9434
13085TIP3    H260747   3.525   6.775  15.475 -2.6226 -0.8698 -0.3713
13086TIP3   OH260748   4.661   2.290   0.429 -0.3883 -0.5289 -0.2020
13086TIP3    H160749   4.613   2.259   0.506 -0.3300 -0.0704  0.0223
13086TIP3    H260750   4.745   2.321   0.464 -1.0412  1.3270 -0.2010
13087TIP3   OH260751   3.564   2.107   0.310 -0.1907 -0.0827 -0.3161
13087TIP3    H160752   3.511   2.176   0.350 -0.5479 -0.3858 -0.2540
13087TIP3    H260753   3.582   2.046   0.382 -0.2745 -0.2916 -0.4715
13088TIP3   OH260754   2.180   5.091  11.689  0.2077 -0.3768  0.2469
13088TIP3    H160755   2.129   5.014  11.663 -0.6561  0.1354  0.4128
13088TIP3    H260756   2.194   5.079  11.784 -2.2077  0.9500  0.8381
13089TIP3   OH260757   4.890   1.818  10.679  0.0567 -0.0836  0.1095
13089TIP3    H160758   4.967   1.764  10.657 -0.5107 -0.4791 -0.9813
13089TIP3    H260759   4.855   1.778  10.759  0.9306  0.0522  0.5750
13090TIP3   OH260760   4.338   1.302  15.264 -0.1208 -0.5966  0.5581
13090TIP3    H160761   4.296   1.223  15.300  1.0810 -1.5391 -0.0475
13090TIP3    H260762   4.398   1.269  15.197 -1.5779  1.0143 -1.7025
13091TIP3   OH260763   1.804   4.115  12.655  0.6287  0.1196  0.4692
13091TIP3    H160764   1.885   4.141  12.611  0.4406  0.2381  0.1941
13091TIP3    H260765   1.735   4.166  12.612  0.4068  0.0236  0.7058
13092TIP3   OH260766   3.624   1.373   4.426  0.0059 -1.0685 -0.0283
13092TIP3    H160767   3.606   1.411   4.512 -1.4504 -1.0129 -0.3285
13092TIP3    H260768   3.718   1.384   4.414 -0.4087  4.0196 -0.8101
13093TIP3   OH260769   4.566   1.840  16.904  0.2880 -0.6949 -0.0040
13093TIP3    H160770   4.528   1.769  16.852  1.3722 -2.0320  0.9568
13093TIP3    H260771   4.653   1.853  16.868 -0.6975  1.9490 -1.8074
13094TIP3   OH260772   5.766   4.134   5.243  0.2722 -0.3045 -0.4364
13094TIP3    H160773   5.850   4.126   5.198  0.9720 -0.5160  0.8289
13094TIP3    H260774   5.785   4.191   5.318  0.2192 -3.0589  1.8430
13095TIP3   OH260775   2.163   0.865  10.677  0.1668  0.3500 -0.2459
13095TIP3    H160776   2.071   0.888  10.675 -0.1186 -0.6266  0.4963
13095TIP3    H260777   2.164   0.772  10.701  1.4182  1.3355  4.6754
13096TIP3   OH260778   0.346   2.361  15.258  0.7254  0.0866  0.8415
13096TIP3    H160779   0.367   2.293  15.194 -0.4241 -1.7617  2.3289
13096TIP3    H260780   0.297   2.316  15.326 -0.3474  2.4862  1.7749
13097TIP3   OH260781   4.096   5.391   2.277  0.8777  0.0727  0.2689
13097TIP3    H160782   4.084   5.461   2.213  0.4407  0.3561  0.6483
13097TIP3    H260783   4.150   5.326   2.233 -0.2908 -0.2373 -0.7670
13098TIP3   OH260784   1.544   4.941  15.960  0.8449  0.4010  0.0450
13098TIP3    H160785   1.598   4.883  15.906 -1.2829 -1.8033  0.1306
13098TIP3    H260786   1.507   5.004  15.899  1.2093  0.1150 -0.4760
13099TIP3   OH260787   4.195   1.543  12.610 -0.3079 -0.0449 -0.2500
13099TIP3    H160788   4.159   1.476  12.551 -1.2785  0.7997 -0.6460
13099TIP3    H260789   4.121   1.601  12.628  0.7140  1.4212 -0.6154
13100TIP3   OH260790   4.584   0.622  12.482  0.0626 -0.5427 -0.2214
13100TIP3    H160791   4.520   0.552  12.492  0.4755 -1.5312 -3.2901
13100TIP3    H260792   4.593   0.633  12.387  1.0949  2.7138  0.1297
13101TIP3   OH260793   0.278   0.369  15.448 -0.3627  0.6975 -0.7188
13101TIP3    H160794   0.341   0.439  15.430 -0.4959  0.9785 -0.0841
13101TIP3    H260795   0.237   0.393  15.531  0.7875 -0.9665  0.4050
13102TIP3   OH260796   2.889   0.933   2.157 -0.0475 -0.2349 -0.5132
13102TIP3    H160797   2.891   0.871   2.084  2.0806  0.7505 -1.3861
13102TIP3    H260798   2.979   0.965   2.164 -1.1889  3.7069 -0.9957
13103TIP3   OH260799   3.643   0.540   2.676 -0.5029  0.0604  0.9732
13103TIP3    H160800   3.668   0.500   2.593  1.2953  0.8697  1.0838
13103TIP3    H260801   3.595   0.472   2.722 -0.3835 -0.8386 -0.1937
13104TIP3   OH260802   0.234   5.973  17.157 -0.4832 -0.2402 -0.2843
13104TIP3    H160803   0.184   6.046  17.120  0.3936  0.5316  0.0313
13104TIP3    H260804   0.308   6.014  17.202  1.1228 -1.4011 -1.7484
13105TIP3   OH260805   3.395   1.019  15.801 -0.4870 -0.7684 -0.1626
13105TIP3    H160806   3.364   1.013  15.711  0.2209 -1.8818 -0.3474
13105TIP3    H260807   3.478   1.066  15.796 -0.9471  0.0992  0.0531
13106TIP3   OH260808   3.871   6.173   1.326  0.4019 -0.1292 -0.2542
13106TIP3    H160809   3.839   6.224   1.400  1.8118  0.6888 -0.1707
13106TIP3    H260810   3.812   6.097   1.321  0.4493 -0.3545  1.8825
13107TIP3   OH260811   4.993   2.733   1.061 -0.1032 -0.6314  0.3389
13107TIP3    H160812   5.044   2.765   1.136  1.3816 -1.4990 -0.2473
13107TIP3    H260813   4.930   2.803   1.043  1.4662  0.9200  0.5798
13108TIP3   OH260814   3.134   2.274   1.257 -0.2492  0.3657 -0.1121
13108TIP3    H160815   3.124   2.179   1.255 -0.9137  0.4377 -0.4746
13108TIP3    H260816   3.130   2.296   1.351  0.8612 -0.0467  0.0461
13109TIP3   OH260817   5.342   2.257   6.030 -0.3396  0.0330 -0.3678
13109TIP3    H160818   5.398   2.204   5.974 -0.7518 -2.8313  1.6972
13109TIP3    H260819   5.399   2.283   6.103 -0.8566  0.0008  0.0540
13110TIP3   OH260820   6.401   5.230   5.685 -0.4047  0.1270  0.6472
13110TIP3    H160821   6.456   5.152   5.683  1.3658  1.3073 -1.0207
13110TIP3    H260822   6.404   5.264   5.595 -1.4125  1.8963  1.2290
13111TIP3   OH260823   0.027   6.143  11.645  0.4933 -0.8682 -0.5382
13111TIP3    H160824  -0.023   6.141  11.563 -1.9081 -2.7451  0.7995
13111TIP3    H260825   0.034   6.050  11.670  0.6277 -0.3314  1.6155
13112TIP3   OH260826   3.210   0.297  13.263  0.2500 -1.1900 -0.3900
13112TIP3    H160827   3.203   0.355  13.187  1.2865 -0.6855 -0.1348
13112TIP3    H260828   3.137   0.322  13.320  1.0170  0.3178 -0.0129
13113TIP3   OH260829   3.723   2.732  13.531  0.4335 -0.1603 -0.6010
13113TIP3    H160830   3.663   2.754  13.460 -0.0100  1.5594  0.2658
13113TIP3    H260831   3.808   2.720  13.488  0.7570  3.3777 -1.2599
13114TIP3   OH260832   4.173   3.785  15.707 -0.2476 -0.1792  0.4253
13114TIP3    H160833   4.152   3.698  15.672  1.5782 -1.1081  1.4743
13114TIP3    H260834   4.193   3.768  15.799  0.1424  1.3775  0.6424
13115TIP3   OH260835   1.086   1.346  14.808 -0.1985  0.4890  0.4391
13115TIP3    H160836   1.127   1.260  14.803  0.4982  0.8515 -0.1311
13115TIP3    H260837   1.011   1.340  14.749  0.4368  0.5935 -0.3850
13116TIP3   OH260838   5.660   0.933  15.249  0.3272  0.0481 -0.0359
13116TIP3    H160839   5.624   0.976  15.171 -0.9620  0.5278  0.7791
13116TIP3    H260840   5.724   0.995  15.283  0.3388  0.1721 -0.2791
13117TIP3   OH260841   2.981   0.287   3.569  0.2796  0.0394 -0.5819
13117TIP3    H160842   2.962   0.246   3.485  0.8251 -1.8028  0.1497
13117TIP3    H260843   2.970   0.217   3.633  0.4039  1.2669  0.8312
13118TIP3   OH260844   5.527   0.220  16.927 -0.1272 -0.3273 -0.2371
13118TIP3    H160845   5.621   0.203  16.932  0.1470  1.0358 -0.3257
13118TIP3    H260846   5.519   0.315  16.940 -1.4129 -0.2977 -1.0586
13119TIP3   OH260847   4.572   4.123   2.002 -0.2704  0.1126 -0.2142
13119TIP3    H160848   4.603   4.032   2.000 -1.7305 -0.4080 -1.7742
13119TIP3    H260849   4.507   4.124   2.072 -1.1347 -0.3995 -0.9801
13120TIP3   OH260850   0.540   0.318  12.003 -0.2113 -0.3946 -0.4468
13120TIP3    H160851   0.596   0.254  11.959 -0.0637 -0.2870 -0.4175
13120TIP3    H260852   0.575   0.403  11.976 -0.4830 -0.3249 -0.5855
13121TIP3   OH260853   4.569   1.662   1.829  0.3119 -0.2750  0.5330
13121TIP3    H160854   4.509   1.647   1.903  0.3404 -0.5896  0.4956
13121TIP3    H260855   4.522   1.723   1.772 -0.0734 -0.6920  0.3919
13122TIP3   OH260856   4.989   3.311  14.138  0.2376 -0.1028  0.2279
13122TIP3    H160857   4.900   3.304  14.104 -0.0673 -2.6578  1.3202
13122TIP3    H260858   5.030   3.379  14.085 -1.1169 -1.6942 -3.1144
13123TIP3   OH260859   6.217   6.557  12.511 -0.2690  0.0621 -0.4298
13123TIP3    H160860   6.167   6.557  12.430 -0.6634 -0.3147 -0.1922
13123TIP3    H260861   6.160   6.600  12.575 -0.0301  0.2088 -0.3156
13124TIP3   OH260862   4.944   2.203   5.207  0.1256  0.2540 -0.1772
13124TIP3    H160863   4.904   2.145   5.142  1.0766  0.3662 -0.8690
13124TIP3    H260864   5.031   2.165   5.222  1.2996  2.2079 -1.6278
13125TIP3   OH260865   1.913   0.874   5.423 -0.0134  0.2084 -0.4774
13125TIP3    H160866   1.933   0.966   5.404  1.2647 -0.2710 -1.6224
13125TIP3    H260867   1.823   0.875   5.456 -0.4634  1.7396 -1.6564
13126TIP3   OH260868   4.221   1.728   2.659  0.7958  0.2585  0.4307
13126TIP3    H160869   4.132   1.693   2.656  0.9860 -0.4643  2.3077
13126TIP3    H260870   4.248   1.730   2.567 -0.8760 -0.2152 -0.1139
13127TIP3   OH260871   5.775   0.071  15.966  0.3058  0.4649  0.2298
13127TIP3    H160872   5.837   0.017  15.918  0.2706  0.3676  0.2935
13127TIP3    H260873   5.775   0.155  15.920  0.2831  0.3765  0.0697
13128TIP3   OH260874   0.218   5.714  14.579 -0.8076  0.4372 -0.1598
13128TIP3    H160875   0.263   5.630  14.569 -0.8733  0.4358 -0.4636
13128TIP3    H260876   0.282   5.780  14.552 -0.8973  0.4523 -0.3438
13129TIP3   OH260877   6.376   6.381   3.529  0.6707  0.1584 -0.3417
13129TIP3    H160878   6.440   6.310   3.541  0.0717 -0.1858  1.0669
13129TIP3    H260879   6.429   6.456   3.502  1.8277  0.0760  1.4830
13130TIP3   OH260880   2.559   4.696   5.488  0.0989  0.0550  0.0376
13130TIP3    H160881   2.502   4.640   5.437 -0.1097 -0.3565  0.7123
13130TIP3    H260882   2.504   4.771   5.511 -0.0792 -0.1921  0.4227
13131TIP3   OH260883   2.301   0.368  16.578  0.0163 -0.2769  0.6119
13131TIP3    H160884   2.315   0.333  16.666 -1.1626 -0.2235  0.8326
13131TIP3    H260885   2.219   0.329  16.549 -0.9602  1.6562  0.5707
13132TIP3   OH260886   4.951   1.923  12.864  0.4993 -0.1912  0.0684
13132TIP3    H160887   4.948   2.018  12.859  1.4387  0.0719  2.8147
13132TIP3    H260888   5.044   1.901  12.860  0.3452 -0.9349  0.2633
13133TIP3   OH260889   0.253   6.133  13.266 -0.1928 -0.5959  1.1814
13133TIP3    H160890   0.285   6.055  13.219  2.2967  1.1661 -0.2811
13133TIP3    H260891   0.303   6.135  13.347  2.1105  1.0523 -0.1824
13134TIP3   OH260892   0.810   2.344   6.394  0.0711  0.8367 -0.1974
13134TIP3    H160893   0.731   2.290   6.391 -0.0159  0.8860  0.8154
13134TIP3    H260894   0.880   2.282   6.416  0.1697  0.9317 -0.2447
13135TIP3   OH260895   6.257   0.842  15.442  0.0436 -0.3327  1.0619
13135TIP3    H160896   6.211   0.758  15.440  1.7205 -1.3484  2.0970
13135TIP3    H260897   6.279   0.860  15.351 -2.4930  0.3021  0.5012
13136TIP3   OH260898   2.881   5.175  17.120  0.1482 -0.5052 -0.6367
13136TIP3    H160899   2.870   5.104  17.183  0.9809 -0.6523 -0.6432
13136TIP3    H260900   2.976   5.191  17.119  0.1464 -0.5206 -1.8701
13137TIP3   OH260901   3.107   3.441  17.075  0.2399  0.4895 -0.0392
13137TIP3    H160902   3.097   3.392  17.157 -1.3144 -1.0306 -1.0849
13137TIP3    H260903   3.090   3.532  17.100  1.4146  0.3162  1.6047
13138TIP3   OH260904   4.264   3.683   1.570  0.0965  0.3082  0.0461
13138TIP3    H160905   4.191   3.674   1.632 -0.7315 -0.4946 -1.0052
13138TIP3    H260906   4.222   3.697   1.485  1.2054  1.0144 -0.4137
13139TIP3   OH260907   5.560   5.540  15.435 -0.3747  0.1150  0.3590
13139TIP3    H160908   5.586   5.558  15.344  0.5860  0.6335  0.7286
13139TIP3    H260909   5.583   5.619  15.483 -1.2232 -0.0156  1.0081
13140TIP3   OH260910   2.833   2.225   5.576  0.1084 -0.6114  0.2976
13140TIP3    H160911   2.810   2.231   5.669 -0.8962  0.2939  0.0021
13140TIP3    H260912   2.754   2.252   5.529  0.0185 -2.7474 -0.8838
13141TIP3   OH260913   3.115   4.961  16.990  0.2584 -0.3823 -0.8361
13141TIP3    H160914   3.065   4.936  16.912 -0.2028 -0.0914 -0.6414
13141TIP3    H260915   3.155   5.045  16.968  0.7913 -0.6864 -1.0446
13142TIP3   OH260916   1.669   2.005   5.715  0.3331  0.0578  0.2961
13142TIP3    H160917   1.744   1.956   5.748  0.1974 -0.4987 -0.1864
13142TIP3    H260918   1.615   1.939   5.670  0.5711  0.7831 -1.1265
13143TIP3   OH260919   0.477   4.057  13.388 -0.4310 -0.4370  0.3874
13143TIP3    H160920   0.417   4.098  13.450 -0.1775  1.4310 -0.5209
13143TIP3    H260921   0.506   3.978  13.432  1.1701  1.6766  3.5579
13144TIP3   OH260922   2.247   1.348  15.869 -0.2408  0.4133 -0.5287
13144TIP3    H160923   2.260   1.384  15.782 -0.0994 -1.0470 -1.1485
13144TIP3    H260924   2.161   1.379  15.896  0.2255  1.8673 -0.6610
13145TIP3   OH260925   1.632   1.697  11.466 -0.2646  0.1146 -0.8895
13145TIP3    H160926   1.727   1.686  11.463 -0.1614  0.4088  0.7936
13145TIP3    H260927   1.617   1.766  11.530 -1.6744 -0.7720 -0.2086
13146TIP3   OH260928   1.607   1.006  13.185  0.1310 -0.3862  0.5669
13146TIP3    H160929   1.689   1.051  13.164  0.9801 -1.3246  1.7088
13146TIP3    H260930   1.621   0.916  13.155 -0.2819 -0.6707  1.1962
13147TIP3   OH260931   4.512   6.634   3.206 -0.0039 -0.2622  0.1837
13147TIP3    H160932   4.489   6.630   3.114  0.1600 -3.0421  0.1629
13147TIP3    H260933   4.428   6.624   3.252 -0.0968  1.2023  0.3753
13148TIP3   OH260934   6.741   6.009  11.351 -0.2512  0.7488 -0.2331
13148TIP3    H160935   6.833   5.983  11.348 -0.2570  0.6249  0.4299
13148TIP3    H260936   6.710   5.999  11.261 -0.1015 -1.0082 -0.1352
13149TIP3   OH260937   0.801   3.087   4.021 -0.4698 -0.4063 -0.2212
13149TIP3    H160938   0.792   3.043   4.106  0.2561 -1.3871 -0.6379
13149TIP3    H260939   0.895   3.094   4.008 -0.5733  0.8842 -0.3794
13150TIP3   OH260940   5.266   6.485  13.793  0.0541  0.3817 -0.3071
13150TIP3    H160941   5.248   6.540  13.870 -1.4439 -1.4406  0.7256
13150TIP3    H260942   5.361   6.485  13.785  0.2661  0.3639  1.7632
13151TIP3   OH260943   5.416   5.708   4.129 -0.1566 -0.1130 -0.1292
13151TIP3    H160944   5.358   5.631   4.126 -1.6973  0.9667  0.6678
13151TIP3    H260945   5.412   5.737   4.220 -0.1018  1.2845 -0.5602
13152TIP3   OH260946   3.674   4.223  12.639  0.1095  0.3865  0.0977
13152TIP3    H160947   3.716   4.226  12.725 -1.2963 -1.1374  0.8928
13152TIP3    H260948   3.620   4.302  12.637 -2.0601 -0.9281  1.8983
13153TIP3   OH260949   2.460   0.492   2.784  0.1201 -0.1171 -0.3960
13153TIP3    H160950   2.519   0.561   2.753 -0.9469  1.3930  0.8052
13153TIP3    H260951   2.423   0.526   2.865 -0.7450 -1.9664  0.0440
13154TIP3   OH260952   1.087   4.888   3.256 -0.2359 -0.4969 -0.1724
13154TIP3    H160953   1.106   4.837   3.335 -1.6140 -0.4051  0.2512
13154TIP3    H260954   1.097   4.825   3.184 -1.6705 -1.3646  0.3203
13155TIP3   OH260955   2.751   4.704   0.215 -0.2811  0.1125 -0.1550
13155TIP3    H160956   2.683   4.770   0.212 -0.0576  0.3308 -0.4743
13155TIP3    H260957   2.814   4.737   0.279 -0.4894 -0.1051  0.1647
13156TIP3   OH260958   0.558   3.808   2.684  0.0833  0.0461 -0.2582
13156TIP3    H160959   0.502   3.731   2.669  1.8584 -1.5990  1.0094
13156TIP3    H260960   0.584   3.801   2.776  0.1459  2.3102 -0.0610
13157TIP3   OH260961   1.274   1.445  15.506 -0.2322  0.1084 -0.6414
13157TIP3    H160962   1.235   1.396  15.434  0.8128 -0.7817 -0.6237
13157TIP3    H260963   1.367   1.450  15.484 -0.0418  0.5527  0.2286
13158TIP3   OH260964   5.252   5.708   3.162  0.2668  0.5838  1.0811
13158TIP3    H160965   5.266   5.778   3.226  4.1024 -0.1044  1.2688
13158TIP3    H260966   5.235   5.630   3.215  2.4313  0.2176  1.3402
13159TIP3   OH260967   4.137   0.122  15.100 -0.1019 -0.0636  0.3287
13159TIP3    H160968   4.074   0.193  15.088 -0.2403 -0.3879 -1.0996
13159TIP3    H260969   4.155   0.091  15.011  1.9410 -0.0910  0.6926
13160TIP3   OH260970   4.684   2.495  15.690  0.0523  0.0828 -0.4334
13160TIP3    H160971   4.756   2.515  15.751 -0.6996 -0.5467  0.6924
13160TIP3    H260972   4.608   2.541  15.727 -0.7255 -1.3934 -0.1327
13161TIP3   OH260973   1.938   1.988  13.036 -0.0118 -0.7098 -0.2315
13161TIP3    H160974   1.862   2.034  13.000  0.4120 -0.6821 -1.0933
13161TIP3    H260975   1.987   1.958  12.960  0.7567 -0.8815  0.3192
13162TIP3   OH260976   3.750   3.967  11.507 -0.6023 -0.2415  0.3026
13162TIP3    H160977   3.742   3.872  11.500 -1.0129 -0.3167  1.5250
13162TIP3    H260978   3.844   3.983  11.509 -0.5310 -0.6183  0.0635
13163TIP3   OH260979   0.421   1.882   0.745  0.0027 -0.1241  0.2545
13163TIP3    H160980   0.370   1.853   0.821  0.7059  0.1593  0.8448
13163TIP3    H260981   0.359   1.878   0.672  0.0573 -3.2599  0.2497
13164TIP3   OH260982   1.406   0.503  17.125  0.2179  0.3635  0.1096
13164TIP3    H160983   1.322   0.545  17.108  0.2457  0.6863  0.7322
13164TIP3    H260984   1.387   0.409  17.122 -0.2593  0.4379  0.6950
13165TIP3   OH260985   4.238   1.149  13.844 -0.0146  0.7642  0.0452
13165TIP3    H160986   4.157   1.139  13.893 -0.3243  1.4717 -0.3038
13165TIP3    H260987   4.306   1.113  13.902 -0.6219 -0.2512  0.1534
13166TIP3   OH260988   5.613   3.486   0.701  0.2640 -0.1628  0.2621
13166TIP3    H160989   5.622   3.479   0.797 -0.7423  1.4898  0.5121
13166TIP3    H260990   5.525   3.521   0.688  0.8815  0.9265 -1.2054
13167TIP3   OH260991   5.184   2.867   4.447  0.1171  0.0625  0.2989
13167TIP3    H160992   5.219   2.826   4.368  0.4139  2.6396 -1.0137
13167TIP3    H260993   5.090   2.850   4.442  0.1932 -0.2148 -0.3572
13168TIP3   OH260994   1.942   0.901   3.707 -0.3945  0.1563 -0.0601
13168TIP3    H160995   1.875   0.907   3.774 -0.6149 -0.9704 -0.1514
13168TIP3    H260996   1.987   0.818   3.725  2.1690  1.6650  1.0715
13169TIP3   OH260997   5.821   4.434  14.289  0.0071 -0.1214  0.8713
13169TIP3    H160998   5.735   4.447  14.249  0.2238  1.3459  0.8089
13169TIP3    H260999   5.879   4.492  14.239  0.6760  0.2287  2.0230
13170TIP3   OH261000   1.397   4.944   2.447 -0.3184  0.0827 -0.5186
13170TIP3    H161001   1.375   4.969   2.537  0.5495  1.1876 -0.5917
13170TIP3    H261002   1.462   4.875   2.456  0.8404  1.1666 -0.2587
13171TIP3   OH261003   0.469   2.823   0.054  0.7324 -0.1839  0.3575
13171TIP3    H161004   0.559   2.854   0.056  0.1388  1.6598  0.2758
13171TIP3    H261005   0.434   2.845   0.140  0.0852  0.0426  0.0449
13172TIP3   OH261006   0.847   0.608   1.443 -0.4458  0.0295  0.6861
13172TIP3    H161007   0.840   0.520   1.480  2.5314 -0.4557  0.3280
13172TIP3    H261008   0.900   0.657   1.506 -0.8839  1.1794  0.1944
13173TIP3   OH261009   0.199   3.157   4.455  0.1715 -0.1715  0.1842
13173TIP3    H161010   0.254   3.186   4.528 -0.6334  0.9605  0.3845
13173TIP3    H261011   0.258   3.110   4.397  1.2430  0.5572  0.6463
13174TIP3   OH261012   1.711   5.176   3.883 -0.1951 -0.0906 -0.1962
13174TIP3    H161013   1.730   5.204   3.973 -1.4341 -0.7930  0.2980
13174TIP3    H261014   1.734   5.252   3.829  0.6021  0.3226  0.6956
13175TIP3   OH261015   2.898   1.407  14.396 -0.1275  0.0894  0.3676
13175TIP3    H161016   2.924   1.322  14.360  3.6934  1.3214 -0.1799
13175TIP3    H261017   2.861   1.454  14.321 -1.0427 -0.5991  0.3685
13176TIP3   OH261018   6.455   6.575  11.874  0.4182 -0.1328  0.0946
13176TIP3    H161019   6.444   6.481  11.859  0.0955 -0.2752  1.1169
13176TIP3    H261020   6.540   6.583  11.917  0.2637 -0.0165  0.3891
13177TIP3   OH261021   6.731   6.498  10.922  0.4696 -0.1093 -0.6945
13177TIP3    H161022   6.779   6.416  10.914  1.1134  0.1391  0.3974
13177TIP3    H261023   6.675   6.501  10.844  1.2406 -1.0506 -1.3130
13178TIP3   OH261024   2.606   2.595  16.266 -0.4909  0.3673 -0.4747
13178TIP3    H161025   2.578   2.527  16.328 -0.0103 -1.0066 -1.7257
13178TIP3    H261026   2.700   2.604  16.281 -0.7719  1.8536  0.6887
13179TIP3   OH261027   4.508   1.525  13.111  0.3651  0.2133  0.2990
13179TIP3    H161028   4.461   1.479  13.180 -0.7536 -0.4934 -0.8738
13179TIP3    H261029   4.448   1.522  13.036  1.3475  1.3452 -0.5681
13180TIP3   OH261030   6.044   1.005  13.638  0.0736 -0.1517 -0.4549
13180TIP3    H161031   5.981   0.960  13.696 -1.1945 -0.1038 -1.7365
13180TIP3    H261032   6.014   0.983  13.550  1.2103  0.8198 -1.0964
13181TIP3   OH261033   2.166   0.162  11.973  0.1352 -0.4197 -0.5400
13181TIP3    H161034   2.205   0.192  11.891  0.6413 -0.8885 -0.4738
13181TIP3    H261035   2.177   0.067  11.971 -1.4577 -0.6409 -0.7578
13182TIP3   OH261036   2.354   5.905   3.993 -0.3654  0.4714 -0.2937
13182TIP3    H161037   2.422   5.973   3.998 -1.0901  1.2253 -0.4096
13182TIP3    H261038   2.402   5.823   4.001  0.5240  0.9978  0.0014
13183TIP3   OH261039   3.267   3.285   0.176 -0.5991  0.0747  0.1365
13183TIP3    H161040   3.173   3.272   0.188 -1.3858  2.7597 -2.1522
13183TIP3    H261041   3.276   3.374   0.143  2.6896 -0.3706 -0.5912
13184TIP3   OH261042   0.545   5.022   0.471  0.3080 -0.6049 -0.1145
13184TIP3    H161043   0.574   4.979   0.550 -1.2672  0.6337  1.2134
13184TIP3    H261044   0.617   5.080   0.447  1.2102 -1.7469 -0.2078
13185TIP3   OH261045   2.147   2.923  10.384  0.4448  0.4034 -0.0901
13185TIP3    H161046   2.168   2.964  10.469  0.6245 -0.0745  0.0978
13185TIP3    H261047   2.226   2.875  10.360 -0.0506 -0.5377  0.1056
13186TIP3   OH261048   5.365   4.837  15.364 -0.2547  0.3241 -0.0140
13186TIP3    H161049   5.287   4.847  15.309 -2.8595  0.8674  3.4152
13186TIP3    H261050   5.337   4.779  15.435  2.7979 -0.1874  0.9256
13187TIP3   OH261051   5.521   0.292   0.049 -0.2577  0.7479 -0.1149
13187TIP3    H161052   5.428   0.276   0.031 -0.2956  0.4639  0.3160
13187TIP3    H261053   5.560   0.205   0.055  0.0568  0.8703 -0.3924
13188TIP3   OH261054   2.039   1.610   2.315  0.3805 -0.1752 -0.6790
13188TIP3    H161055   2.076   1.529   2.350  1.6718  0.7539  0.1969
13188TIP3    H261056   2.074   1.679   2.371 -0.5433  1.0229 -1.5154
13189TIP3   OH261057   1.210   0.557   2.761 -0.0899  0.2878  0.2565
13189TIP3    H161058   1.286   0.556   2.703 -0.5773 -0.0293 -0.3778
13189TIP3    H261059   1.243   0.596   2.842  0.4479  1.3124 -0.4309
13190TIP3   OH261060   1.352   2.343  11.911  0.3711 -0.5310  0.2532
13190TIP3    H161061   1.378   2.261  11.952 -0.7401 -0.3143  1.4466
13190TIP3    H261062   1.427   2.368  11.857  1.8072 -0.9295  2.0032
13191TIP3   OH261063   4.430   4.202  12.838  0.0704  0.3027  0.2983
13191TIP3    H161064   4.337   4.217  12.821 -0.4101 -0.9762  1.5889
13191TIP3    H261065   4.453   4.129  12.781  0.4787  1.0403 -0.5063
13192TIP3   OH261066   0.582   1.128  11.964  0.0329 -0.8231  0.1927
13192TIP3    H161067   0.488   1.117  11.947 -0.5133  1.8351  1.0062
13192TIP3    H261068   0.609   1.199  11.905  1.2276 -0.6459  0.9176
13193TIP3   OH261069   6.148   2.369   5.940 -0.1789  0.1884  0.4526
13193TIP3    H161070   6.242   2.379   5.923 -0.2246  1.0307  0.6264
13193TIP3    H261071   6.113   2.329   5.861 -0.1228  2.4505 -0.7951
13194TIP3   OH261072   0.675   3.082  11.431 -0.0811 -0.0362 -0.2360
13194TIP3    H161073   0.726   3.134  11.368 -0.0032  0.1524 -0.0166
13194TIP3    H261074   0.596   3.057  11.382  0.5711 -0.9722 -0.8205
13195TIP3   OH261075   5.316   3.030   4.229  0.6714  0.4416  0.0890
13195TIP3    H161076   5.338   3.075   4.310 -0.5132 -0.5496  1.0076
13195TIP3    H261077   5.222   3.045   4.218  0.3175 -1.3887  0.2193
13196TIP3   OH261078   3.483   0.593   3.153  0.6620 -0.4273  0.3600
13196TIP3    H161079   3.410   0.655   3.152  0.9086 -0.1135  1.2332
13196TIP3    H261080   3.445   0.511   3.183  0.7730 -0.1154  1.3793
13197TIP3   OH261081   0.995   5.264   4.479 -0.2283  0.0248  0.4389
13197TIP3    H161082   0.940   5.325   4.429  0.9598 -0.7891 -2.0256
13197TIP3    H261083   0.937   5.191   4.499 -1.0947  0.9752  1.5524
13198TIP3   OH261084   3.591   5.303  17.071  0.0041 -0.4636  0.3057
13198TIP3    H161085   3.671   5.251  17.073 -1.2674 -2.6413  3.7560
13198TIP3    H261086   3.609   5.377  17.130 -0.1581 -0.3345  0.1949
13199TIP3   OH261087   3.641   4.433  15.434 -0.3591  0.1472 -0.0721
13199TIP3    H161088   3.611   4.418  15.344  2.3560 -2.9159 -0.6902
13199TIP3    H261089   3.575   4.389  15.489 -2.1362  2.2037 -0.4332
13200TIP3   OH261090   2.414   1.466  16.133 -0.2311 -0.3775  0.2892
13200TIP3    H161091   2.464   1.542  16.106 -1.3495 -0.1047 -1.0789
13200TIP3    H261092   2.322   1.493  16.127 -0.6856 -1.9969 -0.8529
13201TIP3   OH261093   0.244   0.909   1.965  0.1450  0.4551  0.6385
13201TIP3    H161094   0.268   1.002   1.964  2.8430 -0.1597  0.8424
13201TIP3    H261095   0.327   0.863   1.971 -0.8836 -2.1048 -2.2120
13202TIP3   OH261096   0.562   6.358  11.280 -0.3688  0.3469  0.0008
13202TIP3    H161097   0.514   6.437  11.257  0.4506  1.6084  2.3188
13202TIP3    H261098   0.653   6.377  11.255 -0.3007 -0.2231 -0.2071
13203TIP3   OH261099   2.611   3.885   0.968  0.8635  0.3278 -0.3171
13203TIP3    H161100   2.646   3.883   1.057 -0.3340  0.7321  0.1808
13203TIP3    H261101   2.578   3.974   0.957  1.8543  0.5775 -1.5298
13204TIP3   OH261102   2.326   0.402   1.625 -0.2695  0.3669  0.1897
13204TIP3    H161103   2.236   0.404   1.657 -0.5402 -0.9230 -0.4282
13204TIP3    H261104   2.346   0.493   1.603 -1.8567  0.5060 -0.8401
13205TIP3   OH261105   0.297   1.831   3.860 -0.3943 -0.2639  0.3598
13205TIP3    H161106   0.288   1.805   3.769 -0.7829 -1.3610  0.6975
13205TIP3    H261107   0.220   1.795   3.903 -1.8785  2.8632  0.5832
13206TIP3   OH261108   0.395   4.133   5.743  0.4425  0.5095  0.2957
13206TIP3    H161109   0.304   4.123   5.717 -0.0922 -1.7311  2.6188
13206TIP3    H261110   0.406   4.226   5.760 -1.2866  0.8652 -0.3970
13207TIP3   OH261111   0.194   2.518  15.807  0.5197 -0.8509 -0.2973
13207TIP3    H161112   0.198   2.423  15.794 -1.2728 -0.6920 -2.7337
13207TIP3    H261113   0.101   2.536  15.820  0.8641  0.5897  0.3018
13208TIP3   OH261114   3.676   6.364  13.498  0.3009 -0.3510 -0.3332
13208TIP3    H161115   3.694   6.342  13.407 -1.2707  0.7854 -0.9800
13208TIP3    H261116   3.737   6.311  13.549  0.0133 -2.3895 -1.9615
13209TIP3   OH261117   5.631   1.871  13.827  0.1558 -0.7100  0.6117
13209TIP3    H161118   5.694   1.936  13.858  0.1197 -1.3206  2.0947
13209TIP3    H261119   5.593   1.909  13.749  3.6693 -1.0930 -1.5022
13210TIP3   OH261120   0.159   2.854   5.319  0.3666 -0.3323 -0.4933
13210TIP3    H161121   0.225   2.886   5.381 -0.4354  0.2815  0.0687
13210TIP3    H261122   0.084   2.830   5.373  0.1963 -1.2491 -1.1034
13211TIP3   OH261123   3.743   0.949   4.256 -0.2860 -0.3104  0.1950
13211TIP3    H161124   3.790   0.934   4.174 -1.5787 -1.7466 -0.3361
13211TIP3    H261125   3.792   0.899   4.322  0.6040  0.6354  0.2737
13212TIP3   OH261126   3.833   2.165   3.504 -0.6980 -0.2205  0.3616
13212TIP3    H161127   3.890   2.241   3.512  0.4215 -1.1577  1.9794
13212TIP3    H261128   3.885   2.093   3.541 -2.2689 -1.4648  0.2283
13213TIP3   OH261129   0.535   5.845  12.956 -0.2935  0.3187  0.3493
13213TIP3    H161130   0.588   5.774  12.992 -1.3188 -0.0662  1.1485
13213TIP3    H261131   0.579   5.925  12.987  0.4916  0.0348 -0.0055
13214TIP3   OH261132   3.160   1.368  14.802  0.1566  0.2530  0.6735
13214TIP3    H161133   3.085   1.414  14.766  0.3204 -0.3994 -0.5786
13214TIP3    H261134   3.218   1.437  14.834  0.8251  1.0474 -2.0052
13215TIP3   OH261135   2.004   0.489   6.050  0.5954  0.0427 -0.1238
13215TIP3    H161136   1.936   0.422   6.044  1.1163 -0.4906 -0.1413
13215TIP3    H261137   1.956   0.572   6.044  0.1291 -0.3099 -2.4778
13216TIP3   OH261138   3.414   6.302  16.635 -0.2470  0.3397 -0.4768
13216TIP3    H161139   3.457   6.329  16.553  0.3943 -0.6855 -0.5010
13216TIP3    H261140   3.332   6.351  16.636  0.3790  1.4321 -1.0351
13217TIP3   OH261141   2.324   4.642  11.121  0.1632 -0.7426  0.1204
13217TIP3    H161142   2.263   4.695  11.069  0.7883 -0.2067 -0.0785
13217TIP3    H261143   2.268   4.594  11.181 -0.4273  0.0909  0.2556
13218TIP3   OH261144   5.822   0.309  13.238 -0.2975 -0.1867  0.0063
13218TIP3    H161145   5.738   0.301  13.283 -0.5720  3.6626  0.5083
13218TIP3    H261146   5.883   0.336  13.307  0.5480  0.3035 -0.9153
13219TIP3   OH261147   5.753   2.332  15.431  0.3333  0.0193 -0.0961
13219TIP3    H161148   5.819   2.283  15.479  0.5755  0.6124  0.1846
13219TIP3    H261149   5.758   2.299  15.342  1.0907  0.1416 -0.1021
13220TIP3   OH261150   3.304   2.125   0.691 -0.1534  0.0967 -0.3228
13220TIP3    H161151   3.372   2.182   0.727  0.4891 -0.0380 -1.2804
13220TIP3    H261152   3.348   2.042   0.676 -0.8849 -0.4174  0.3152
13221TIP3   OH261153   5.804   0.887   0.153 -0.4523  0.9518 -0.1990
13221TIP3    H161154   5.757   0.966   0.179  0.8293  1.7494 -0.2070
13221TIP3    H261155   5.858   0.915   0.079 -1.0024 -0.2909 -1.1003
13222TIP3   OH261156   1.126   1.231  12.576 -0.1134 -0.0264  0.5940
13222TIP3    H161157   1.142   1.163  12.510 -0.2806  1.2452 -0.8117
13222TIP3    H261158   1.087   1.184  12.650  0.2546 -1.5264 -0.1307
13223TIP3   OH261159   5.900   4.948   3.846 -0.4443  0.1169  0.0450
13223TIP3    H161160   5.898   5.025   3.904  1.2822 -0.1815  0.5639
13223TIP3    H261161   5.986   4.909   3.861 -0.8785 -1.3328 -0.9971
13224TIP3   OH261162   1.354   1.885   0.092  0.0039 -0.0307 -0.5005
13224TIP3    H161163   1.446   1.875   0.118  0.9127  0.8131 -3.0052
13224TIP3    H261164   1.330   1.801   0.054  0.0020 -0.0147 -0.5351
13225TIP3   OH261165   0.852   6.584   0.400 -0.5114 -0.2701  0.5732
13225TIP3    H161166   0.929   6.627   0.362 -0.9179  0.3940  0.4882
13225TIP3    H261167   0.808   6.653   0.450 -1.6862 -0.3416 -0.3250
13226TIP3   OH261168   0.665   3.443  13.457 -0.1772  0.4813  0.0204
13226TIP3    H161169   0.572   3.460  13.471  0.0264  0.1390  2.3279
13226TIP3    H261170   0.707   3.528  13.468 -0.1383  0.4519  0.1045
13227TIP3   OH261171   0.956   3.561   4.765  0.4136  0.4577 -0.0053
13227TIP3    H161172   0.885   3.537   4.705  0.7973 -2.5754  0.5700
13227TIP3    H261173   0.911   3.599   4.840 -0.6401 -0.9165  0.1258
13228TIP3   OH261174   0.240   5.590  12.070  0.1536 -0.3557 -0.6718
13228TIP3    H161175   0.209   5.655  12.007  0.0738 -1.0159 -1.3366
13228TIP3    H261176   0.310   5.634  12.118  0.1858  0.1771 -1.1964
13229TIP3   OH261177   1.963   5.582   3.476 -0.0383 -0.7181  0.4666
13229TIP3    H161178   2.003   5.554   3.558 -0.7237 -3.2884  0.0109
13229TIP3    H261179   1.974   5.508   3.417 -0.6413  0.5882 -1.4081
13230TIP3   OH261180   0.876   2.917  13.144 -0.1088 -0.1230  0.5697
13230TIP3    H161181   0.812   2.846  13.144  0.9833 -1.1514  1.1032
13230TIP3    H261182   0.835   2.987  13.094 -1.3783 -0.9856  0.3606
13231TIP3   OH261183   6.190   5.509   1.380 -0.0738 -0.0284 -0.4529
13231TIP3    H161184   6.202   5.450   1.305 -0.7390 -0.7414 -0.0180
13231TIP3    H261185   6.257   5.481   1.442 -1.1817 -1.2277  0.2760
13232TIP3   OH261186   2.348   2.027  14.746 -0.3306  0.7642 -0.7952
13232TIP3    H161187   2.393   1.945  14.765  1.3861  1.8205 -0.0234
13232TIP3    H261188   2.256   2.002  14.736 -0.2327 -0.9701  1.6206
13233TIP3   OH261189   2.630   2.900   1.442 -0.0427 -0.4164  0.6510
13233TIP3    H161190   2.633   2.866   1.352  0.2967  2.1554 -0.4025
13233TIP3    H261191   2.550   2.862   1.479 -1.0256 -0.3884 -1.2742
13234TIP3   OH261192   4.195   0.178  16.090 -0.1411 -0.8346 -0.3793
13234TIP3    H161193   4.280   0.136  16.083 -0.3227 -1.2060 -0.4209
13234TIP3    H261194   4.214   0.271  16.100  0.2960 -1.0159  0.6244
13235TIP3   OH261195   2.345   6.141  13.249  0.0534  0.3020 -0.3408
13235TIP3    H161196   2.293   6.172  13.175  0.7136 -0.7864 -1.3089
13235TIP3    H261197   2.345   6.045  13.239  0.1898  0.1418  1.0520
13236TIP3   OH261198   2.121   1.837   3.042 -0.1993 -0.2619 -0.1627
13236TIP3    H161199   2.086   1.924   3.060  1.1097  0.1510  0.5162
13236TIP3    H261200   2.212   1.840   3.073  0.1625 -1.5772 -0.9783
13237TIP3   OH261201   0.567   5.699   4.471  0.3062 -0.3158 -0.0617
13237TIP3    H161202   0.515   5.621   4.454 -0.3159  0.2582 -0.8903
13237TIP3    H261203   0.638   5.696   4.407 -1.0232  0.9353 -1.6871
13238TIP3   OH261204   3.674   1.189   1.171  0.5085 -0.0198 -0.0325
13238TIP3    H161205   3.654   1.185   1.077 -2.1771  2.2243  0.3234
13238TIP3    H261206   3.624   1.116   1.209  0.4354 -0.0442 -0.1724
13239TIP3   OH261207   5.633   3.565  15.622  0.3634 -0.0242 -0.3147
13239TIP3    H161208   5.675   3.483  15.647  2.0580  0.9444  0.1579
13239TIP3    H261209   5.616   3.555  15.528 -2.1509 -2.0034  0.2287
13240TIP3   OH261210   1.995   4.725  11.173  0.1523  0.3788  0.5168
13240TIP3    H161211   1.998   4.649  11.116 -0.6876 -0.3025  1.3601
13240TIP3    H261212   2.046   4.792  11.126 -1.3972  0.2164 -1.5580
13241TIP3   OH261213   2.471   0.880  12.503  0.0133 -0.0948 -0.3710
13241TIP3    H161214   2.533   0.939  12.460 -0.8169 -0.5392 -2.2709
13241TIP3    H261215   2.386   0.902  12.465 -0.7551 -0.6182  0.9748
13242TIP3   OH261216   0.766   6.013  13.867  0.3378  0.2679 -0.1418
13242TIP3    H161217   0.857   6.001  13.895  0.3347  1.5419  0.4941
13242TIP3    H261218   0.731   6.077  13.928 -0.9905 -0.1695 -0.4144
13243TIP3   OH261219   4.249   3.761   5.781 -0.0645 -0.1297  0.1741
13243TIP3    H161220   4.251   3.760   5.877  0.8077  1.2297  0.2126
13243TIP3    H261221   4.221   3.850   5.759 -2.0112 -0.9466 -0.8676
13244TIP3   OH261222   4.105   1.751   2.361  0.1670  0.4891  0.1526
13244TIP3    H161223   4.077   1.729   2.273 -0.2631 -1.5357  0.7487
13244TIP3    H261224   4.038   1.713   2.418  2.4403 -1.8555  1.4835
13245TIP3   OH261225   3.047   2.189   4.016  0.1239 -0.3838  0.2692
13245TIP3    H161226   3.068   2.181   3.922  0.4657  2.6236 -0.0116
13245TIP3    H261227   3.128   2.163   4.060 -0.2222 -2.3828 -0.2128
13246TIP3   OH261228   3.934   0.173   5.451 -0.2034 -0.5194 -0.5280
13246TIP3    H161229   3.877   0.170   5.374  0.5179 -1.0778 -1.0549
13246TIP3    H261230   3.907   0.251   5.498 -0.7377 -0.2357 -1.2901
13247TIP3   OH261231   5.646   3.036   0.259  1.1626 -0.3161 -0.7208
13247TIP3    H161232   5.580   2.972   0.285  0.0669  1.1338  0.1791
13247TIP3    H261233   5.727   3.004   0.300  0.6607 -1.1975 -0.3996
13248TIP3   OH261234   1.761   0.627   2.699 -0.4868 -0.0505 -0.4712
13248TIP3    H161235   1.734   0.664   2.615  0.1214  0.7238 -0.3346
13248TIP3    H261236   1.849   0.662   2.714 -0.6861  0.0274  0.6071
13249TIP3   OH261237   3.535   5.400  13.895  0.1072 -0.2579  0.2348
13249TIP3    H161238   3.601   5.470  13.900  0.0799 -0.2456  0.4295
13249TIP3    H261239   3.509   5.398  13.803  0.2048 -0.1002  0.2030
13250TIP3   OH261240   1.915   2.566   0.299 -0.2997  0.1512 -0.5659
13250TIP3    H161241   1.860   2.519   0.362 -0.3787 -1.8213 -1.9844
13250TIP3    H261242   1.879   2.541   0.213  2.4698 -0.8766 -1.5290
13251TIP3   OH261243   5.782   2.906   0.479  0.3089  0.7801  0.6102
13251TIP3    H161244   5.798   2.854   0.558  0.4467  0.0135  0.0908
13251TIP3    H261245   5.825   2.856   0.409 -2.2961 -0.1064 -0.4610
13252TIP3   OH261246   5.004   1.351   6.392  0.1759  0.4025  0.0328
13252TIP3    H161247   4.993   1.329   6.485  0.3222 -0.4768 -0.1464
13252TIP3    H261248   4.974   1.441   6.385 -0.4879  0.2574  0.8118
13253TIP3   OH261249   4.364   2.363   3.940 -0.5037  1.3930  1.3443
13253TIP3    H161250   4.382   2.345   4.032  2.1741  2.1721  1.0490
13253TIP3    H261251   4.388   2.455   3.928  0.7468  0.8858 -0.4538
13254TIP3   OH261252   6.481   4.410   0.125 -0.6432 -0.0455 -0.4630
13254TIP3    H161253   6.412   4.344   0.131 -0.3930 -0.3329 -0.7611
13254TIP3    H261254   6.550   4.368   0.075 -0.5258  0.4809 -0.7424
13255TIP3   OH261255   3.101   1.861  16.591  0.6767 -0.8875 -0.1879
13255TIP3    H161256   3.075   1.910  16.513  2.0903  0.3662  0.0995
13255TIP3    H261257   3.020   1.823  16.624 -0.7850  2.4666  0.4309
13256TIP3   OH261258   4.928   6.627  14.433 -0.4450  0.2979  0.1196
13256TIP3    H161259   4.940   6.678  14.513  0.9798 -0.6891  0.5658
13256TIP3    H261260   4.837   6.598  14.436  0.1432 -1.5856  2.5586
13257TIP3   OH261261   3.189   3.665   4.562 -0.4233 -0.2644  0.3647
13257TIP3    H161262   3.281   3.640   4.573 -0.0961 -0.1610 -1.7468
13257TIP3    H261263   3.185   3.755   4.594  0.1242 -0.3987  0.8250
13258TIP3   OH261264   0.237   4.398   3.694 -0.5341  0.4069 -0.1264
13258TIP3    H161265   0.321   4.438   3.672 -0.5624  1.0204  0.8194
13258TIP3    H261266   0.223   4.420   3.786 -1.8037  0.4385 -0.3039
13259TIP3   OH261267   2.095   6.678  15.203 -0.4616  0.5368  0.5912
13259TIP3    H161268   2.020   6.724  15.164 -0.4723  0.1858  0.1915
13259TIP3    H261269   2.085   6.587  15.174  1.2971  0.8706 -1.2812
13260TIP3   OH261270   4.954   3.840   1.669 -0.2113  0.4237 -0.0998
13260TIP3    H161271   5.038   3.875   1.640 -0.4487  0.3785 -0.8568
13260TIP3    H261272   4.969   3.747   1.684  0.2449  0.6826  1.2415
13261TIP3   OH261273   4.524   0.665  14.092 -0.1683 -0.3899  0.4038
13261TIP3    H161274   4.435   0.680  14.059 -0.6432 -0.2311  1.6859
13261TIP3    H261275   4.563   0.752  14.097  0.4955 -0.5524 -1.2320
13262TIP3   OH261276   2.828   4.425  14.873  0.0203  0.1324 -0.4000
13262TIP3    H161277   2.897   4.449  14.934  1.4277 -0.7284 -1.5818
13262TIP3    H261278   2.833   4.330  14.867  0.5520  0.2368 -2.4974
13263TIP3   OH261279   3.125   6.743  16.071 -0.3154 -0.5186  0.5866
13263TIP3    H161280   3.101   6.819  16.018  0.7678  0.6550  1.6967
13263TIP3    H261281   3.164   6.681  16.008 -2.6900 -0.9122 -0.6032
13264TIP3   OH261282   1.459   2.549   6.136  0.1676  0.5903 -0.5223
13264TIP3    H161283   1.515   2.485   6.180  0.8742  1.7856  0.3985
13264TIP3    H261284   1.512   2.628   6.132 -0.1001  0.7284 -3.0459
13265TIP3   OH261285   1.845   6.471   3.571  0.1247 -0.3836 -0.3510
13265TIP3    H161286   1.796   6.465   3.653  4.2496 -1.9867  2.2699
13265TIP3    H261287   1.799   6.411   3.512 -0.5770 -2.5839  2.2496
13266TIP3   OH261288   5.076   0.103  13.336 -0.2278  0.1651  0.0669
13266TIP3    H161289   5.069   0.191  13.373 -0.5665  0.3489 -0.4305
13266TIP3    H261290   5.075   0.116  13.241 -1.6055 -0.4602 -0.0311
13267TIP3   OH261291   0.205   2.962  15.027  0.5979  0.4474  0.0804
13267TIP3    H161292   0.148   2.942  15.101 -0.2852  1.7660 -0.1894
13267TIP3    H261293   0.272   3.020  15.063  0.1589  1.1021 -0.1415
13268TIP3   OH261294   0.263   1.250  16.989  0.4667  0.3683  0.3214
13268TIP3    H161295   0.340   1.308  16.989  0.4273  0.4441 -0.9809
13268TIP3    H261296   0.241   1.240  17.082  0.2489  2.7533  0.5998
13269TIP3   OH261297   2.719   0.808  11.584  0.0940 -0.1795  0.1189
13269TIP3    H161298   2.815   0.809  11.585  0.1193  0.6588 -1.1083
13269TIP3    H261299   2.695   0.769  11.668  1.4988  0.2223  0.7370
13270TIP3   OH261300   6.028   1.193   3.231  0.0161  0.1556 -0.6809
13270TIP3    H161301   5.960   1.249   3.270  0.6477 -0.6731  1.7442
13270TIP3    H261302   6.100   1.253   3.212 -0.0691  0.4981  0.0374
13271TIP3   OH261303   2.445   5.357  14.073  0.0958 -0.3529  0.2801
13271TIP3    H161304   2.417   5.423  14.009 -0.8264  0.7291  1.7267
13271TIP3    H261305   2.527   5.323  14.038 -0.3101  0.2819 -1.3971
13272TIP3   OH261306   2.590   3.171  14.266  0.4526  0.4849 -0.1522
13272TIP3    H161307   2.509   3.146  14.221  0.2023 -0.1704  0.6504
13272TIP3    H261308   2.657   3.112  14.231 -0.1810 -1.6038  1.9115
13273TIP3   OH261309   3.472   3.941   0.598  0.2017  0.0398  0.3864
13273TIP3    H161310   3.557   3.936   0.553 -0.8380  0.1752 -1.6959
13273TIP3    H261311   3.438   3.852   0.596  0.1380  0.0466  0.9415
13274TIP3   OH261312   3.458   3.855  11.394  0.4392  0.8127 -0.0849
13274TIP3    H161313   3.476   3.848  11.301 -0.6361 -2.1715 -0.1860
13274TIP3    H261314   3.470   3.766  11.427 -1.0821  1.3762  2.2497
13275TIP3   OH261315   1.055   2.646   5.479 -0.1341  0.2609 -0.3341
13275TIP3    H161316   1.149   2.633   5.493 -0.2114  0.7768  0.8177
13275TIP3    H261317   1.042   2.634   5.385  1.0106 -0.2492 -0.4414
13276TIP3   OH261318   1.817   1.394  11.260  0.2662 -0.0307  0.0482
13276TIP3    H161319   1.750   1.364  11.199  1.0783  1.0635 -1.4532
13276TIP3    H261320   1.846   1.315  11.305 -1.3953 -0.6494  0.1018
13277TIP3   OH261321   1.083   6.111  15.376  0.4581 -0.5397 -0.2097
13277TIP3    H161322   1.136   6.157  15.442  1.4730 -0.6224 -0.9295
13277TIP3    H261323   0.994   6.143  15.389  0.9347  0.7020  0.1192
13278TIP3   OH261324   0.910   2.075  12.512 -0.0261  0.0391 -0.1547
13278TIP3    H161325   0.984   2.135  12.501  1.1472 -1.2045  0.6912
13278TIP3    H261326   0.948   1.997  12.552 -1.5646 -1.1834 -0.9810
13279TIP3   OH261327   6.542   3.364  12.056  0.7799  0.7223  0.3833
13279TIP3    H161328   6.503   3.292  12.105  3.9467 -0.0636  1.9328
13279TIP3    H261329   6.466   3.412  12.021 -1.4818 -1.7692  1.5280
13280TIP3   OH261330   3.966   4.135  15.734 -0.4221 -0.2411  0.4977
13280TIP3    H161331   3.956   4.051  15.691  0.3168 -0.7310  1.2503
13280TIP3    H261332   3.926   4.198  15.674 -2.5921 -1.3120  0.7161
13281TIP3   OH261333   0.009   0.014  13.753 -0.1158  0.2017  0.1924
13281TIP3    H161334   0.033   0.085  13.694  0.2881 -0.6022 -0.6478
13281TIP3    H261335   0.078   0.014  13.820 -0.7204  1.2884  0.8316
13282TIP3   OH261336   1.761   0.442   5.825 -0.1002  0.4289 -0.2744
13282TIP3    H161337   1.743   0.419   5.916  0.6361  0.9602  0.0093
13282TIP3    H261338   1.774   0.358   5.781 -2.1014  0.0531 -0.2723
13283TIP3   OH261339   4.896   0.044   3.400 -0.4379  0.2906  0.2730
13283TIP3    H161340   4.931   0.109   3.461  0.2277  0.1240  0.0795
13283TIP3    H261341   4.838  -0.010   3.453  0.6450 -0.2678  0.9343
13284TIP3   OH261342   5.158   1.565   5.996 -0.4368 -0.1876 -0.5392
13284TIP3    H161343   5.205   1.634   5.949  1.9348 -1.5519 -0.3553
13284TIP3    H261344   5.150   1.598   6.085 -0.7432  0.4847 -0.8096
13285TIP3   OH261345   1.194   2.823  15.718  0.1830  0.3830  0.0250
13285TIP3    H161346   1.231   2.780  15.794 -0.2155 -1.7473 -0.9288
13285TIP3    H261347   1.117   2.869  15.751 -0.3826 -1.0809  0.8111
13286TIP3   OH261348   3.998   2.598  14.400 -0.1949 -0.2177  0.1267
13286TIP3    H161349   4.020   2.605  14.307 -1.0844  0.2779 -0.0560
13286TIP3    H261350   4.033   2.513  14.427 -1.6572 -1.2649 -1.1553
13287TIP3   OH261351   3.280   1.161   1.678  0.1699  0.3666 -0.3155
13287TIP3    H161352   3.188   1.137   1.684  0.2199  0.1140 -0.5193
13287TIP3    H261353   3.302   1.196   1.765  0.1580 -0.5539  0.0622
13288TIP3   OH261354   0.330   0.615   5.122  0.1206 -0.7252 -0.1398
13288TIP3    H161355   0.253   0.607   5.178  0.7429 -1.6651  0.6179
13288TIP3    H261356   0.403   0.628   5.183  0.7725 -1.4664 -0.7436
13289TIP3   OH261357   2.753   5.212  13.043  0.0676 -0.0363 -0.0966
13289TIP3    H161358   2.841   5.235  13.072  0.8507 -1.9005 -0.8275
13289TIP3    H261359   2.705   5.197  13.124  0.0883  1.9378  0.3383
13290TIP3   OH261360   3.897   1.888   3.274 -0.4265 -0.0075 -0.2606
13290TIP3    H161361   3.864   1.803   3.304 -1.7086  0.0196 -1.5460
13290TIP3    H261362   3.904   1.940   3.354 -0.4774 -1.0239  0.4287
13291TIP3   OH261363   1.683   5.509   2.851  0.0384 -0.3399  0.5213
13291TIP3    H161364   1.754   5.447   2.835  0.9162  0.5356  0.9029
13291TIP3    H261365   1.715   5.564   2.923 -0.8640  0.3242  0.4334
13292TIP3   OH261366   1.460   0.774  14.828  0.1900  0.7051 -0.4056
13292TIP3    H161367   1.402   0.779  14.752 -0.5462  1.2059  0.1872
13292TIP3    H261368   1.468   0.864  14.858  1.9606  0.7877 -0.9670
13293TIP3   OH261369   2.313   0.591  13.611  0.0157  0.0602  0.5553
13293TIP3    H161370   2.242   0.618  13.668 -0.8924 -1.3146  0.1393
13293TIP3    H261371   2.356   0.519  13.658 -0.6900 -1.0286 -0.3949
13294TIP3   OH261372   6.490   4.208  16.161  0.2086  0.0387  0.2085
13294TIP3    H161373   6.527   4.136  16.111 -2.2528 -1.0239 -0.2030
13294TIP3    H261374   6.518   4.287  16.114  1.1506 -0.7332 -0.5655
13295TIP3   OH261375   6.763   3.252   4.871 -0.2234  0.5424 -0.2797
13295TIP3    H161376   6.840   3.203   4.840 -0.3795  0.3825 -0.4171
13295TIP3    H261377   6.798   3.335   4.903  0.2555 -0.2783  1.4389
13296TIP3   OH261378   1.669   3.674  12.560 -0.3317  0.8621 -0.1144
13296TIP3    H161379   1.670   3.733  12.636 -0.9693 -0.3734  0.8954
13296TIP3    H261380   1.680   3.587  12.598 -0.0345  0.2627 -1.5188
13297TIP3   OH261381   2.392   4.573   4.258  0.1810 -0.1755  0.2377
13297TIP3    H161382   2.422   4.618   4.179 -0.4879 -1.7240 -0.9498
13297TIP3    H261383   2.325   4.631   4.294  0.1817  0.3621 -0.5829
13298TIP3   OH261384   1.680   0.450  11.861  0.0156 -0.3727  0.3476
13298TIP3    H161385   1.653   0.412  11.945 -0.3538 -0.0277  0.3864
13298TIP3    H261386   1.666   0.380  11.797 -0.3711 -0.4028  0.4643
13299TIP3   OH261387   5.843   6.621   1.272 -0.0825  0.7529 -0.4217
13299TIP3    H161388   5.907   6.580   1.213 -1.0008  0.0899 -0.9898
13299TIP3    H261389   5.829   6.708   1.234  0.4020  0.8649 -0.3519
13300TIP3   OH261390   4.521   1.441   3.099  0.1652  0.2750  0.1865
13300TIP3    H161391   4.442   1.483   3.133  0.2864  0.7860 -0.1694
13300TIP3    H261392   4.491   1.356   3.067 -0.3781  0.7708 -0.6436
13301TIP3   OH261393   4.616   2.621   2.705 -0.7075  0.2392 -0.1929
13301TIP3    H161394   4.524   2.648   2.701 -1.4869 -1.9406  1.3542
13301TIP3    H261395   4.618   2.537   2.659  0.4335  0.0565  0.1694
13302TIP3   OH261396   6.694   6.551  12.013  0.3700  0.6051  0.4764
13302TIP3    H161397   6.688   6.462  11.979  1.4998 -0.1336  2.0754
13302TIP3    H261398   6.782   6.556  12.050  0.3358  2.4086  0.3918
13303TIP3   OH261399   3.792   2.797  16.119 -0.3109  0.1156  0.0323
13303TIP3    H161400   3.887   2.811  16.119  0.4426 -3.4353  2.8244
13303TIP3    H261401   3.776   2.746  16.039  0.5356 -0.9686  0.5243
13304TIP3   OH261402   2.209   2.958   4.046 -0.3449  0.0792 -0.0151
13304TIP3    H161403   2.273   2.888   4.061 -0.4634 -0.1691 -0.6263
13304TIP3    H261404   2.228   3.023   4.113  1.8701  0.9424 -1.3895
13305TIP3   OH261405   4.679   4.098   1.406  0.0652  0.3252  0.3478
13305TIP3    H161406   4.685   4.060   1.494  0.6979  1.3705  0.7710
13305TIP3    H261407   4.636   4.182   1.419 -1.1633 -0.1332 -0.5604
13306TIP3   OH261408   1.613   2.541  12.097  0.1277  0.7272 -0.3080
13306TIP3    H161409   1.635   2.462  12.147 -2.1307  0.7666  0.8767
13306TIP3    H261410   1.587   2.508  12.011  0.2573  0.2966 -0.1857
13307TIP3   OH261411   5.757   4.963   0.305 -0.6455 -0.2311 -0.8671
13307TIP3    H161412   5.789   4.927   0.222 -1.0139 -0.5815 -0.8578
13307TIP3    H261413   5.770   5.058   0.295 -3.4482  0.0983 -2.5861
13308TIP3   OH261414   5.619   0.303  13.478  0.1446  0.0850  0.2417
13308TIP3    H161415   5.611   0.216  13.517  0.0081  0.0058  0.0434
13308TIP3    H261416   5.569   0.360  13.536  0.0247 -0.0148  0.2387
13309TIP3   OH261417   3.405   4.894   3.482 -0.2710 -0.5387  0.0258
13309TIP3    H161418   3.425   4.919   3.392 -0.4744  2.2749  0.6593
13309TIP3    H261419   3.490   4.885   3.524 -0.1643  0.7300  0.1281
13310TIP3   OH261420   4.764   2.264   6.413  0.4560 -1.0279 -0.6712
13310TIP3    H161421   4.733   2.335   6.356  0.9256 -0.7469 -0.5824
13310TIP3    H261422   4.744   2.184   6.365 -2.6473 -1.0431  0.3878
13311TIP3   OH261423   1.159   4.611   6.323 -0.0713  0.0531  0.5882
13311TIP3    H161424   1.171   4.562   6.242 -2.2785  0.1340  0.1653
13311TIP3    H261425   1.238   4.665   6.330  0.3043 -0.1706 -1.3389
13312TIP3   OH261426   2.087   6.258  16.416  0.1113  0.3691  0.1071
13312TIP3    H161427   2.017   6.218  16.364 -0.1141 -0.7873  1.2535
13312TIP3    H261428   2.149   6.187  16.431  1.4541  1.3171 -0.6856
13313TIP3   OH261429   3.580   2.279   0.029 -0.3308 -0.1274  0.1200
13313TIP3    H161430   3.516   2.309   0.093 -0.3248 -0.9007  0.4920
13313TIP3    H261431   3.643   2.352   0.023 -1.8685  1.1683 -1.1691
13314TIP3   OH261432   6.078   2.318   1.002  0.0931  0.1595  0.2161
13314TIP3    H161433   6.037   2.398   1.035  1.4835  0.2562  1.8162
13314TIP3    H261434   6.038   2.305   0.916 -1.4133  1.6158  0.6397
13315TIP3   OH261435   2.987   4.151  12.372 -0.3702 -0.3576 -0.1645
13315TIP3    H161436   2.966   4.070  12.419 -0.7419 -0.1209  0.0716
13315TIP3    H261437   2.903   4.184  12.342 -0.1458 -0.4542 -0.9207
13316TIP3   OH261438   2.705   1.931  14.074 -1.1902  0.4949 -0.4775
13316TIP3    H161439   2.785   1.901  14.118 -0.4568  1.1616 -1.3305
13316TIP3    H261440   2.642   1.941  14.145 -0.4118  0.3193  0.2625
13317TIP3   OH261441   0.230   4.769   0.369  0.1641 -0.3499 -0.2586
13317TIP3    H161442   0.247   4.680   0.337 -2.6054 -1.7335  1.7209
13317TIP3    H261443   0.261   4.769   0.459 -2.9132 -0.5661  0.9232
13318TIP3   OH261444   6.414   5.189   1.510 -0.7354  0.3830  0.1803
13318TIP3    H161445   6.475   5.120   1.535 -1.7862 -0.1586  1.3679
13318TIP3    H261446   6.427   5.200   1.416  0.9403  0.0619  0.3420
13319TIP3   OH261447   1.523   2.148   5.917 -0.2630 -0.3107  0.0622
13319TIP3    H161448   1.590   2.086   5.888  1.7960  1.2844  1.1223
13319TIP3    H261449   1.538   2.227   5.864 -0.2744  0.6014  1.3592
13320TIP3   OH261450   0.725   4.560   3.006  0.4750 -0.0797  0.4543
13320TIP3    H161451   0.691   4.526   2.923  0.4320 -1.1662  0.8945
13320TIP3    H261452   0.789   4.494   3.033  0.4539  0.2449  1.3082
13321TIP3   OH261453   2.236   0.673  12.340 -0.1847  0.5961 -0.0342
13321TIP3    H161454   2.189   0.629  12.412 -0.2043  0.3411 -0.1984
13321TIP3    H261455   2.178   0.745  12.315 -1.6226 -1.0325 -1.7371
13322TIP3   OH261456   0.681   5.444  13.908 -0.1325  0.2519 -0.2036
13322TIP3    H161457   0.707   5.478  13.994 -0.5059  1.8275 -0.6810
13322TIP3    H261458   0.639   5.360  13.927 -0.5858  0.7718  1.1986
13323TIP3   OH261459   0.264   1.182   0.095 -0.4439 -0.4153 -0.0162
13323TIP3    H161460   0.206   1.150   0.164 -0.4749 -0.4274 -0.0480
13323TIP3    H261461   0.279   1.274   0.117 -0.8338 -0.2943 -0.2559
13324TIP3   OH261462   5.372   4.075  15.777  0.6161 -0.0534  0.1062
13324TIP3    H161463   5.323   4.028  15.844  0.9743 -0.0500  0.3750
13324TIP3    H261464   5.307   4.097  15.710  0.5662 -1.5630 -0.3773
13325TIP3   OH261465   6.250   3.620   1.081  0.5026  0.1430 -0.5149
13325TIP3    H161466   6.327   3.607   1.026 -0.6145 -0.0330 -2.1053
13325TIP3    H261467   6.247   3.715   1.095  0.8705  0.1767 -0.6384
13326TIP3   OH261468   5.500   2.633  16.160 -0.2924  0.2718 -0.2110
13326TIP3    H161469   5.534   2.699  16.222 -2.0689  0.6410  0.4427
13326TIP3    H261470   5.466   2.685  16.087  0.5706 -0.0957 -0.8913
13327TIP3   OH261471   4.875   1.333   3.315 -0.1100  0.6176 -0.0716
13327TIP3    H161472   4.928   1.322   3.394 -0.0314 -1.8084 -0.4024
13327TIP3    H261473   4.785   1.343   3.348 -0.6532 -3.8455  0.4374
13328TIP3   OH261474   1.818   2.626   0.980 -0.1004 -0.2740 -0.6477
13328TIP3    H161475   1.865   2.552   1.019 -0.4382 -0.2101 -0.1025
13328TIP3    H261476   1.728   2.595   0.973 -0.5698  0.5878  0.9865
13329TIP3   OH261477   0.020   5.922  15.056 -0.0773  0.0400  0.8010
13329TIP3    H161478   0.098   5.878  15.022 -0.3699  0.0131  0.1598
13329TIP3    H261479  -0.013   5.863  15.124 -0.8541 -1.0927 -0.5084
13330TIP3   OH261480   5.367   3.296   0.443 -0.3433 -0.3663  0.2635
13330TIP3    H161481   5.317   3.231   0.394 -0.1499  0.2276 -0.7540
13330TIP3    H261482   5.313   3.375   0.440  0.2932  0.0640 -0.1985
13331TIP3   OH261483   6.467   6.530   0.523  0.1319  0.0021  0.4479
13331TIP3    H161484   6.555   6.494   0.519  0.3349  0.3923  1.1997
13331TIP3    H261485   6.409   6.454   0.521  0.4032 -0.2025 -1.7318
13332TIP3   OH261486   2.908   4.863  13.141  0.0852 -0.3048  0.2976
13332TIP3    H161487   2.979   4.921  13.116  0.3630 -0.3980  0.8639
13332TIP3    H261488   2.842   4.875  13.072  1.1679 -1.1864 -0.9550
13333TIP3   OH261489   0.746   4.246  16.949 -0.5282  0.2091 -0.1576
13333TIP3    H161490   0.720   4.169  17.000  1.3493 -0.5131 -0.2346
13333TIP3    H261491   0.788   4.211  16.871  0.1892  1.3097 -0.2891
13334TIP3   OH261492   0.850   6.329  12.330  0.4017 -0.1397 -0.0860
13334TIP3    H161493   0.835   6.313  12.423  0.3258  0.1930 -0.0421
13334TIP3    H261494   0.801   6.409  12.311  0.4028 -0.2170 -0.4167
13335TIP3   OH261495   5.029   0.407  14.598  0.3876 -0.0059  0.7227
13335TIP3    H161496   5.072   0.474  14.546 -1.0052 -0.2238 -0.8080
13335TIP3    H261497   4.986   0.351  14.533 -1.2455 -0.4120  2.0944
13336TIP3   OH261498   0.999   2.038  14.435 -0.1766 -0.1632 -0.3682
13336TIP3    H161499   1.015   1.974  14.504 -0.8782 -0.9626 -0.9302
13336TIP3    H261500   1.054   2.010  14.362 -1.7700 -1.1822 -1.2371
13337TIP3   OH261501   2.622   1.359   1.141 -0.1651 -0.8472 -0.0340
13337TIP3    H161502   2.624   1.269   1.107 -0.4066 -1.3880  1.3368
13337TIP3    H261503   2.558   1.357   1.212 -1.0384  0.6989 -0.7269
13338TIP3   OH261504   5.934   0.092  14.064  0.1000 -0.0373 -0.1737
13338TIP3    H161505   5.862   0.065  14.122 -0.0737  1.8119  0.5185
13338TIP3    H261506   5.972   0.168  14.106  1.0348  0.3744 -1.6858
13339TIP3   OH261507   5.050   0.996  14.462  0.5062 -0.5296 -0.5404
13339TIP3    H161508   5.046   0.902  14.481  0.8201 -0.2147  1.3844
13339TIP3    H261509   4.961   1.027  14.478  1.0106 -0.0720  1.8765
13340TIP3   OH261510   4.809   0.551   0.144 -0.4753  0.3979  0.9062
13340TIP3    H161511   4.828   0.645   0.144 -1.1187  0.8071 -3.8800
13340TIP3    H261512   4.894   0.510   0.126 -0.5439  0.3033  0.7926
13341TIP3   OH261513   0.442   0.628   1.445 -0.4974 -0.0563  0.1874
13341TIP3    H161514   0.469   0.636   1.537 -1.0968  0.1365  0.3517
13341TIP3    H261515   0.359   0.581   1.448 -0.5147 -0.0594 -0.2589
13342TIP3   OH261516   6.792   4.865  16.788 -0.7115  0.1772 -0.3637
13342TIP3    H161517   6.850   4.853  16.864  0.1450  1.8032 -0.7205
13342TIP3    H261518   6.766   4.957  16.792 -1.2469  0.0979 -1.6428
13343TIP3   OH261519   0.473   5.726   1.364  0.1022  0.2628 -0.0346
13343TIP3    H161520   0.447   5.817   1.378  0.9260  0.6366 -0.8455
13343TIP3    H261521   0.547   5.731   1.303 -0.2151 -0.9893 -0.5516
13344TIP3   OH261522   1.826   4.900  10.544 -0.1378 -0.0263  0.2988
13344TIP3    H161523   1.896   4.852  10.500 -0.8496  0.9526 -2.0673
13344TIP3    H261524   1.867   4.982  10.571 -0.0709  0.0388  0.0068
13345TIP3   OH261525   5.750   0.355   1.701  0.1106  0.1906 -0.0621
13345TIP3    H161526   5.659   0.330   1.683  0.2346  0.3723 -1.0332
13345TIP3    H261527   5.742   0.430   1.760 -0.2783 -1.4385  2.0816
13346TIP3   OH261528   5.472   6.098   4.261 -0.1893  0.1775 -0.3423
13346TIP3    H161529   5.556   6.092   4.214 -0.4118  0.0208 -0.7205
13346TIP3    H261530   5.489   6.162   4.331  0.6157 -0.8046  0.3935
13347TIP3   OH261531   1.996   0.022  14.323 -0.4469  0.0788 -0.2029
13347TIP3    H161532   1.912   0.059  14.351 -1.2118 -0.9155 -1.1340
13347TIP3    H261533   2.053   0.034  14.399 -1.8128 -0.4767  0.9648
13348TIP3   OH261534   0.869   5.257   5.748  0.2154 -0.2317 -0.5347
13348TIP3    H161535   0.950   5.302   5.772  0.5661  0.8057 -3.3289
13348TIP3    H261536   0.896   5.169   5.724  0.0418 -0.8372  1.3086
13349TIP3   OH261537   3.229   6.082  12.202 -0.0301 -0.1153 -0.1680
13349TIP3    H161538   3.206   6.149  12.137 -2.8693 -0.5074  0.3222
13349TIP3    H261539   3.258   6.007  12.150  0.5278  0.5512 -0.8389
13350TIP3   OH261540   4.547   5.439   4.265  0.6909  0.4022  0.6040
13350TIP3    H161541   4.593   5.398   4.192  2.8303 -1.0878  2.6699
13350TIP3    H261542   4.571   5.532   4.259 -0.4906  0.6426 -1.4396
13351TIP3   OH261543   1.142   1.962  16.773 -0.0579  1.1094 -0.3962
13351TIP3    H161544   1.080   1.988  16.841  1.7019 -0.1514  1.8128
13351TIP3    H261545   1.202   1.902  16.817  1.3854  0.5000 -3.0096
13352TIP3   OH261546   5.300   4.781   5.018  0.8061 -0.7198 -0.4412
13352TIP3    H161547   5.291   4.687   5.030 -1.0123 -0.2683  3.0699
13352TIP3    H261548   5.224   4.807   4.966  0.5117 -1.0439 -0.1764
13353TIP3   OH261549   6.736   4.336  16.513  0.3076  0.0457 -0.1201
13353TIP3    H161550   6.808   4.350  16.575  0.5232 -0.0255 -0.3487
13353TIP3    H261551   6.692   4.421  16.508  1.2341  0.4981 -1.0305
13354TIP3   OH261552   3.694   0.946  16.568  0.6410  0.7487 -0.8907
13354TIP3    H161553   3.722   1.034  16.542  1.5925 -0.0427 -2.6246
13354TIP3    H261554   3.624   0.924  16.506  0.4304  0.2584 -0.4853
13355TIP3   OH261555   2.332   3.208  12.878  0.3636  0.3705 -0.3493
13355TIP3    H161556   2.251   3.223  12.830  1.9749  1.4993 -2.9581
13355TIP3    H261557   2.355   3.117  12.859  0.0073  0.2142 -0.0465
13356TIP3   OH261558   6.015   0.812  13.171 -0.8490 -0.3784  0.6607
13356TIP3    H161559   5.921   0.798  13.173 -0.8940 -0.0672  0.6014
13356TIP3    H261560   6.033   0.868  13.246 -0.7829  0.0147  0.3541
13357TIP3   OH261561   6.335   5.050   2.063  0.2457 -0.0488  0.0667
13357TIP3    H161562   6.339   5.143   2.041  1.0180 -0.4921 -1.9057
13357TIP3    H261563   6.414   5.033   2.114  1.9753 -0.2409 -2.4918
13358TIP3   OH261564   6.299   1.301  15.033  0.3919 -0.3281 -0.0126
13358TIP3    H161565   6.320   1.395  15.030 -0.3551 -0.1535 -2.3699
13358TIP3    H261566   6.253   1.289  15.116  3.0177  0.7608  1.7203
13359TIP3   OH261567   4.147   6.002   1.573  0.9413 -0.2189  0.2675
13359TIP3    H161568   4.154   6.092   1.541 -1.4061 -0.6411 -1.6680
13359TIP3    H261569   4.181   5.948   1.501  1.3195 -0.9614  0.9839
13360TIP3   OH261570   0.262   2.216  13.402  0.2303  0.3042  0.0658
13360TIP3    H161571   0.222   2.203  13.488 -2.6961  1.5311 -0.9970
13360TIP3    H261572   0.189   2.212  13.340  2.3513 -1.6397 -2.5640
13361TIP3   OH261573   3.125   2.876  15.584  0.2977 -0.6550  0.2561
13361TIP3    H161574   3.053   2.844  15.638  0.8866  0.3095  1.6610
13361TIP3    H261575   3.170   2.797  15.554 -0.3320 -1.2209  0.7715
13362TIP3   OH261576   4.879   1.881  14.927  0.3840 -0.2147  0.1078
13362TIP3    H161577   4.935   1.936  14.872  1.7550 -2.7967 -1.2573
13362TIP3    H261578   4.928   1.869  15.008  0.2124  0.2748  0.2916
13363TIP3   OH261579   0.950   4.966  10.583  0.4227 -0.2278  0.1578
13363TIP3    H161580   0.999   4.978  10.502  1.5591 -1.7637  0.5715
13363TIP3    H261581   0.965   5.046  10.633  0.9599  0.0936 -0.5114
13364TIP3   OH261582   2.562   4.914   3.133  0.2601  0.1921  0.4071
13364TIP3    H161583   2.618   4.915   3.211 -0.9578  0.2844  1.3044
13364TIP3    H261584   2.560   4.823   3.105  0.5117  0.1206  0.6261
13365TIP3   OH261585   1.520   0.484  16.615 -0.3640  0.4689  0.3103
13365TIP3    H161586   1.501   0.504  16.706 -1.5535 -0.0179  0.1908
13365TIP3    H261587   1.608   0.447  16.616 -1.0431 -1.2286  1.5248
13366TIP3   OH261588   2.113   0.996  16.554 -0.2177  0.2284 -0.0915
13366TIP3    H161589   2.050   1.008  16.484 -1.1122  0.5471  0.7426
13366TIP3    H261590   2.061   1.000  16.635  0.7764 -0.1069  0.5975
13367TIP3   OH261591   1.084   5.139   1.275  0.0103  0.3284 -0.2813
13367TIP3    H161592   1.027   5.193   1.221 -0.0518  0.9371  0.3861
13367TIP3    H261593   1.172   5.153   1.240 -0.0223  0.7707 -0.1916
13368TIP3   OH261594   3.788   2.955   2.332  0.4197 -0.1974 -0.0845
13368TIP3    H161595   3.773   2.869   2.293 -0.0070  0.1816 -0.7698
13368TIP3    H261596   3.842   3.002   2.268  0.4158  0.1457  0.1569
13369TIP3   OH261597   5.658   5.618   6.924 -0.1076  0.0464  0.3022
13369TIP3    H161598   5.646   5.563   7.001  0.6448 -1.0178 -0.3085
13369TIP3    H261599   5.700   5.560   6.860 -1.9282  0.4668 -1.3910
13370TIP3   OH261600   3.420   2.697  15.908 -0.1575 -0.2860  0.4050
13370TIP3    H161601   3.506   2.666  15.934  0.0804 -0.1689 -0.2310
13370TIP3    H261602   3.437   2.769  15.847 -0.7027  0.1827  0.7968
13371TIP3   OH261603   6.509   4.617  11.549  0.6519  0.0421  0.5992
13371TIP3    H161604   6.528   4.705  11.516  0.2758  0.0058  0.2795
13371TIP3    H261605   6.560   4.559  11.492 -0.8042 -0.0974 -0.6324
13372TIP3   OH261606   3.508   1.255  15.405 -0.4653 -0.7227 -0.1397
13372TIP3    H161607   3.512   1.239  15.311  2.1875  0.3147 -0.2661
13372TIP3    H261608   3.436   1.318  15.416 -0.6995 -0.7334 -1.4660
13373TIP3   OH261609   1.273   4.685  13.933  0.6414  0.1384  0.2294
13373TIP3    H161610   1.338   4.730  13.878  2.1464 -0.9703  1.0164
13373TIP3    H261611   1.283   4.727  14.019  0.3883 -0.1183  0.3817
13374TIP3   OH261612   2.873   5.935  11.830 -0.5343  0.2663 -0.3702
13374TIP3    H161613   2.901   6.015  11.787  0.7568 -0.7621 -1.5667
13374TIP3    H261614   2.948   5.875  11.819 -1.4896 -1.1274  0.3987
13375TIP3   OH261615   1.452   0.312  15.794  0.2811  0.0117 -0.5575
13375TIP3    H161616   1.432   0.406  15.787 -0.9732 -0.2994 -1.6392
13375TIP3    H261617   1.373   0.273  15.831 -0.3198 -0.9470 -2.6615
13376TIP3   OH261618   4.212   6.299   5.104 -0.0726  0.1637  0.7259
13376TIP3    H161619   4.226   6.389   5.075  3.3917 -0.8153 -1.1935
13376TIP3    H261620   4.181   6.253   5.027  0.1637 -0.6714  1.1200
13377TIP3   OH261621   5.242   6.395  13.295  0.1435 -0.2073  0.7382
13377TIP3    H161622   5.200   6.327  13.243  3.1974 -1.3554 -0.4380
13377TIP3    H261623   5.277   6.456  13.231  2.8996 -0.9801  1.3716
13378TIP3   OH261624   4.781   2.782  15.520 -0.3990  0.1757  0.5971
13378TIP3    H161625   4.757   2.873  15.541 -0.9629  1.0122 -2.9615
13378TIP3    H261626   4.875   2.778  15.534 -0.3067  1.4464  0.4670
13379TIP3   OH261627   5.125   5.466   0.949  0.1732 -0.0446 -0.3068
13379TIP3    H161628   5.156   5.508   0.869  2.2972  0.4318  0.6982
13379TIP3    H261629   5.069   5.532   0.991  2.2532  1.2964  0.5015
13380TIP3   OH261630   3.641   4.455  11.417  0.5346 -0.1482  0.5805
13380TIP3    H161631   3.677   4.496  11.338 -0.6871 -0.2270 -0.0473
13380TIP3    H261632   3.549   4.484  11.419  0.3449 -0.7772  1.5406
13381TIP3   OH261633   5.027   6.375   1.998 -0.1747  0.2399 -0.3119
13381TIP3    H161634   5.065   6.297   1.958  0.2250 -0.3675  1.1773
13381TIP3    H261635   4.986   6.343   2.079 -0.4259  1.4969  0.0857
13382TIP3   OH261636   5.529   4.090   3.456 -0.1071 -0.6830 -0.4987
13382TIP3    H161637   5.574   4.010   3.432  0.1886 -0.1133 -1.9887
13382TIP3    H261638   5.467   4.064   3.524  2.6610 -1.4391  1.9566
13383TIP3   OH261639   0.212   0.899   0.014  0.6429 -0.5743 -0.9752
13383TIP3    H161640   0.227   0.991   0.035  0.4987 -0.7228 -0.1859
13383TIP3    H261641   0.239   0.890  -0.077 -1.1955  0.7016 -1.7037
13384TIP3   OH261642   0.812   4.974   5.004  0.1697  0.1611 -0.5202
13384TIP3    H161643   0.735   5.030   5.016  0.6880  0.4555  2.0310
13384TIP3    H261644   0.776   4.892   4.970 -1.2148  0.5206  0.0056
13385TIP3   OH261645   4.789   1.476   2.728 -0.1526  0.0755 -0.1566
13385TIP3    H161646   4.870   1.520   2.701  0.4150 -1.0458 -0.3504
13385TIP3    H261647   4.725   1.502   2.662  0.1583  0.6167 -0.2555
13386TIP3   OH261648   5.809   0.661   1.708 -0.3197 -0.4756 -0.6160
13386TIP3    H161649   5.895   0.702   1.719  0.3984 -1.5230 -2.0171
13386TIP3    H261650   5.790   0.623   1.794  0.5334 -0.0758 -0.2389
13387TIP3   OH261651   3.492   6.380  12.786  0.2205 -0.0858  0.0474
13387TIP3    H161652   3.452   6.384  12.873  0.2512 -1.4390  0.1447
13387TIP3    H261653   3.474   6.466  12.748  0.3744  0.6011  1.4538
13388TIP3   OH261654   2.802   1.940   5.045 -0.8826  0.1527  0.4063
13388TIP3    H161655   2.857   1.958   5.121  0.5421  0.5203 -0.6702
13388TIP3    H261656   2.744   2.016   5.039 -0.5639  0.4272  0.7544
13389TIP3   OH261657   5.337   0.255   0.769  0.0322 -0.7330 -0.1992
13389TIP3    H161658   5.290   0.210   0.699  0.3802 -0.0982 -0.8517
13389TIP3    H261659   5.408   0.195   0.792 -0.8908 -1.5589  0.5790
13390TIP3   OH261660   2.855   1.584   1.718 -0.0567  0.1874 -0.2102
13390TIP3    H161661   2.798   1.515   1.682  0.4653 -0.2216 -0.2618
13390TIP3    H261662   2.841   1.578   1.813 -0.0027  0.0018 -0.2134
13391TIP3   OH261663   4.266   3.685   3.342  0.1901 -0.6247  0.1126
13391TIP3    H161664   4.189   3.630   3.355 -0.7880  0.9618  1.5465
13391TIP3    H261665   4.327   3.659   3.411 -0.3369  0.1543  0.8896
13392TIP3   OH261666   1.544   0.869  16.494  0.4194 -0.3011 -0.0109
13392TIP3    H161667   1.453   0.871  16.464  0.6446 -1.2528 -0.8195
13392TIP3    H261668   1.574   0.960  16.486 -1.3263  0.7224  3.2201
13393TIP3   OH261669   2.996   5.409   4.920 -0.4148  0.5342  0.9379
13393TIP3    H161670   2.908   5.371   4.920 -0.7142  1.2097  2.0084
13393TIP3    H261671   3.034   5.383   5.004  0.3679  0.3658  0.5455
13394TIP3   OH261672   3.166   0.517  15.686 -0.0255 -0.5133 -0.2504
13394TIP3    H161673   3.117   0.600  15.689 -0.8883 -1.0323  0.1763
13394TIP3    H261674   3.105   0.454  15.649  0.8593 -0.8289 -1.2376
13395TIP3   OH261675   0.674   0.313  16.235  0.2208 -0.3280 -0.3362
13395TIP3    H161676   0.667   0.295  16.141 -2.7227 -1.0661 -0.0748
13395TIP3    H261677   0.712   0.400  16.240 -0.0161 -0.0731 -2.2550
13396TIP3   OH261678   6.259   5.373  12.073  0.0040 -0.1580  0.3428
13396TIP3    H161679   6.318   5.310  12.030  0.0699 -1.1133  1.7748
13396TIP3    H261680   6.311   5.453  12.081 -0.0635  0.1238 -1.4497
13397TIP3   OH261681   6.230   1.457   1.415 -0.5502  0.2505  0.1831
13397TIP3    H161682   6.304   1.517   1.427 -0.4918  0.3260 -0.5065
13397TIP3    H261683   6.214   1.457   1.321 -0.6461 -0.7074  0.1868
13398TIP3   OH261684   1.790   5.412  16.139 -0.3346 -0.6406 -0.1481
13398TIP3    H161685   1.878   5.397  16.173 -0.4246  0.2773  0.5046
13398TIP3    H261686   1.800   5.406  16.044  1.0665  2.4410 -0.3192
13399TIP3   OH261687   1.493   2.552   3.653 -0.7824 -0.0289  0.0903
13399TIP3    H161688   1.481   2.640   3.689 -2.1019 -0.1235 -0.0962
13399TIP3    H261689   1.429   2.546   3.583 -0.6658 -1.1307  0.0671
13400TIP3   OH261690   0.023   0.963   4.141 -0.1949 -0.5312  0.5950
13400TIP3    H161691   0.036   0.947   4.047  0.4011 -0.4654  0.6610
13400TIP3    H261692  -0.023   0.885   4.173 -2.7919  0.5566 -0.2416
13401TIP3   OH261693   4.569   0.178   2.583  0.4997 -0.0211 -0.2303
13401TIP3    H161694   4.559   0.088   2.552  0.0634 -0.4787  1.1491
13401TIP3    H261695   4.640   0.173   2.648  0.6503  0.6786 -0.3399
13402TIP3   OH261696   1.520   3.725  17.143 -0.0287  0.4144  1.0176
13402TIP3    H161697   1.510   3.816  17.114 -1.4849  0.3883  1.3630
13402TIP3    H261698   1.530   3.731  17.238 -1.5980  0.1714  1.2337
13403TIP3   OH261699   6.321   4.503  14.472 -0.2241 -0.1972  0.1601
13403TIP3    H161700   6.255   4.562  14.509 -0.8570  0.8058 -2.3489
13403TIP3    H261701   6.338   4.538  14.384 -2.3456 -4.8452 -2.5194
13404TIP3   OH261702   4.763   3.496   2.090  0.2201 -0.0559  0.2118
13404TIP3    H161703   4.777   3.577   2.138  0.2215 -0.0266  0.1628
13404TIP3    H261704   4.850   3.468   2.062  0.1341  0.4346 -0.5906
13405TIP3   OH261705   5.871   1.925   5.863 -0.9693  0.3461 -0.2570
13405TIP3    H161706   5.880   1.902   5.771  1.2985  0.6699 -0.1534
13405TIP3    H261707   5.801   1.991   5.864 -1.5693 -0.2324 -1.6230
13406TIP3   OH261708   4.471   5.731   1.703 -0.1599 -0.0830  0.9017
13406TIP3    H161709   4.552   5.718   1.653 -0.0380  1.0888  0.7664
13406TIP3    H261710   4.421   5.651   1.687  0.4574 -0.3210  0.0128
13407TIP3   OH261711   6.766   5.011   6.008  0.1994  0.1006 -0.0508
13407TIP3    H161712   6.724   5.065   6.075 -0.7265 -0.4431 -0.1830
13407TIP3    H261713   6.712   4.933   6.002  1.0479 -0.4765 -0.4638
13408TIP3   OH261714   6.073   2.874   3.569 -0.1337  0.5254  0.2254
13408TIP3    H161715   6.034   2.790   3.545 -1.0304  0.5676  1.4470
13408TIP3    H261716   6.167   2.861   3.558 -0.2951 -0.4834 -0.0481
13409TIP3   OH261717   1.134   3.650   3.701  0.6436 -0.3599 -0.5015
13409TIP3    H161718   1.147   3.648   3.606 -0.7417  0.7299 -0.7533
13409TIP3    H261719   1.167   3.737   3.727 -3.2824  1.4379 -0.7966
13410TIP3   OH261720   6.134   4.143  10.425 -0.0798 -0.4319  0.1429
13410TIP3    H161721   6.095   4.231  10.430  0.6746 -0.1030  0.2866
13410TIP3    H261722   6.079   4.097  10.362 -2.1136 -0.7023  1.9870
13411TIP3   OH261723   5.058   3.203   6.145  0.0749 -0.2984 -0.0287
13411TIP3    H161724   4.967   3.173   6.153 -0.1092  0.1269 -0.4545
13411TIP3    H261725   5.101   3.171   6.224 -1.1051  1.7908  1.5873
13412TIP3   OH261726   2.536   2.294  11.303  0.0030 -0.0552  0.4957
13412TIP3    H161727   2.498   2.206  11.312 -0.8103  0.2121 -0.2030
13412TIP3    H261728   2.469   2.344  11.256  0.3642  1.0045  1.0839
13413TIP3   OH261729   0.284   0.270  11.560  0.5243 -0.2157  0.0114
13413TIP3    H161730   0.259   0.363  11.562 -1.2280 -0.6254 -0.6620
13413TIP3    H261731   0.211   0.225  11.603  1.4972 -1.2729  0.6011
13414TIP3   OH261732   3.707   3.138  10.328 -0.8325  0.1879 -0.1467
13414TIP3    H161733   3.623   3.133  10.373 -0.4652  1.7190  0.7851
13414TIP3    H261734   3.770   3.160  10.396  0.0097  0.9599 -1.1285
13415TIP3   OH261735   3.207   1.038   6.077 -0.1383  0.1334  0.1245
13415TIP3    H161736   3.228   1.072   5.991 -0.5075 -1.0885 -0.4762
13415TIP3    H261737   3.272   0.969   6.092 -0.6331 -0.2782  0.4205
13416TIP3   OH261738   6.527   1.089  14.012 -0.5821  0.3805  0.1879
13416TIP3    H161739   6.616   1.104  13.981 -0.1369  0.6344  1.5246
13416TIP3    H261740   6.508   0.998  13.988  0.0669  0.2977 -0.0332
13417TIP3   OH261741   2.890   3.123   0.334 -0.5467  0.0991 -0.0297
13417TIP3    H161742   2.817   3.109   0.274  0.2511 -3.0602 -0.4427
13417TIP3    H261743   2.957   3.166   0.280 -1.4620  1.5694 -0.0620
13418TIP3   OH261744   1.035   0.843  13.192  0.1515  0.0783  0.4266
13418TIP3    H161745   1.047   0.782  13.120  0.1038  0.0160  0.4710
13418TIP3    H261746   1.124   0.869  13.217  0.2719 -1.3329  1.5695
13419TIP3   OH261747   5.658   2.591  15.173 -0.2843 -0.3214  0.1386
13419TIP3    H161748   5.709   2.511  15.185 -0.2168 -0.4895 -1.1291
13419TIP3    H261749   5.724   2.661  15.169 -0.2755 -0.3213  0.2921
13420TIP3   OH261750   6.634   3.226   2.633  0.0260 -0.3709 -0.2284
13420TIP3    H161751   6.729   3.213   2.626  0.0003  0.1663 -2.1783
13420TIP3    H261752   6.619   3.315   2.601 -1.1563 -0.5245 -0.1436
13421TIP3   OH261753   6.640   4.318   5.760 -0.2302  0.5968 -0.0199
13421TIP3    H161754   6.585   4.379   5.809 -2.3376 -1.0756 -0.1629
13421TIP3    H261755   6.652   4.244   5.820  1.8534  0.8860 -0.0248
13422TIP3   OH261756   1.008   1.443   0.991 -0.3705 -0.5142 -0.8178
13422TIP3    H161757   1.082   1.473   0.938  0.3831 -1.0577 -0.1175
13422TIP3    H261758   0.975   1.366   0.944  0.0722 -0.7873 -0.6896
13423TIP3   OH261759   6.277   3.603   6.229  0.4177  0.6356  0.3743
13423TIP3    H161760   6.361   3.647   6.242  0.5140 -0.3334  4.5571
13423TIP3    H261761   6.223   3.634   6.302 -3.5775  2.3953 -2.9475
13424TIP3   OH261762   1.530   6.824  12.571  0.0392  0.9442 -0.1737
13424TIP3    H161763   1.481   6.747  12.541  1.1275 -0.4022  1.3358
13424TIP3    H261764   1.568   6.860  12.491 -1.8956  0.9738 -1.1346
13425TIP3   OH261765   5.126   2.577  15.094 -0.6227  0.2863 -0.3400
13425TIP3    H161766   5.135   2.493  15.048  0.2483  0.6538 -0.8567
13425TIP3    H261767   5.131   2.553  15.187  0.5287 -0.1498 -0.4943
13426TIP3   OH261768   4.288   5.128  11.114  0.3871 -0.6162 -0.0513
13426TIP3    H161769   4.269   5.082  11.032  0.6924  2.0455 -1.7276
13426TIP3    H261770   4.370   5.090  11.145 -0.0469 -2.0782 -0.5998
13427TIP3   OH261771   2.513   1.687  13.153 -0.0814 -0.4771 -0.7121
13427TIP3    H161772   2.489   1.596  13.173  0.8357 -0.5295  0.1940
13427TIP3    H261773   2.537   1.684  13.060 -1.4698 -0.8439 -1.0897
13428TIP3   OH261774   2.687   5.095   1.476  0.0342  0.0070 -0.7419
13428TIP3    H161775   2.641   5.159   1.422 -1.4782 -0.7593 -0.4149
13428TIP3    H261776   2.706   5.142   1.558 -1.9744 -0.1966 -0.1034
13429TIP3   OH261777   3.453   2.410   0.229 -0.1941 -0.5108 -0.2436
13429TIP3    H161778   3.491   2.497   0.242 -0.8324 -0.2444 -0.1098
13429TIP3    H261779   3.444   2.374   0.318 -0.4694 -0.4766 -0.2568
13430TIP3   OH261780   5.907   2.782  13.412 -0.3701  0.0308 -0.0291
13430TIP3    H161781   5.993   2.745  13.429 -0.8411 -0.4592  1.3903
13430TIP3    H261782   5.866   2.720  13.351  0.2992  0.3201 -0.7888
13431TIP3   OH261783   0.664   3.141  10.909 -0.2608 -0.0118  0.3776
13431TIP3    H161784   0.722   3.216  10.923  0.6111 -0.6777  0.3747
13431TIP3    H261785   0.701   3.071  10.962 -1.3771 -0.3028  0.8116
13432TIP3   OH261786   5.718   0.270   5.983 -0.5267  0.4497 -0.4758
13432TIP3    H161787   5.795   0.288   6.037 -0.1476  0.7262 -1.1103
13432TIP3    H261788   5.649   0.249   6.047  0.7963 -2.8565  0.0736
13433TIP3   OH261789   1.383   3.162   6.107  0.3103 -0.1541  0.1986
13433TIP3    H161790   1.396   3.256   6.095  0.6957 -0.1212  0.8158
13433TIP3    H261791   1.353   3.131   6.021  0.7029  0.4395 -0.1663
13434TIP3   OH261792   6.666   5.602   2.198 -0.3572  0.2320  0.0714
13434TIP3    H161793   6.747   5.552   2.188  0.0422  0.7010  0.8898
13434TIP3    H261794   6.686   5.687   2.160 -0.7418  0.0836 -0.4776
13435TIP3   OH261795   2.378   2.799  14.616  0.4727 -0.2787  0.5930
13435TIP3    H161796   2.407   2.828  14.703  1.2575  1.6959 -0.2490
13435TIP3    H261797   2.423   2.859  14.556  0.8983 -2.3429 -1.2593
13436TIP3   OH261798   4.393   1.259  15.913 -0.3253  0.1099 -0.2215
13436TIP3    H161799   4.427   1.175  15.944  0.4483  0.5081  0.0270
13436TIP3    H261800   4.300   1.257  15.934 -0.4513 -0.9506 -0.8038
13437TIP3   OH261801   5.334   6.006   2.290 -0.3912  0.5254 -0.0416
13437TIP3    H161802   5.346   5.915   2.319  2.1023  0.8538  0.2227
13437TIP3    H261803   5.251   6.033   2.330 -0.2303 -1.0484  1.5108
13438TIP3   OH261804   3.988   0.383   0.360  0.0213 -0.6564  0.2237
13438TIP3    H161805   4.070   0.417   0.324  0.9163 -0.5690  2.2209
13438TIP3    H261806   4.014   0.309   0.413 -1.3972 -1.5350 -0.2507
13439TIP3   OH261807   0.915   6.417   4.734  0.0679 -0.0972 -0.2875
13439TIP3    H161808   0.898   6.412   4.828  0.3145 -0.3710 -0.2542
13439TIP3    H261809   1.011   6.422   4.728 -0.0025  1.2787 -0.4732
13440TIP3   OH261810   4.673   6.455   4.008  0.1392  0.7106 -0.0306
13440TIP3    H161811   4.690   6.542   3.973 -1.3237  0.1942 -2.2205
13440TIP3    H261812   4.616   6.471   4.084  0.0973  1.6706 -0.2558
13441TIP3   OH261813   2.877   0.171  16.273 -0.4784  0.1133  0.2984
13441TIP3    H161814   2.862   0.139  16.362 -1.4633  0.3521  0.2238
13441TIP3    H261815   2.961   0.217  16.279 -0.9981  0.9710  1.3463
13442TIP3   OH261816   6.379   4.480  12.521 -0.0154  0.0154 -0.0012
13442TIP3    H161817   6.411   4.468  12.610 -1.5756 -0.1710  0.5691
13442TIP3    H261818   6.450   4.450  12.465  0.5530 -0.9385  1.2035
13443TIP3   OH261819   5.816   5.778  12.761  0.3341  0.3875  0.5678
13443TIP3    H161820   5.744   5.723  12.792  0.0003  0.7927  0.5200
13443TIP3    H261821   5.774   5.860  12.733  0.6630  0.1811 -0.6011
13444TIP3   OH261822   3.150   3.692   2.811 -0.0982  0.2450 -0.1176
13444TIP3    H161823   3.116   3.720   2.726 -0.2950  0.8980  0.1678
13444TIP3    H261824   3.160   3.773   2.860 -0.7459 -0.1851  0.7570
13445TIP3   OH261825   2.902   4.454   4.382  0.0937  0.1889  1.1776
13445TIP3    H161826   2.997   4.457   4.391  0.4664  0.3307 -1.6634
13445TIP3    H261827   2.872   4.542   4.406  1.1653  1.2988 -1.1664
13446TIP3   OH261828   1.109   3.200  16.273 -0.1539 -0.1478  1.0724
13446TIP3    H161829   1.152   3.126  16.230 -2.0876 -0.2216 -0.9215
13446TIP3    H261830   1.160   3.214  16.353  2.8877 -0.8395 -0.6002
13447TIP3   OH261831   3.037   2.926   4.506  0.9719  0.1696 -0.0323
13447TIP3    H161832   3.038   2.993   4.574  0.3760 -0.8504  1.0061
13447TIP3    H261833   2.948   2.930   4.470  0.8731 -0.1893  0.1677
13448TIP3   OH261834   0.212   5.018  15.178  0.1132 -0.0717 -0.0403
13448TIP3    H161835   0.133   4.995  15.130  1.0374 -1.3120 -1.0304
13448TIP3    H261836   0.254   4.934  15.196  0.7997  0.5123  1.1931
13449TIP3   OH261837   0.509   0.765   2.002 -0.6213 -0.8280 -0.5248
13449TIP3    H161838   0.446   0.703   2.040  0.7922 -1.7573  0.4102
13449TIP3    H261839   0.531   0.728   1.917 -2.5529  0.4044 -1.6680
13450TIP3   OH261840   4.623   2.972   5.274 -0.2082  0.3730 -0.2256
13450TIP3    H161841   4.590   2.918   5.202  1.4296 -2.1285  0.7344
13450TIP3    H261842   4.716   2.984   5.254 -0.2609  1.7787  0.2687
13451TIP3   OH261843   2.785   5.185   4.716 -0.1196 -0.4046 -0.1647
13451TIP3    H161844   2.749   5.262   4.671  0.1304  0.5630  1.2080
13451TIP3    H261845   2.773   5.205   4.809  0.5752 -1.7376  0.2296
13452TIP3   OH261846   4.231   5.427   3.627  0.1899 -0.6371 -0.2749
13452TIP3    H161847   4.187   5.496   3.577 -0.4971 -1.8335 -1.3933
13452TIP3    H261848   4.198   5.437   3.716  1.3032  1.4285 -0.0397
13453TIP3   OH261849   6.253   2.425   3.490  0.1889  0.2167 -0.8341
13453TIP3    H161850   6.290   2.513   3.495  0.7686 -0.0605 -0.0932
13453TIP3    H261851   6.280   2.392   3.404  0.0958  0.7019 -1.0503
13454TIP3   OH261852   6.623   6.613   2.148 -0.2780  0.4153 -0.2113
13454TIP3    H161853   6.563   6.655   2.086  1.5187  1.4660 -1.3277
13454TIP3    H261854   6.710   6.634   2.114  0.7352 -1.7460  0.8903
13455TIP3   OH261855   4.011   4.377   3.455  0.2098 -0.0387 -0.6335
13455TIP3    H161856   4.076   4.319   3.415 -0.0278 -2.2542  1.9312
13455TIP3    H261857   4.048   4.400   3.541 -0.6003  2.0908 -0.7838
13456TIP3   OH261858   1.526   1.001   0.657 -0.4886 -0.2408  0.4516
13456TIP3    H161859   1.558   0.997   0.567 -0.1481  1.9714  0.4380
13456TIP3    H261860   1.604   1.013   0.710 -0.6609 -1.7515  1.1201
13457TIP3   OH261861   6.103   1.247  11.533 -0.2244  0.0070 -0.5310
13457TIP3    H161862   6.066   1.304  11.466  0.7029 -1.9138 -2.8109
13457TIP3    H261863   6.191   1.281  11.547 -0.5683  0.6761  0.0899
13458TIP3   OH261864   2.627   1.528   2.484  0.3865  0.9435  0.6263
13458TIP3    H161865   2.536   1.552   2.500  0.0279  1.0905 -1.4026
13458TIP3    H261866   2.627   1.432   2.487  0.3810  0.9671  1.6206
13459TIP3   OH261867   3.996   6.514  12.938  0.3579  0.2908 -0.2776
13459TIP3    H161868   3.952   6.573  12.998  1.9087  4.0835 -2.4934
13459TIP3    H261869   3.925   6.475  12.886 -0.6757  2.9703 -1.0061
13460TIP3   OH261870   5.035   6.575   5.714 -0.9599 -0.2054  0.4809
13460TIP3    H161871   4.977   6.527   5.654 -2.1338  1.2251  0.4268
13460TIP3    H261872   5.007   6.666   5.707  2.5855  0.9405 -1.0615
13461TIP3   OH261873   4.134   2.895   1.477  0.4454 -0.4943  0.1351
13461TIP3    H161874   4.176   2.809   1.469 -0.4609 -0.8605 -1.0394
13461TIP3    H261875   4.174   2.934   1.554 -0.0302 -2.4875  1.4748
13462TIP3   OH261876   0.386   5.744  12.761  0.4785 -0.2517  0.4813
13462TIP3    H161877   0.414   5.788  12.841  0.3672 -1.9800  1.5329
13462TIP3    H261878   0.430   5.659  12.763 -0.1047 -0.6249 -0.9160
13463TIP3   OH261879   6.544   4.938   3.170  0.4842  0.2200  0.4620
13463TIP3    H161880   6.517   4.852   3.137 -1.3588  1.4477 -1.4443
13463TIP3    H261881   6.488   4.954   3.246  0.3925  0.0206  0.4365
13464TIP3   OH261882   5.879   2.360   3.608  0.0135 -0.1704  0.1995
13464TIP3    H161883   5.910   2.428   3.667 -0.0488  0.4426 -0.4592
13464TIP3    H261884   5.795   2.392   3.576 -0.6231 -1.1369  0.8344
13465TIP3   OH261885   5.471   2.722   3.687 -0.7066 -0.6182 -0.2635
13465TIP3    H161886   5.459   2.815   3.669  1.5087 -0.3360 -0.4761
13465TIP3    H261887   5.471   2.681   3.600 -1.1165 -0.7510 -0.2029
13466TIP3   OH261888   3.481   2.352  15.761  0.1649 -0.0960  0.4990
13466TIP3    H161889   3.552   2.289  15.757  1.5274  1.4188 -0.3292
13466TIP3    H261890   3.472   2.374  15.853  0.5077 -0.5845  0.6498
13467TIP3   OH261891   4.075   6.363  10.803 -0.5300  0.7440 -0.3756
13467TIP3    H161892   3.996   6.317  10.828  0.1604 -0.7712 -0.8610
13467TIP3    H261893   4.143   6.328  10.860  0.2828  0.0999 -1.6862
13468TIP3   OH261894   0.558   0.974  13.383 -0.4331 -0.2090 -0.1453
13468TIP3    H161895   0.488   1.033  13.411  0.4409  0.9390 -0.3070
13468TIP3    H261896   0.594   0.938  13.465  0.4620  1.2021  0.1184
13469TIP3   OH261897   6.025   5.087  15.879 -0.6731 -0.3214 -0.3623
13469TIP3    H161898   5.980   5.114  15.799 -1.9977 -1.3455  0.0041
13469TIP3    H261899   6.109   5.053  15.849 -0.1063  1.5687 -1.0704
13470TIP3   OH261900   1.493   0.220  15.205  0.6025 -0.2986 -0.3242
13470TIP3    H161901   1.418   0.274  15.179  1.1025  1.0312  0.8873
13470TIP3    H261902   1.454   0.152  15.261  0.2142  0.0168 -0.2044
13471TIP3   OH261903   4.665   1.412  15.116  0.3381 -0.9829 -0.3390
13471TIP3    H161904   4.671   1.333  15.170  1.2334 -0.6400  0.0763
13471TIP3    H261905   4.727   1.397  15.044  1.5347 -0.1100  0.4756
13472TIP3   OH261906   5.031   4.881  15.918 -0.3212  0.4317 -0.7917
13472TIP3    H161907   5.054   4.937  15.992  1.2703 -1.1872  0.0133
13472TIP3    H261908   4.937   4.895  15.905 -0.6605  0.7070  1.5802
13473TIP3   OH261909   2.654   2.527   0.737  0.0804  0.3218 -0.6020
13473TIP3    H161910   2.632   2.589   0.807  1.3389 -0.0370  0.1307
13473TIP3    H261911   2.672   2.582   0.661  0.6837  0.8249 -0.0995
13474TIP3   OH261912   4.501   0.690  16.634 -0.4745 -0.6306 -0.1668
13474TIP3    H161913   4.468   0.728  16.716  0.9239  0.1926  0.0430
13474TIP3    H261914   4.576   0.637  16.661 -1.5016 -2.4080 -0.6442
13475TIP3   OH261915   2.790   4.479  12.011  0.3682 -0.4958 -0.3224
13475TIP3    H161916   2.857   4.480  11.943  0.4463  0.1714 -0.2402
13475TIP3    H261917   2.839   4.479  12.093  0.2743 -1.3212 -0.2534
13476TIP3   OH261918   6.007   0.559  12.700  0.0461 -0.1055 -0.4973
13476TIP3    H161919   5.919   0.522  12.694 -0.3030  0.6939 -0.3984
13476TIP3    H261920   5.994   0.654  12.704  0.8913  0.0101 -0.0777
13477TIP3   OH261921   4.875   6.047  12.644  0.5840 -0.2754  0.2583
13477TIP3    H161922   4.908   6.053  12.733 -0.1715  2.6246  0.4370
13477TIP3    H261923   4.951   6.065  12.588  0.6723 -0.2452  0.3882
13478TIP3   OH261924   0.695   1.186  12.752  0.4395 -0.6356  0.5934
13478TIP3    H161925   0.631   1.254  12.733  1.6385  0.5230  0.5797
13478TIP3    H261926   0.653   1.131  12.819 -1.2377 -0.9418 -0.6434
13479TIP3   OH261927   1.867   0.700  13.623 -0.0186  0.0469 -0.5660
13479TIP3    H161928   1.799   0.636  13.601 -0.8265  0.5512  0.3890
13479TIP3    H261929   1.888   0.682  13.714 -1.1815  1.9342  0.1243
13480TIP3   OH261930   1.445   6.245  13.018 -0.2674 -0.0672 -0.1416
13480TIP3    H161931   1.488   6.326  13.045  0.6275 -1.0013  1.4425
13480TIP3    H261932   1.466   6.236  12.925 -0.7946  1.7383 -0.4715
13481TIP3   OH261933   4.454   2.802   3.046 -0.1748  0.3710 -0.4746
13481TIP3    H161934   4.461   2.880   2.991  0.0068  0.9972  0.4180
13481TIP3    H261935   4.543   2.785   3.076 -0.3191  0.2218 -0.1172
13482TIP3   OH261936   1.728   3.289   2.407  0.0001 -0.1555  0.0518
13482TIP3    H161937   1.759   3.213   2.456 -0.5963 -0.4687 -0.0348
13482TIP3    H261938   1.777   3.287   2.325  1.6346  0.8711  0.9580
13483TIP3   OH261939   3.500   1.656   2.834  0.1122  0.1022 -0.1735
13483TIP3    H161940   3.560   1.647   2.908 -0.2411  0.4189  0.1613
13483TIP3    H261941   3.413   1.660   2.875 -0.0630  0.6047 -0.5782
13484TIP3   OH261942   1.758   2.116  16.405  0.3433 -0.1268  0.5672
13484TIP3    H161943   1.681   2.165  16.377  1.3742  0.2223 -1.9690
13484TIP3    H261944   1.733   2.024  16.398  0.0060 -0.0079  0.1642
13485TIP3   OH261945   2.087   2.624   0.838  0.2733  0.0088  0.0325
13485TIP3    H161946   2.101   2.578   0.756 -1.2888  2.5933 -1.8331
13485TIP3    H261947   2.023   2.571   0.886 -0.5125 -0.4125 -1.4479
13486TIP3   OH261948   2.967   4.804   3.827  0.0645  0.1487  0.1716
13486TIP3    H161949   2.881   4.769   3.805  0.1707 -0.3975  0.6127
13486TIP3    H261950   2.958   4.837   3.916  0.1262  0.7196 -0.0286
13487TIP3   OH261951   5.193   5.064  12.472  0.0112  0.2772  0.6107
13487TIP3    H161952   5.277   5.099  12.503 -0.2309  1.4416 -0.0135
13487TIP3    H261953   5.217   5.004  12.401  0.4845 -1.5413  2.2112
13488TIP3   OH261954   2.642   0.344   2.955 -0.0619  0.0511 -0.1158
13488TIP3    H161955   2.626   0.378   2.867  1.0610  1.0069  0.0281
13488TIP3    H261956   2.683   0.259   2.941  1.4072  0.8107 -0.5553
13489TIP3   OH261957   5.963   0.712  13.836  0.0215 -0.5182  0.4143
13489TIP3    H161958   6.036   0.737  13.892  0.3167 -0.4260 -0.0123
13489TIP3    H261959   5.955   0.617  13.849 -1.1780 -0.2307  2.1229
13490TIP3   OH261960   5.426   0.095   3.372  0.1741  0.8820  0.3607
13490TIP3    H161961   5.460   0.012   3.407 -0.8923  0.1334 -0.3206
13490TIP3    H261962   5.338   0.103   3.409  0.4066  1.9218  0.7258
13491TIP3   OH261963   0.797   2.834  10.489  0.9768 -0.2690  0.5083
13491TIP3    H161964   0.740   2.770  10.531  2.4874 -1.6579  0.5329
13491TIP3    H261965   0.787   2.913  10.541  0.1244 -0.8873  1.3164
13492TIP3   OH261966   1.897   1.090  13.114  0.6549  0.1024 -0.1846
13492TIP3    H161967   1.959   1.093  13.186  0.3183  0.4239  0.0951
13492TIP3    H261968   1.880   0.997  13.101  0.7576  0.0406  0.1168
13493TIP3   OH261969   3.305   1.235  13.876  0.5208 -0.2076  0.3968
13493TIP3    H161970   3.342   1.317  13.909 -0.9125  1.5232 -1.9079
13493TIP3    H261971   3.219   1.230  13.917 -0.0760  0.4062 -0.7124
13494TIP3   OH261972   0.066   5.728   4.961  0.5457  0.0142  0.1554
13494TIP3    H161973   0.073   5.740   4.867  0.5034  0.2901  0.1865
13494TIP3    H261974  -0.026   5.746   4.980  0.0432 -2.1162 -0.0477
13495TIP3   OH261975   6.409   2.108  11.715 -0.0635 -0.3376 -0.1397
13495TIP3    H161976   6.413   2.039  11.781 -0.3100 -0.5596 -0.3554
13495TIP3    H261977   6.495   2.107  11.674 -0.3116 -1.0414 -0.6689
13496TIP3   OH261978   3.111   5.363  15.253 -0.4647 -0.0703 -0.1536
13496TIP3    H161979   3.022   5.343  15.223 -0.1565  0.3068 -1.3444
13496TIP3    H261980   3.109   5.344  15.347 -1.4969 -1.1330 -0.3679
13497TIP3   OH261981   3.516   4.834   5.575  0.3622 -0.6596 -0.3449
13497TIP3    H161982   3.445   4.841   5.512  0.5424 -0.4786 -0.5276
13497TIP3    H261983   3.593   4.814   5.523  0.4702 -0.7247 -0.1604
13498TIP3   OH261984   4.664   5.624  12.563 -0.1466 -0.1384 -0.0317
13498TIP3    H161985   4.720   5.639  12.639 -0.4264  2.7916 -0.2980
13498TIP3    H261986   4.585   5.675  12.581 -0.3284  0.4096 -2.1536
13499TIP3   OH261987   1.851   2.636  14.765  0.4543  0.4259  0.3468
13499TIP3    H161988   1.780   2.635  14.700  0.0289  1.2528  0.7862
13499TIP3    H261989   1.928   2.664  14.715  0.2620  0.4603  0.0667
13500TIP3   OH261990   5.938   6.676   4.959  0.3577 -0.0753 -0.6203
13500TIP3    H161991   6.022   6.701   4.921  0.1140  0.5309 -0.7648
13500TIP3    H261992   5.886   6.756   4.957 -0.7945 -0.8023 -2.0398
13501TIP3   OH261993   4.952   6.085   2.178 -0.5042 -0.3730  0.1352
13501TIP3    H161994   4.904   6.168   2.189 -1.9790 -1.2825  0.8729
13501TIP3    H261995   4.994   6.070   2.263 -0.4231 -0.4841  0.0754
13502TIP3   OH261996   4.692   4.434   4.261  0.1608 -0.2643 -0.2001
13502TIP3    H161997   4.701   4.528   4.274 -0.7363 -0.2117  0.0919
13502TIP3    H261998   4.599   4.416   4.276  0.1812 -1.0854 -0.9423
13503TIP3   OH261999   1.170   3.921  11.422 -0.0265 -0.0050 -0.2908
13503TIP3    H162000   1.117   3.982  11.474  1.9948 -0.3089  2.3525
13503TIP3    H262001   1.130   3.835  11.437 -1.0345  0.2441 -1.4745
13504TIP3   OH262002   3.547   3.677   2.095  0.2275 -0.5954 -0.3644
13504TIP3    H162003   3.577   3.761   2.129 -0.7767 -0.3280 -0.1002
13504TIP3    H262004   3.524   3.693   2.004 -0.7530 -0.3609 -0.0922
13505TIP3   OH262005   6.068   6.815   4.588 -0.3224  0.0278  0.4443
13505TIP3    H162006   5.978   6.787   4.603  0.0988 -0.3124  2.7209
13505TIP3    H262007   6.064   6.871   4.511 -2.3586 -0.5455  0.0887
13506TIP3   OH262008   4.703   1.950  15.160 -0.0641  0.3117  0.1696
13506TIP3    H162009   4.793   1.919  15.169 -0.4786 -0.7019  1.0277
13506TIP3    H262010   4.679   1.928  15.070 -0.1400 -1.3776  0.5684
13507TIP3   OH262011   0.364   0.813   3.727  0.2656  0.4148 -0.6437
13507TIP3    H162012   0.299   0.743   3.729 -0.8864  1.4376  1.6585
13507TIP3    H262013   0.447   0.770   3.746 -0.1773 -0.5479 -0.8500
13508TIP3   OH262014   6.496   1.600  11.613  0.0476 -0.6380  0.2427
13508TIP3    H162015   6.427   1.661  11.588 -1.9382 -3.0931 -0.6762
13508TIP3    H262016   6.556   1.652  11.667 -1.5654  2.0334 -0.3887
13509TIP3   OH262017   0.282   2.842  16.244  0.3454 -0.2466  0.0483
13509TIP3    H162018   0.230   2.869  16.169 -0.5659 -0.7677  0.4753
13509TIP3    H262019   0.327   2.921  16.274 -2.0969  0.8078  1.1644
13510TIP3   OH262020   5.417   6.541  16.091  0.3891  0.1949  0.4125
13510TIP3    H162021   5.358   6.543  16.167 -0.1501  0.6730 -0.0122
13510TIP3    H262022   5.483   6.608  16.111 -0.1036  0.7619  0.1925
13511TIP3   OH262023   2.685   0.163   1.906 -0.0756 -0.5862 -0.3086
13511TIP3    H162024   2.590   0.152   1.902 -0.1108 -0.1554 -0.8781
13511TIP3    H262025   2.705   0.164   1.999 -0.5588 -1.2486 -0.1926
13512TIP3   OH262026   3.572   6.242   4.583 -0.5387 -0.1149 -0.2931
13512TIP3    H162027   3.533   6.295   4.652  0.1831 -0.7147  0.6019
13512TIP3    H262028   3.643   6.297   4.549 -2.7083  1.4505 -2.6923
13513TIP3   OH262029   2.230   1.673  14.083 -0.5010  0.3003 -0.5135
13513TIP3    H162030   2.306   1.727  14.062 -0.7313  0.5879 -0.6095
13513TIP3    H262031   2.174   1.680  14.006 -2.2621  2.9129  0.8665
13514TIP3   OH262032   4.676   4.786   1.904  0.4290 -0.0865 -0.5613
13514TIP3    H162033   4.705   4.695   1.898  2.5862  0.4240  0.8167
13514TIP3    H262034   4.683   4.807   1.997 -1.6001  1.0435 -0.6090
13515TIP3   OH262035   2.820   1.602   3.361  0.2499  0.1600  0.1446
13515TIP3    H162036   2.776   1.681   3.330  0.9310  0.6862  0.4780
13515TIP3    H262037   2.824   1.612   3.456  1.7171  0.4814  0.0775
13516TIP3   OH262038   6.720   2.222   2.407  0.0820 -0.0284  0.4405
13516TIP3    H162039   6.709   2.148   2.467  1.7462  0.6199  1.6214
13516TIP3    H262040   6.703   2.185   2.320  0.9705 -1.8511  0.9818
13517TIP3   OH262041   1.987   3.335  17.032  0.7568 -0.0784 -0.1277
13517TIP3    H162042   2.030   3.413  17.067  0.0165 -0.0496  0.7780
13517TIP3    H262043   2.052   3.294  16.975  1.6797  0.3852  0.5788
13518TIP3   OH262044   6.739   1.584  16.175  0.7038 -0.4485  0.2208
13518TIP3    H162045   6.731   1.549  16.087  1.3907 -0.3196  0.1023
13518TIP3    H262046   6.738   1.507  16.232 -1.1971 -0.4701  0.2376
13519TIP3   OH262047   3.853   1.095  12.775 -0.1487  0.5976  0.0915
13519TIP3    H162048   3.792   1.021  12.773 -1.8821  1.9764 -1.1320
13519TIP3    H262049   3.900   1.090  12.692 -1.1503  1.5312 -0.5533
13520TIP3   OH262050   2.377   5.806  15.988  0.6323 -0.2196  0.0037
13520TIP3    H162051   2.400   5.763  16.070 -1.7379 -2.5889 -0.4100
13520TIP3    H262052   2.281   5.803  15.986  0.5892  0.5034 -2.4633
13521TIP3   OH262053   1.676   2.491   2.794  0.3790 -0.1768 -0.0451
13521TIP3    H162054   1.688   2.486   2.888  0.6010  1.5973  0.0659
13521TIP3    H262055   1.758   2.458   2.757  0.8289  0.3958  0.4220
13522TIP3   OH262056   3.846   3.654   3.219  0.2993  0.3831 -0.3589
13522TIP3    H162057   3.814   3.653   3.129 -0.6617 -0.7088 -0.0387
13522TIP3    H262058   3.936   3.622   3.213 -0.2085 -1.0325 -0.8066
13523TIP3   OH262059   0.906   3.575   4.144 -0.0659  0.4488  0.6827
13523TIP3    H162060   0.899   3.489   4.185 -0.6372 -0.0321 -0.3853
13523TIP3    H262061   0.931   3.557   4.053  1.5796  1.5056  0.8667
13524TIP3   OH262062   6.201   0.130  16.071  0.0805  0.0429 -0.0404
13524TIP3    H162063   6.267   0.080  16.120  0.4568  0.2933 -0.2828
13524TIP3    H262064   6.229   0.221  16.080  0.5505  0.0388 -1.2896
13525TIP3   OH262065   5.590   3.100   1.350  0.0604 -0.4107  0.1147
13525TIP3    H162066   5.614   3.014   1.384 -2.2234 -0.7421  1.0797
13525TIP3    H262067   5.534   3.081   1.275  0.7359  0.2720 -0.5756
13526TIP3   OH262068   2.909   5.739  13.301  0.0954 -0.1408 -0.4706
13526TIP3    H162069   2.974   5.680  13.263  0.2108 -1.5985  1.7525
13526TIP3    H262070   2.919   5.726  13.396 -0.5776  2.7599  0.0808
13527TIP3   OH262071   4.087   5.857   2.953 -0.1201 -0.0126  0.4255
13527TIP3    H162072   4.073   5.815   2.868  0.8399  1.9619 -0.7801
13527TIP3    H262073   4.005   5.844   3.000 -1.3939  0.4332 -1.5486
13528TIP3   OH262074   4.874   4.829   0.694 -0.1620  0.0044 -0.4459
13528TIP3    H162075   4.825   4.894   0.744  3.3196  1.1193  1.8063
13528TIP3    H262076   4.906   4.767   0.760  1.8107 -0.4117 -1.7189
13529TIP3   OH262077   3.625   0.182   2.235  0.1104 -0.5935  0.2153
13529TIP3    H162078   3.685   0.151   2.303 -0.2156  0.5965  1.0583
13529TIP3    H262079   3.655   0.271   2.215 -0.3771 -0.5881 -0.5391
13530TIP3   OH262080   2.817   6.309  12.478  0.4539  0.2689 -0.0320
13530TIP3    H162081   2.873   6.256  12.421 -1.1215 -1.9391  0.3376
13530TIP3    H262082   2.869   6.323  12.557  1.6321  1.0209 -0.9057
13531TIP3   OH262083   3.248   2.743  13.982  0.2134 -0.3783 -0.3649
13531TIP3    H162084   3.221   2.772  13.895 -1.8429  0.5795  0.5246
13531TIP3    H262085   3.341   2.724  13.973 -0.2231 -1.6803 -3.1090
13532TIP3   OH262086   0.874   4.117  16.704  0.2310 -0.3765  0.3479
13532TIP3    H162087   0.846   4.177  16.635 -0.3038  0.3654  1.1931
13532TIP3    H262088   0.839   4.032  16.677  1.7098 -0.5301 -1.2964
13533TIP3   OH262089   0.586   4.545  16.380 -0.5632 -0.6744 -0.0704
13533TIP3    H162090   0.660   4.526  16.322  0.5035  0.6651  0.7900
13533TIP3    H262091   0.563   4.461  16.418  1.0623 -1.0062  0.2475
13534TIP3   OH262092   5.256   2.811   3.138 -0.4041  0.1108 -0.1911
13534TIP3    H162093   5.329   2.783   3.083 -1.3962 -0.3251 -1.3289
13534TIP3    H262094   5.178   2.780   3.091 -1.2638 -1.1811  1.9364
13535TIP3   OH262095   5.014   6.708  16.947 -0.2641 -0.1918  0.1139
13535TIP3    H162096   5.083   6.772  16.934 -2.0129  1.4621 -1.6648
13535TIP3    H262097   5.003   6.667  16.861 -1.0136 -0.9500  0.5550
13536TIP3   OH262098   1.423   2.664  10.864 -0.1436 -0.3527 -0.3040
13536TIP3    H162099   1.402   2.576  10.832  0.4812 -0.7758  0.4386
13536TIP3    H262100   1.472   2.650  10.944 -1.6433  0.6874  0.8605
13537TIP3   OH262101   0.858   0.802  12.962 -0.4122  0.2002  0.5970
13537TIP3    H162102   0.938   0.786  12.913 -1.1056 -0.7502 -0.2596
13537TIP3    H262103   0.874   0.885  13.008  0.4631  0.8202 -0.7704
13538TIP3   OH262104   2.582   2.403   4.013 -0.1829 -0.3186 -0.4900
13538TIP3    H162105   2.521   2.362   4.074  0.3645  0.1974  0.4281
13538TIP3    H262106   2.669   2.376   4.045  0.0844 -0.8697 -1.6440
13539TIP3   OH262107   0.427   6.126  12.281  0.0875  0.4499  0.0404
13539TIP3    H162108   0.406   6.043  12.238 -2.6922  0.4144  1.2486
13539TIP3    H262109   0.484   6.100  12.355 -0.2685 -0.3164  0.0603
13540TIP3   OH262110   1.798   0.833  16.856  0.0667  0.2352 -0.0252
13540TIP3    H162111   1.841   0.904  16.904 -2.2907  1.7609 -0.0150
13540TIP3    H262112   1.743   0.790  16.921 -2.9345  2.1376 -1.0872
13541TIP3   OH262113   0.558   3.286   2.601 -0.0077 -0.3674 -0.4887
13541TIP3    H162114   0.621   3.214   2.608  1.4856  0.8656 -0.6557
13541TIP3    H262115   0.605   3.362   2.635 -1.6402  0.4946 -0.0585
13542TIP3   OH262116   3.552   4.673  13.574 -0.5541  0.3546  0.2106
13542TIP3    H162117   3.596   4.758  13.568 -1.1229  0.6007 -0.5307
13542TIP3    H262118   3.587   4.623  13.501 -0.0405 -0.1480  0.7882
13543TIP3   OH262119   4.111   4.586  11.798 -0.1434 -0.1583  0.0828
13543TIP3    H162120   4.144   4.623  11.716 -1.3197  1.0873  0.1316
13543TIP3    H262121   4.032   4.539  11.773 -0.0944 -0.4201  0.4121
13544TIP3   OH262122   1.300   0.575  13.498 -0.5749  0.2561 -0.2217
13544TIP3    H162123   1.243   0.506  13.464 -1.5870  1.1697 -0.4607
13544TIP3    H262124   1.366   0.588  13.430 -1.1854  0.4432 -0.7929
13545TIP3   OH262125   0.133   3.362   0.295 -0.4028 -0.2769  0.2808
13545TIP3    H162126   0.152   3.439   0.241 -0.8224 -0.3544  0.0271
13545TIP3    H262127   0.038   3.357   0.299 -0.3862 -0.1099  1.2572
13546TIP3   OH262128   4.673   6.325   0.515  0.4970 -0.2511  0.2622
13546TIP3    H162129   4.712   6.238   0.521  0.9734  0.0503  1.8482
13546TIP3    H262130   4.743   6.379   0.477  0.5964 -0.3111  0.3608
13547TIP3   OH262131   4.819   1.246   0.218 -0.0468  0.7449  0.3978
13547TIP3    H162132   4.765   1.317   0.252 -0.7956  0.3680  0.0080
13547TIP3    H262133   4.759   1.172   0.209  0.6840  0.1073  0.6360
13548TIP3   OH262134   0.992   6.686  11.918  0.1533  0.2930  0.4703
13548TIP3    H162135   0.905   6.711  11.885  0.1585 -0.3464 -0.0477
13548TIP3    H262136   1.020   6.761  11.971 -1.0636  0.1774  1.3303
13549TIP3   OH262137   4.630   0.069   5.072 -0.5421 -0.6184 -0.3264
13549TIP3    H162138   4.678   0.113   5.003 -0.0077 -3.8232 -2.2078
13549TIP3    H262139   4.685   0.077   5.149  0.5601  0.0232 -1.1556
13550TIP3   OH262140   2.123   0.984  17.166  0.7966  0.1352 -0.3666
13550TIP3    H162141   2.204   1.017  17.127  1.2856 -1.1201 -0.4519
13550TIP3    H262142   2.055   1.006  17.103  1.2687  0.0113 -0.9223
13551TIP3   OH262143   4.681   1.617   0.719 -0.2400  0.1879  0.3899
13551TIP3    H162144   4.648   1.705   0.735  1.0632  0.7791 -0.0354
13551TIP3    H262145   4.675   1.606   0.624 -2.0737 -0.8913  0.5998
13552TIP3   OH262146   6.286   0.682  12.696  0.2846 -0.0342 -0.3314
13552TIP3    H162147   6.341   0.603  12.702 -0.7237 -0.7071  0.4900
13552TIP3    H262148   6.270   0.706  12.787  0.1916  0.8639 -0.5771
13553TIP3   OH262149   3.512   2.418   1.620  0.4127  0.7212 -0.6054
13553TIP3    H162150   3.461   2.440   1.542  0.0190 -1.1500 -0.9324
13553TIP3    H262151   3.446   2.402   1.688  0.4906 -1.7491 -1.0386
13554TIP3   OH262152   3.003   0.721   6.155 -0.2688 -0.6792  0.0799
13554TIP3    H162153   2.950   0.800   6.161  0.0634 -0.5232  4.1787
13554TIP3    H262154   2.940   0.650   6.146 -0.9780 -0.2392  1.3386
13555TIP3   OH262155   2.456   1.353   4.387 -0.2007  0.1892  0.5399
13555TIP3    H162156   2.543   1.327   4.419  0.3636  2.1878  0.7113
13555TIP3    H262157   2.404   1.273   4.396  1.5556 -1.0365  0.5584
13556TIP3   OH262158   3.122   5.557   3.983  0.4726  0.2532 -0.1389
13556TIP3    H162159   3.109   5.527   4.073 -1.0998  1.0084 -0.0810
13556TIP3    H262160   3.179   5.491   3.944  3.0669  1.0536  1.9954
13557TIP3   OH262161   1.707   5.280  11.591 -0.1706  0.5088 -0.2400
13557TIP3    H162162   1.765   5.204  11.595  0.3952  0.9590  0.5880
13557TIP3    H262163   1.698   5.307  11.683 -1.9578  0.2677 -0.3188
13558TIP3   OH262164   4.727   2.013   2.198 -0.3009 -0.8521  0.0524
13558TIP3    H162165   4.647   2.052   2.164  0.0429  0.8312  1.0797
13558TIP3    H262166   4.750   1.946   2.134 -2.3305 -1.1490 -0.4430
13559TIP3   OH262167   1.046   1.321   4.867 -0.1085  0.9872  0.1092
13559TIP3    H162168   1.095   1.331   4.785 -0.5273 -0.0350 -0.2783
13559TIP3    H262169   0.976   1.260   4.845 -0.9111  1.5909  0.9397
13560TIP3   OH262170   6.645   2.937  11.818  0.2476 -0.2778 -0.2884
13560TIP3    H162171   6.584   2.875  11.858  0.0888  1.2922  2.0481
13560TIP3    H262172   6.688   2.886  11.749 -0.4491 -2.7636  0.9830
13561TIP3   OH262173   6.402   6.517   3.261  0.2588 -0.2950 -0.2221
13561TIP3    H162174   6.493   6.544   3.260 -0.4292  2.3233 -2.2935
13561TIP3    H262175   6.402   6.428   3.225  2.0219 -0.7445  0.7836
13562TIP3   OH262176   4.064   2.217  11.874 -0.5252 -0.4089 -0.2839
13562TIP3    H162177   4.083   2.281  11.942 -0.8970  0.7199 -1.2016
13562TIP3    H262178   3.971   2.228  11.855 -0.6083 -1.2618 -0.4228
13563TIP3   OH262179   2.598   4.109   0.170  0.1886  0.3618 -0.0431
13563TIP3    H162180   2.645   4.124   0.088 -0.0986 -0.6141 -0.3927
13563TIP3    H262181   2.629   4.179   0.228 -0.3996  1.7272 -1.3059
13564TIP3   OH262182   4.991   5.207   5.279  0.6419 -0.0229 -0.3286
13564TIP3    H162183   5.072   5.200   5.328  1.7025  1.6982 -1.7209
13564TIP3    H262184   4.942   5.277   5.321  0.3197 -0.3689 -0.1141
13565TIP3   OH262185   1.455   0.713   0.121  0.2071 -0.1414 -0.0995
13565TIP3    H162186   1.388   0.781   0.111 -0.5740 -0.8712  0.0550
13565TIP3    H262187   1.427   0.643   0.062  0.3523 -0.8153  0.6181
13566TIP3   OH262188   5.818   6.642  12.787 -0.1383 -0.1597 -0.1722
13566TIP3    H162189   5.784   6.705  12.850 -2.3938 -1.1324 -0.3207
13566TIP3    H262190   5.861   6.575  12.840 -1.4175 -0.6123  0.3212
13567TIP3   OH262191   3.661   2.983   3.643 -0.7784 -0.3507 -0.8232
13567TIP3    H162192   3.608   2.909   3.613 -1.9867 -0.8681  2.2261
13567TIP3    H262193   3.604   3.059   3.633 -1.9853 -0.8068  1.7787
13568TIP3   OH262194   1.877   2.373  11.926 -0.2218  0.1953  0.0596
13568TIP3    H162195   1.857   2.395  12.017  0.3798  1.1543 -0.0291
13568TIP3    H262196   1.950   2.430  11.903  0.7224 -1.1951 -0.5231
13569TIP3   OH262197   2.532   5.555   4.256  0.2668 -0.0224  0.0875
13569TIP3    H162198   2.471   5.517   4.320 -0.5295  2.8163  1.1855
13569TIP3    H262199   2.616   5.513   4.275 -0.8905 -2.6024 -0.1503
13570TIP3   OH262200   3.630   3.552  16.102 -0.0241 -0.0211 -0.0995
13570TIP3    H162201   3.604   3.640  16.130 -0.4726 -0.4265  0.7902
13570TIP3    H262202   3.673   3.566  16.018 -1.8102  0.8438 -0.9231
13571TIP3   OH262203   4.300   6.187   0.671 -0.6700 -0.4324  0.0988
13571TIP3    H162204   4.226   6.217   0.724  0.1345 -0.3322  1.2036
13571TIP3    H262205   4.364   6.156   0.735  0.1374 -0.7673 -0.8489
13572TIP3   OH262206   6.216   2.341  12.200  0.0106  0.2225 -0.2938
13572TIP3    H162207   6.237   2.395  12.124  0.7838 -1.6564 -1.5033
13572TIP3    H262208   6.122   2.354  12.214  0.3496  2.6537  0.1641
13573TIP3   OH262209   6.656   2.598  11.779  0.0181  0.1103  1.0935
13573TIP3    H162210   6.716   2.650  11.724  1.8455 -0.2260  2.6609
13573TIP3    H262211   6.570   2.615  11.742  0.9787  1.2089 -0.8306
13574TIP3   OH262212   1.488   3.709  14.751 -0.4272 -0.0340 -0.2902
13574TIP3    H162213   1.511   3.786  14.699 -0.0786  1.7735  2.3269
13574TIP3    H262214   1.474   3.743  14.840  0.4153 -3.0717  1.1522
13575TIP3   OH262215   4.499   1.796   4.525 -0.2771  0.3078 -0.0522
13575TIP3    H162216   4.408   1.821   4.514 -0.0239  0.9709 -0.6898
13575TIP3    H262217   4.534   1.858   4.589 -0.1409  0.3965 -0.2098
13576TIP3   OH262218   1.097   2.135   2.247 -0.5864 -0.3743 -0.3146
13576TIP3    H162219   1.019   2.081   2.252  0.1130 -1.4646 -0.7457
13576TIP3    H262220   1.069   2.214   2.201 -1.2043 -1.2078 -1.4229
13577TIP3   OH262221   2.698   4.396   4.639  0.0163  0.4297  0.7201
13577TIP3    H162222   2.737   4.428   4.558  1.3463 -1.2776  0.6206
13577TIP3    H262223   2.611   4.435   4.641 -0.7138 -0.7476 -2.3702
13578TIP3   OH262224   6.823   6.525   2.546 -0.4712  0.0516 -0.0283
13578TIP3    H162225   6.841   6.495   2.457 -1.9229 -1.4575  0.1423
13578TIP3    H262226   6.762   6.460   2.582  1.8103 -0.7171  2.8619
13579TIP3   OH262227   1.519   5.257   0.869  0.1294 -0.4333  0.6303
13579TIP3    H162228   1.507   5.339   0.823 -3.4132 -0.6685  0.8323
13579TIP3    H262229   1.439   5.207   0.851  1.1419 -2.9102  2.3398
13580TIP3   OH262230   5.083   2.668  14.835  0.3301 -0.3842  0.1088
13580TIP3    H162231   5.091   2.618  14.917 -0.4311 -1.7329 -0.6057
13580TIP3    H262232   5.003   2.719  14.846  0.6313  0.0137  0.4930
13581TIP3   OH262233   0.927   5.996  14.440 -0.3351 -0.1285 -0.3928
13581TIP3    H162234   0.956   6.041  14.361  0.4826 -0.7781 -0.4738
13581TIP3    H262235   0.920   6.065  14.506  0.2283  0.2301 -0.7031
13582TIP3   OH262236   6.827   2.894   2.864 -0.2265  0.5738  0.2750
13582TIP3    H162237   6.791   2.983   2.873  0.6643  0.8720  0.9476
13582TIP3    H262238   6.783   2.843   2.932  0.2616  0.8311  0.7933
13583TIP3   OH262239   2.292   6.709  14.217 -0.4296  0.1827  0.0693
13583TIP3    H162240   2.268   6.677  14.305 -0.9646 -1.5804 -0.6556
13583TIP3    H262241   2.235   6.659  14.158 -1.3373  2.5718 -1.2289
13584TIP3   OH262242   2.906   0.715   0.930  0.0483 -0.2194 -0.2759
13584TIP3    H162243   2.985   0.678   0.971 -1.0281 -1.3475  0.8651
13584TIP3    H262244   2.868   0.641   0.882 -1.4841 -0.3141  1.0215
13585TIP3   OH262245   6.656   3.921   5.702  0.3869 -0.0749  0.2362
13585TIP3    H162246   6.742   3.887   5.676  0.2668 -0.4466  0.3212
13585TIP3    H262247   6.606   3.924   5.620  0.4339  0.0032  0.2100
13586TIP3   OH262248   5.325   3.884   5.563 -0.1483 -0.3456  0.0826
13586TIP3    H162249   5.322   3.970   5.605  1.2795  1.0026 -2.3556
13586TIP3    H262250   5.245   3.879   5.510  0.2822 -0.0178 -0.6156
13587TIP3   OH262251   3.519   5.276   3.172  0.0298 -0.0872  0.3056
13587TIP3    H162252   3.480   5.338   3.111  0.6396  0.2673  0.2700
13587TIP3    H262253   3.505   5.315   3.258  1.0761  0.4675  0.2257
13588TIP3   OH262254   6.302   2.578  15.904 -0.1397 -0.0411 -0.9460
13588TIP3    H162255   6.215   2.545  15.929 -0.4526  0.4203 -1.4196
13588TIP3    H262256   6.296   2.673  15.917  0.9451 -0.1809  0.9920
13589TIP3   OH262257   5.169   1.396   1.246  0.3171  0.2569  0.1101
13589TIP3    H162258   5.133   1.315   1.212 -0.0298  0.6104 -0.3801
13589TIP3    H262259   5.236   1.422   1.182 -1.9838  2.1974 -1.7292
13590TIP3   OH262260   0.784   5.665   4.294 -0.6872 -0.0276 -0.1341
13590TIP3    H162261   0.818   5.584   4.256 -3.0487 -1.0822 -0.1651
13590TIP3    H262262   0.771   5.723   4.218 -1.4106 -0.5833 -0.4444
13591TIP3   OH262263   2.690   5.549   1.892 -0.0432 -0.0078  0.2382
13591TIP3    H162264   2.692   5.514   1.981 -0.8960 -0.9455 -0.1038
13591TIP3    H262265   2.782   5.561   1.870  0.1845  0.3171  1.2647
13592TIP3   OH262266   0.465   4.318   2.002  0.0866  0.3748  0.6254
13592TIP3    H162267   0.384   4.268   1.993 -0.1345  0.9131 -0.5007
13592TIP3    H262268   0.436   4.409   2.008  0.5809  0.5304  0.6469
13593TIP3   OH262269   4.915   2.384   2.399  0.0804 -0.4166 -0.0698
13593TIP3    H162270   4.992   2.437   2.420 -0.0699 -0.0995 -0.2915
13593TIP3    H262271   4.879   2.359   2.484 -1.1887  1.8303  0.1445
13594TIP3   OH262272   1.096   0.316   4.404  0.2546  0.1587  0.0390
13594TIP3    H162273   1.156   0.272   4.465 -0.7517 -0.5111  0.5679
13594TIP3    H262274   1.076   0.250   4.338 -1.6285 -0.3742  1.0913
13595TIP3   OH262275   2.705   4.196  10.768  0.4629  0.1742 -0.0961
13595TIP3    H162276   2.656   4.117  10.792  2.4694 -2.0826 -2.7367
13595TIP3    H262277   2.660   4.229  10.690 -1.7110  3.1687  2.1916
13596TIP3   OH262278   1.311   3.564   5.503 -1.1132  0.1533 -0.6036
13596TIP3    H162279   1.306   3.510   5.582  0.1549  2.3536  1.0954
13596TIP3    H262280   1.232   3.618   5.506 -1.5654 -0.4504 -1.4089
13597TIP3   OH262281   3.165   5.137  12.242  0.6449  0.7231 -0.3619
13597TIP3    H162282   3.212   5.111  12.320 -1.7194 -2.3619  0.2417
13597TIP3    H262283   3.206   5.088  12.171 -0.1784 -0.2461 -0.1945
13598TIP3   OH262284   2.073   2.882  10.738  0.0375 -0.1962  0.3116
13598TIP3    H162285   2.046   2.959  10.686  1.8307 -0.5085 -1.1814
13598TIP3    H262286   2.140   2.916  10.798 -1.3806 -0.0268  1.8831
13599TIP3   OH262287   3.227   6.294  12.465  0.7203 -0.1463 -0.4929
13599TIP3    H162288   3.153   6.246  12.428  2.2671 -3.3289  0.1601
13599TIP3    H262289   3.266   6.339  12.390  0.3715 -1.6757 -1.6629
13600TIP3   OH262290   5.389   0.538   0.891  0.2809 -0.2243 -0.0888
13600TIP3    H162291   5.431   0.533   0.977 -0.0397 -1.5071  0.0211
13600TIP3    H262292   5.311   0.483   0.900 -0.2380  0.3589 -0.9375
13601TIP3   OH262293   0.751   2.867   0.046 -0.4689 -0.7677  0.2665
13601TIP3    H162294   0.831   2.821   0.021  0.2112  0.3654  0.3183
13601TIP3    H262295   0.770   2.903   0.133  0.1591  2.1773 -0.9937
13602TIP3   OH262296   1.369   2.407  10.814  0.4770  0.0288  0.5110
13602TIP3    H162297   1.437   2.350  10.779  0.1059 -0.1641  0.0965
13602TIP3    H262298   1.321   2.352  10.876 -0.7051 -0.5280 -0.8513
13603TIP3   OH262299   4.184   1.313   3.846  0.1690 -0.4534  0.4495
13603TIP3    H162300   4.252   1.379   3.857  1.2492 -1.6777  1.4100
13603TIP3    H262301   4.191   1.287   3.754  0.4582 -0.0043  0.3438
13604TIP3   OH262302   0.163   5.747   0.084  0.0690  0.0099  0.0332
13604TIP3    H162303   0.069   5.758   0.075  0.3275  1.0895 -1.8527
13604TIP3    H262304   0.201   5.826   0.045  1.7650 -0.6430  0.2484
13605TIP3   OH262305   0.603   2.184  16.789 -1.0517  0.3040 -0.5824
13605TIP3    H162306   0.642   2.228  16.865 -0.1229 -0.2504 -0.7125
13605TIP3    H262307   0.625   2.241  16.715 -1.1628  0.3834 -0.5537
13606TIP3   OH262308   0.912   5.025   0.924 -0.5316  0.0028 -0.1200
13606TIP3    H162309   0.829   4.989   0.954 -0.6481 -0.3013 -0.7962
13606TIP3    H262310   0.978   4.970   0.966 -0.6552  0.3923  0.6089
13607TIP3   OH262311   0.852   4.398   5.800 -0.8908 -0.1219  0.0927
13607TIP3    H162312   0.924   4.459   5.784 -1.1713  0.7622  1.8977
13607TIP3    H262313   0.893   4.327   5.850 -0.4625 -1.7491 -2.4011
13608TIP3   OH262314   4.619   0.248  15.300  0.0249  0.1696  0.0229
13608TIP3    H162315   4.579   0.227  15.384  0.6249 -0.8745  0.0738
13608TIP3    H262316   4.545   0.257  15.240 -0.3467 -0.9623  0.2742
13609TIP3   OH262317   0.632   4.811   4.820 -0.2304 -0.3710  0.4813
13609TIP3    H162318   0.646   4.896   4.778 -1.2518  0.2839  1.3949
13609TIP3    H262319   0.578   4.763   4.757 -4.8814  1.8885  2.2469
13610TIP3   OH262320   5.575   1.993  10.711  0.5899  0.6049 -0.0725
13610TIP3    H162321   5.629   2.016  10.636 -0.9393  0.9172 -1.1278
13610TIP3    H262322   5.636   1.958  10.776  1.9436  0.3376 -1.4588
13611TIP3   OH262323   2.354   6.510   5.814  0.2952 -0.7218 -0.0191
13611TIP3    H162324   2.322   6.575   5.877  0.7910  2.6125 -2.9106
13611TIP3    H262325   2.276   6.461   5.788 -0.0470 -1.5998  2.4547
13612TIP3   OH262326   2.289   3.343   1.097  0.2733  0.0388 -0.6230
13612TIP3    H162327   2.198   3.358   1.073 -0.3923 -0.7143  1.2313
13612TIP3    H262328   2.298   3.248   1.100  0.4516  0.0816  1.3862
13613TIP3   OH262329   3.777   6.104  12.057  0.1685  0.2811 -0.7909
13613TIP3    H162330   3.729   6.140  12.131  0.7844 -1.0850  0.3361
13613TIP3    H262331   3.768   6.009  12.067  2.8466 -0.0222 -0.6688
13614TIP3   OH262332   5.918   0.560  12.974  0.4437 -0.6352  0.6215
13614TIP3    H162333   5.881   0.629  13.030 -0.1820 -1.0311  0.7044
13614TIP3    H262334   5.966   0.608  12.906 -0.0886 -0.1054  0.6018
13615TIP3   OH262335   0.723   0.819   3.584  0.0583 -0.0220 -0.4726
13615TIP3    H162336   0.789   0.804   3.516  1.8477 -0.4017  1.2596
13615TIP3    H262337   0.667   0.887   3.548  1.3261  0.2439 -2.0798
13616TIP3   OH262338   2.504   1.040  14.072 -0.3819 -0.7325  0.1837
13616TIP3    H162339   2.483   0.950  14.049  1.5400 -1.2018  0.0653
13616TIP3    H262340   2.548   1.075  13.995  0.5695 -0.3276  0.8789
13617TIP3   OH262341   0.345   1.538   0.990 -0.2282 -0.4032  0.4535
13617TIP3    H162342   0.337   1.605   1.058 -1.6944 -0.4304  0.3397
13617TIP3    H262343   0.256   1.503   0.980  0.3100 -1.6367 -0.2271
13618TIP3   OH262344   0.907   6.658  15.373 -0.4077  0.0872  0.2152
13618TIP3    H162345   0.819   6.687  15.349 -0.7675 -1.1745 -0.1137
13618TIP3    H262346   0.892   6.592  15.442  0.1786 -1.0325 -0.6979
13619TIP3   OH262347   6.745   4.068   2.129 -0.4454 -0.1817 -1.2970
13619TIP3    H162348   6.819   4.024   2.172 -1.3560  0.9262  1.6264
13619TIP3    H262349   6.786   4.135   2.074  0.7780 -1.5335 -2.1030
13620TIP3   OH262350   0.299   0.304  16.223  0.5381 -0.0751 -0.3033
13620TIP3    H162351   0.226   0.249  16.254 -0.9785  1.0845 -1.6400
13620TIP3    H262352   0.346   0.249  16.161 -0.5590 -0.1202 -1.1200
13621TIP3   OH262353   6.553   1.637   2.829 -0.4087  0.3887  0.1098
13621TIP3    H162354   6.464   1.611   2.851 -0.8163  0.3206 -1.5019
13621TIP3    H262355   6.609   1.574   2.874 -1.2136 -0.2670  0.2095
13622TIP3   OH262356   0.982   1.074  16.797  0.0159 -0.3864 -0.5848
13622TIP3    H162357   1.054   1.023  16.834 -0.4324  0.2047  1.1932
13622TIP3    H262358   0.904   1.023  16.817 -0.2695  0.1196 -0.3881
13623TIP3   OH262359   1.462   5.571  14.327  0.7292  0.0311  0.0052
13623TIP3    H162360   1.449   5.664  14.309  1.5997  0.3024  0.7304
13623TIP3    H262361   1.501   5.568  14.414 -0.9467 -1.1079  0.7784
13624TIP3   OH262362   6.721   2.621  14.727 -0.1030  0.0952 -0.0653
13624TIP3    H162363   6.767   2.579  14.800  0.9040 -0.1335 -0.8132
13624TIP3    H262364   6.645   2.566  14.712  0.3843 -0.6087 -0.0313
13625TIP3   OH262365   5.503   3.971   0.832 -0.6539 -0.6364 -0.2544
13625TIP3    H162366   5.573   3.967   0.898 -0.7447 -0.7760 -0.1645
13625TIP3    H262367   5.542   3.934   0.753  0.3602  2.0506 -1.1149
13626TIP3   OH262368   6.549   5.578   5.436  0.3471 -0.2968  0.1301
13626TIP3    H162369   6.611   5.521   5.481 -0.4453 -1.3490 -0.0795
13626TIP3    H262370   6.480   5.519   5.405  0.1861  0.5974 -1.2744
13627TIP3   OH262371   2.647   1.913   1.397  0.3445 -0.1268  0.0054
13627TIP3    H162372   2.729   1.953   1.368 -0.1455  2.5501  1.9754
13627TIP3    H262373   2.585   1.987   1.403 -1.5938 -1.7159  0.7076
13628TIP3   OH262374   6.479   1.454  16.874  0.7407 -0.3076  0.4598
13628TIP3    H162375   6.567   1.465  16.908  1.2953 -0.9264 -0.7064
13628TIP3    H262376   6.488   1.468  16.780 -0.5834  0.5740  0.4421
13629TIP3   OH262377   4.013   0.537   5.992 -0.1168  0.2050  0.2860
13629TIP3    H162378   3.919   0.541   6.005 -0.2639 -1.5722  0.0038
13629TIP3    H262379   4.037   0.447   6.012  1.2968  0.2237 -1.0648
13630TIP3   OH262380   6.213   2.298  14.588  0.5450  0.1490 -0.7215
13630TIP3    H162381   6.175   2.368  14.641 -1.8137 -1.7438  0.2681
13630TIP3    H262382   6.273   2.253  14.647  0.4590  0.0590 -0.7027
13631TIP3   OH262383   3.164   2.275  11.241  0.0650  0.4582  0.0668
13631TIP3    H162384   3.158   2.180  11.250 -1.8960  0.5572  0.3026
13631TIP3    H262385   3.089   2.299  11.186  2.1901  1.6033 -2.5518
13632TIP3   OH262386   5.964   0.621   5.355  0.1498  0.0028  0.4172
13632TIP3    H162387   6.038   0.673   5.324  0.9762 -0.1222  2.0657
13632TIP3    H262388   5.892   0.642   5.295  1.2166  0.9593 -0.5569
13633TIP3   OH262389   4.674   0.114   4.260 -0.0082 -0.4831  0.0014
13633TIP3    H162390   4.653   0.159   4.342  0.8835  1.4587 -0.7610
13633TIP3    H262391   4.715   0.182   4.206  2.2442 -2.4575 -0.9250
13634TIP3   OH262392   3.411   5.149  14.431  0.0734  0.1260  0.5698
13634TIP3    H162393   3.396   5.204  14.354 -1.8765 -1.3594 -0.1682
13634TIP3    H262394   3.504   5.159  14.449  0.1762  2.1102 -0.7202
13635TIP3   OH262395   1.254   2.657   1.875 -0.1360  0.0740 -0.1047
13635TIP3    H162396   1.267   2.647   1.780  1.3140 -1.4221  0.2162
13635TIP3    H262397   1.236   2.568   1.906  0.8177  0.3276  1.2268
13636TIP3   OH262398   6.773   5.242   5.085 -0.0883  0.2518  0.3209
13636TIP3    H162399   6.801   5.295   5.160  0.7113  0.1757  0.0823
13636TIP3    H262400   6.702   5.293   5.045  0.3057  0.8795  0.4170
13637TIP3   OH262401   4.880   3.426  13.598 -0.1665  0.1348 -0.2637
13637TIP3    H162402   4.878   3.332  13.582 -0.6799  0.2002 -0.5895
13637TIP3    H262403   4.916   3.434  13.686  3.5998 -0.1991 -1.5700
13638TIP3   OH262404   3.854   3.499   1.197  0.1131  0.5802 -0.2764
13638TIP3    H162405   3.824   3.544   1.118  1.1364 -1.9069 -2.2090
13638TIP3    H262406   3.901   3.423   1.165  0.8604 -0.3855  2.7768
13639TIP3   OH262407   1.321   5.222   4.073 -0.8027 -0.1636 -0.4643
13639TIP3    H162408   1.335   5.164   3.998  2.6167  0.6912 -0.6279
13639TIP3    H262409   1.381   5.295   4.058  1.2384 -0.7052  3.7904
13640TIP3   OH262410   3.057   6.682   0.819 -0.3269  1.0019 -0.1575
13640TIP3    H162411   3.080   6.590   0.803 -1.2755  0.5083  1.1370
13640TIP3    H262412   3.139   6.730   0.810  0.1931  0.0229 -0.7860
13641TIP3   OH262413   6.097   6.683  14.262  0.0692  0.0864  0.5984
13641TIP3    H162414   6.116   6.773  14.286 -0.5424 -0.1667  2.1422
13641TIP3    H262415   6.005   6.685  14.233 -0.4365 -0.2540  2.0667
13642TIP3   OH262416   5.120   0.067  13.792 -0.3344  0.0079  0.4191
13642TIP3    H162417   5.086  -0.022  13.790 -0.2347 -0.0846  1.7647
13642TIP3    H262418   5.115   0.092  13.884 -0.1307  1.3074  0.0949
13643TIP3   OH262419   2.540   2.746   1.850 -0.6716  0.4147 -0.4202
13643TIP3    H162420   2.547   2.829   1.897 -0.4764  0.0631  0.2003
13643TIP3    H262421   2.469   2.699   1.895  0.4835 -0.5267  0.5240
13644TIP3   OH262422   0.085   2.509   4.170  0.4440  0.2222  0.2089
13644TIP3    H162423   0.001   2.545   4.143  0.5936  0.4559  0.0530
13644TIP3    H262424   0.085   2.420   4.134 -0.2759 -0.2372  1.3043
13645TIP3   OH262425   4.863   2.400   3.164  0.2701  0.4959  0.1219
13645TIP3    H162426   4.854   2.306   3.181 -1.8440  1.0293  2.4769
13645TIP3    H262427   4.806   2.417   3.089  1.0104 -0.1439 -0.5996
13646TIP3   OH262428   3.469   6.527   0.602  0.3890 -0.2807 -0.4761
13646TIP3    H162429   3.534   6.505   0.535  0.8519  0.7906 -0.4037
13646TIP3    H262430   3.415   6.596   0.562  0.9213  0.6588  0.3658
13647TIP3   OH262431   2.995   4.183   3.194  0.2123  0.0273  0.1466
13647TIP3    H162432   3.032   4.188   3.106  2.6169 -1.1897  0.9708
13647TIP3    H262433   2.991   4.274   3.223 -3.5944  0.8293 -2.1845
13648TIP3   OH262434   2.249   1.985   1.057  0.3081 -0.5585  0.4051
13648TIP3    H162435   2.325   2.000   1.000  0.0887 -0.0155  0.2550
13648TIP3    H262436   2.174   1.987   0.997  0.3743 -4.7466 -0.1258
13649TIP3   OH262437   5.691   1.594   3.589  0.6093 -0.2130  0.4395
13649TIP3    H162438   5.651   1.510   3.614  0.0869 -0.4842 -1.1594
13649TIP3    H262439   5.784   1.576   3.584  0.4693 -0.8205 -0.2302
13650TIP3   OH262440   1.503   5.379   0.154  0.1888 -0.2415  0.1929
13650TIP3    H162441   1.474   5.440   0.222 -0.4449 -0.1008 -0.2055
13650TIP3    H262442   1.425   5.361   0.102  0.0527 -2.3018  0.9846
13651TIP3   OH262443   4.257   2.522  17.150 -0.2683 -0.5933  0.3445
13651TIP3    H162444   4.302   2.515  17.235 -0.3639  0.2744  0.4793
13651TIP3    H262445   4.255   2.433  17.116  2.1500 -0.6028  0.0307
13652TIP3   OH262446   2.846   1.722   1.984  0.5609 -0.2212  0.1435
13652TIP3    H162447   2.808   1.684   2.063  1.3539 -0.4591  0.4166
13652TIP3    H262448   2.807   1.809   1.977 -0.3760 -0.6276  0.1615
13653TIP3   OH262449   4.244   3.629   6.022 -0.1228 -0.1833  0.0649
13653TIP3    H162450   4.176   3.596   5.964  1.6259 -2.1344 -1.0282
13653TIP3    H262451   4.259   3.559   6.085 -2.0236  1.9067  3.1027
13654TIP3   OH262452   2.112   3.980  13.723 -0.6322 -0.1299  0.5195
13654TIP3    H162453   2.040   3.920  13.703  0.7813 -1.1672 -1.8713
13654TIP3    H262454   2.129   4.026  13.641  1.9627 -0.5100  0.7646
13655TIP3   OH262455   6.516   3.379  12.439 -0.2624 -0.3667  0.1751
13655TIP3    H162456   6.472   3.339  12.514 -0.8695 -0.4924 -0.2410
13655TIP3    H262457   6.588   3.320  12.419  0.3448  0.0288  1.0910
13656TIP3   OH262458   6.190   0.355   3.632 -0.0781 -0.3751 -0.2517
13656TIP3    H162459   6.128   0.371   3.704 -0.4770 -1.0320 -0.4377
13656TIP3    H262460   6.222   0.267   3.648 -0.6898 -0.7992 -1.2486
13657TIP3   OH262461   6.121   6.357  14.700 -0.3386 -0.1355  0.8035
13657TIP3    H162462   6.053   6.326  14.759 -0.6950 -1.1705 -0.1169
13657TIP3    H262463   6.074   6.376  14.618  0.5143 -1.2895  0.0110
13658TIP3   OH262464   4.944   5.540  14.601 -0.4063 -0.0691 -0.3997
13658TIP3    H162465   4.916   5.630  14.581  2.3964  1.1358  0.5843
13658TIP3    H262466   4.905   5.521  14.687  1.6584  1.6311  1.0248
13659TIP3   OH262467   2.128   0.216   2.551 -0.2966  0.3163 -0.6443
13659TIP3    H162468   2.206   0.233   2.604 -1.0588  1.9753  0.0071
13659TIP3    H262469   2.112   0.122   2.562  1.7520 -0.1298 -1.0475
13660TIP3   OH262470   0.509   2.390  10.812 -0.2320 -0.2780  0.0367
13660TIP3    H162471   0.416   2.370  10.820 -0.0184 -1.2218  0.2325
13660TIP3    H262472   0.527   2.388  10.718 -0.6947  1.3123 -0.1182
13661TIP3   OH262473   1.497   3.248   2.606 -0.9668 -0.3335 -0.5436
13661TIP3    H162474   1.471   3.167   2.564 -1.6332 -0.0129 -0.7586
13661TIP3    H262475   1.417   3.300   2.612 -0.6274  0.1542 -0.0598
13662TIP3   OH262476   3.917   1.629  15.008 -0.0162 -0.0961 -0.4308
13662TIP3    H162477   3.979   1.649  14.938  0.2560 -0.4379 -0.2932
13662TIP3    H262478   3.966   1.644  15.089 -0.2656  0.0990 -0.3130
13663TIP3   OH262479   4.334   2.787  14.668  0.1798  0.1773  0.3853
13663TIP3    H162480   4.296   2.852  14.609 -0.2232  0.0120  0.4647
13663TIP3    H262481   4.303   2.703  14.633 -0.9440  0.1257  1.4598
13664TIP3   OH262482   6.828   3.900  11.512 -0.5424  0.1513 -0.2289
13664TIP3    H162483   6.826   3.994  11.492 -2.7729  0.3771  0.7602
13664TIP3    H262484   6.858   3.859  11.431 -0.6799  1.6425 -1.0711
13665TIP3   OH262485   0.445   0.573   5.995 -0.1603  0.3267 -0.0508
13665TIP3    H162486   0.401   0.517   6.059  0.0986 -1.0116 -1.0020
13665TIP3    H262487   0.537   0.568   6.017  0.0666 -1.1055 -1.2195
13666TIP3   OH262488   5.762   0.780  11.458 -0.1306  0.2982 -0.1873
13666TIP3    H162489   5.830   0.731  11.411 -0.8235  0.4434 -1.3967
13666TIP3    H262490   5.792   0.871  11.455  0.1016  0.2331  0.1522
13667TIP3   OH262491   0.840   4.351   0.190  0.5514 -0.6297 -0.3476
13667TIP3    H162492   0.780   4.277   0.190 -0.6211  0.2969  0.1280
13667TIP3    H262493   0.877   4.352   0.102  0.0345 -1.3401 -0.5801
13668TIP3   OH262494   6.780   2.863   0.035 -0.1975  0.1580 -0.2922
13668TIP3    H162495   6.761   2.772   0.060  2.9922 -0.5409 -0.0135
13668TIP3    H262496   6.832   2.856  -0.045  1.1634  1.6185  0.3975
13669TIP3   OH262497   5.520   2.276  15.988 -0.7007  0.0173 -0.0160
13669TIP3    H162498   5.518   2.369  15.969 -0.6891  0.6411  2.6488
13669TIP3    H262499   5.429   2.248  15.982 -0.8535  0.4551  0.2341
13670TIP3   OH262500   1.672   1.300  12.190 -0.1408 -0.2623 -0.0151
13670TIP3    H162501   1.671   1.269  12.100  0.4348 -0.0416 -0.1027
13670TIP3    H262502   1.765   1.306  12.212 -0.2670  0.1984  0.4131
13671TIP3   OH262503   3.961   4.464  15.894 -0.0523 -0.2423 -0.0173
13671TIP3    H162504   3.923   4.377  15.905 -0.2876 -0.2622 -0.8929
13671TIP3    H262505   4.015   4.456  15.816 -1.1410  0.7477 -0.9052
13672TIP3   OH262506   6.003   5.065  13.707 -0.3013 -0.0927 -0.5069
13672TIP3    H162507   6.012   5.009  13.784 -0.2543  1.6141  0.7700
13672TIP3    H262508   5.909   5.075  13.696 -0.3148  1.5473  0.7908
13673TIP3   OH262509   0.967   0.631  14.912 -0.1634  0.0856 -0.1181
13673TIP3    H162510   0.920   0.712  14.890 -1.4228 -0.6809 -0.3698
13673TIP3    H262511   1.041   0.660  14.964 -1.6495  1.2586  1.4568
13674TIP3   OH262512   5.766   4.969   3.611  0.7554  0.4528  0.2866
13674TIP3    H162513   5.680   4.927   3.608  1.7438 -1.6744  0.0457
13674TIP3    H262514   5.802   4.946   3.697  1.8569 -0.3637 -0.3629
13675TIP3   OH262515   5.675   3.409   2.677  1.1635  0.0766  0.0784
13675TIP3    H162516   5.663   3.461   2.756  1.5982 -0.3109  0.4002
13675TIP3    H262517   5.608   3.341   2.682  0.8698  0.3429 -0.1366
13676TIP3   OH262518   4.547   5.940  16.073  0.4107 -0.1356  0.1923
13676TIP3    H162519   4.616   5.882  16.042 -0.0503 -0.7266  0.2507
13676TIP3    H262520   4.572   6.027  16.041  0.9524 -0.4155 -0.1549
13677TIP3   OH262521   6.818   5.397  13.212  0.6195  0.0226  0.3170
13677TIP3    H162522   6.830   5.448  13.292 -0.9042 -0.3977  0.8650
13677TIP3    H262523   6.889   5.425  13.155 -0.3439  3.1003  0.4070
13678TIP3   OH262524   2.660   1.332  16.609 -0.0346  0.8334 -0.1181
13678TIP3    H162525   2.635   1.376  16.528  1.1359 -1.1196 -1.6592
13678TIP3    H262526   2.734   1.383  16.642  0.4011  0.8776 -1.0993
13679TIP3   OH262527   5.239   1.069   2.726  0.4404 -0.3266  0.1618
13679TIP3    H162528   5.163   1.048   2.671 -0.1964  0.4934  0.7058
13679TIP3    H262529   5.201   1.099   2.809  1.3639 -0.1229  0.5199
13680TIP3   OH262530   4.905   6.110  10.665  0.0699 -0.2262  0.9101
13680TIP3    H162531   4.903   6.206  10.660 -0.5662 -0.2972 -0.9500
13680TIP3    H262532   4.878   6.081  10.578 -0.4488 -2.1116  1.6533
13681TIP3   OH262533   5.630   5.834  15.039 -0.1790  0.1978  0.1804
13681TIP3    H162534   5.549   5.884  15.032  0.2432  1.0735  1.1926
13681TIP3    H262535   5.673   5.845  14.954  0.1871  2.1307  0.5535
13682TIP3   OH262536   3.706   0.550  15.792 -0.1143  0.2501 -0.0213
13682TIP3    H162537   3.731   0.640  15.813 -0.6962  1.0553 -2.4912
13682TIP3    H262538   3.612   0.554  15.774 -0.6716 -1.3487  2.0466
13683TIP3   OH262539   5.305   0.666  12.947 -0.0544 -0.0333 -0.0295
13683TIP3    H162540   5.325   0.757  12.927 -0.8696  0.8052  2.6239
13683TIP3    H262541   5.365   0.643  13.018  1.2581 -2.1409 -1.6786
13684TIP3   OH262542   0.910   6.518  16.370  0.1114  0.2805  0.2974
13684TIP3    H162543   0.994   6.485  16.401 -0.5241 -0.9223  0.8220
13684TIP3    H262544   0.932   6.573  16.295  1.3299 -0.4619  0.0734
13685TIP3   OH262545   4.855   2.833  14.837  0.1290 -0.5113  0.2980
13685TIP3    H162546   4.871   2.891  14.911  0.5147  0.7043 -0.7047
13685TIP3    H262547   4.761   2.816  14.840  0.1048 -0.2933  0.9298
13686TIP3   OH262548   5.921   0.301   1.496 -0.7465  0.2223  0.1315
13686TIP3    H162549   5.917   0.368   1.428 -1.2493  0.4238  0.3534
13686TIP3    H262550   5.836   0.306   1.539 -0.5483 -0.1223  0.5678
13687TIP3   OH262551   1.457   1.681   4.551 -0.2158  0.4329  0.8928
13687TIP3    H162552   1.546   1.692   4.518 -0.0980  0.1849  1.1230
13687TIP3    H262553   1.468   1.639   4.637 -0.6768 -2.1937 -0.2469
13688TIP3   OH262554   1.409   0.205   3.417 -0.0546 -0.1108  0.9835
13688TIP3    H162555   1.441   0.196   3.327  1.0990 -2.2906  1.5638
13688TIP3    H262556   1.317   0.178   3.413 -0.8272  2.3879  0.0336
13689TIP3   OH262557   0.952   1.013  12.635 -0.0302 -0.2209  0.5168
13689TIP3    H162558   0.862   0.980  12.634 -0.4806  0.9608 -0.9432
13689TIP3    H262559   0.997   0.955  12.696 -1.4416 -1.7401  0.2009
13690TIP3   OH262560   3.250   2.503  11.854 -0.2788  0.8813  0.2720
13690TIP3    H162561   3.279   2.414  11.872 -0.2215  1.0386  0.9990
13690TIP3    H262562   3.224   2.538  11.939  1.7023  2.2750  0.3784
13691TIP3   OH262563   1.839   2.702   4.702 -0.3647 -0.4703 -0.4074
13691TIP3    H162564   1.883   2.631   4.655 -1.0419 -1.4136  0.3621
13691TIP3    H262565   1.899   2.725   4.773 -0.8773 -1.4638  0.3799
13692TIP3   OH262566   6.667   3.558  12.190 -0.1706  0.2884  0.2934
13692TIP3    H162567   6.646   3.487  12.129 -1.4682  0.2730  0.7284
13692TIP3    H262568   6.640   3.638  12.144  0.5084  0.4315  0.1380
13693TIP3   OH262569   5.476   1.710   0.551 -0.1081 -0.2777  0.7019
13693TIP3    H162570   5.435   1.774   0.609 -1.8614 -0.8574  0.1638
13693TIP3    H262571   5.510   1.643   0.610  0.8641  0.6155  1.2045
13694TIP3   OH262572   2.121   0.233  16.248  0.2527 -0.2336  0.2404
13694TIP3    H162573   2.108   0.145  16.211  1.0348  0.3497 -1.5485
13694TIP3    H262574   2.122   0.219  16.342 -0.6640 -1.9968  0.0486
13695TIP3   OH262575   6.290   4.468   5.621  0.0765 -0.1847  0.9435
13695TIP3    H162576   6.346   4.396   5.651 -1.0025 -1.4957 -0.0544
13695TIP3    H262577   6.204   4.447   5.657 -0.4179  0.1922  0.0186
13696TIP3   OH262578   0.534   2.134  15.568 -0.1716 -0.5178  0.1569
13696TIP3    H162579   0.485   2.215  15.556 -1.2834 -1.1981  0.0382
13696TIP3    H262580   0.620   2.163  15.600 -1.1575  0.6120  1.9296
13697TIP3   OH262581   1.814   0.994   2.955 -0.0336  0.3686  0.7741
13697TIP3    H162582   1.841   0.986   3.046  1.0841  1.2377  0.5380
13697TIP3    H262583   1.880   1.051   2.915  0.0758 -0.8216 -0.8235
13698TIP3   OH262584   4.325   2.355   0.556 -0.1723 -0.6931 -0.1330
13698TIP3    H162585   4.278   2.429   0.519 -0.0205  0.0531  1.1161
13698TIP3    H262586   4.323   2.288   0.487  0.5580  0.7997 -1.6497
13699TIP3   OH262587   0.535   3.053   4.304 -0.4952  0.6001 -0.4891
13699TIP3    H162588   0.511   2.986   4.368  0.0201  2.1210  1.4092
13699TIP3    H262589   0.608   3.014   4.255  1.3803  0.5229  2.1296
13700TIP3   OH262590   6.079   4.927   2.081  0.0652 -0.4434 -0.3595
13700TIP3    H162591   6.168   4.943   2.049  0.4390  0.0343  0.9035
13700TIP3    H262592   6.025   4.987   2.030  0.6386  0.2428 -0.1774
13701TIP3   OH262593   4.388   2.705   5.193 -0.0118 -0.4842  0.0916
13701TIP3    H162594   4.465   2.659   5.160 -0.1893  1.2270 -3.0299
13701TIP3    H262595   4.396   2.699   5.288  4.0321 -0.2530 -0.0627
13702TIP3   OH262596   3.360   1.427   0.465 -0.2205 -0.1711 -0.0958
13702TIP3    H162597   3.405   1.398   0.385  0.5864 -0.7488  0.5495
13702TIP3    H262598   3.280   1.374   0.467  1.6081 -3.1892  1.4995
13703TIP3   OH262599   0.477   1.752   4.053  0.2059 -0.0757 -0.1490
13703TIP3    H162600   0.399   1.706   4.086 -0.3690  1.3947  0.6436
13703TIP3    H262601   0.456   1.771   3.962 -0.5246  0.6237  0.1561
13704TIP3   OH262602   0.640   1.446   4.233 -0.3754 -0.0730  0.4410
13704TIP3    H162603   0.631   1.538   4.258  2.0293  1.0777 -2.3380
13704TIP3    H262604   0.620   1.398   4.313 -0.2069  2.9074  2.4671
13705TIP3   OH262605   1.808   1.157  11.473  0.0659 -0.1755 -0.1474
13705TIP3    H162606   1.719   1.192  11.471 -0.2847 -1.0413 -0.0702
13705TIP3    H262607   1.816   1.118  11.560  0.3733 -0.4682 -0.3074
13706TIP3   OH262608   0.649   5.179   4.811  0.5558  0.2715  0.1153
13706TIP3    H162609   0.639   5.236   4.887  0.5766 -0.3574  0.5886
13706TIP3    H262610   0.743   5.179   4.793  0.8332 -1.2789  1.4122
13707TIP3   OH262611   2.023   2.404  14.718  0.7192 -0.0022  0.0341
13707TIP3    H162612   2.041   2.495  14.740 -0.4999  0.2610  0.0399
13707TIP3    H262613   2.109   2.364  14.708  1.2755  1.1708 -0.0695
13708TIP3   OH262614   0.231   0.055  17.115  0.0758  0.1898  0.2302
13708TIP3    H162615   0.184  -0.023  17.086 -0.7588  0.6703  0.2542
13708TIP3    H262616   0.165   0.105  17.163  0.7320  0.6802  0.6258
13709TIP3   OH262617   2.373   6.810  16.619 -0.0647  0.3797  0.7610
13709TIP3    H162618   2.318   6.786  16.543  0.8560  0.3526  0.0890
13709TIP3    H262619   2.345   6.750  16.688  1.2666 -1.8448 -0.4992
13710TIP3   OH262620   0.001   1.436   4.349  0.2669  0.0829  0.2087
13710TIP3    H162621  -0.068   1.455   4.412 -0.9153  0.1560 -1.0626
13710TIP3    H262622   0.000   1.340   4.341 -0.2917  0.1313 -0.4306
13711TIP3   OH262623   0.282   0.891  13.482 -0.1474 -0.1924 -0.2677
13711TIP3    H162624   0.221   0.962  13.501  2.0375  1.4058  1.1845
13711TIP3    H262625   0.279   0.882  13.386  0.0119  2.3843 -0.5883
13712TIP3   OH262626   3.561   3.207   4.202 -0.3260  0.3985  0.7698
13712TIP3    H162627   3.541   3.151   4.127 -2.0379  0.7476  0.9239
13712TIP3    H262628   3.526   3.160   4.277 -0.9230  1.2258  1.0216
13713TIP3   OH262629   4.315   3.185   4.771  0.4470  0.2950 -0.1441
13713TIP3    H162630   4.289   3.113   4.715  1.0374 -0.3776  0.4265
13713TIP3    H262631   4.398   3.217   4.735 -0.6858  1.8963 -1.4699
13714TIP3   OH262632   1.795   6.525  11.704 -0.1788  0.1687 -0.0489
13714TIP3    H162633   1.701   6.532  11.685 -0.2492  0.2621  0.3281
13714TIP3    H262634   1.837   6.524  11.618 -0.3408  2.7180 -0.2230
13715TIP3   OH262635   3.870   3.177  17.200 -0.6556  0.3238 -0.2877
13715TIP3    H162636   3.877   3.097  17.147 -1.0473  0.2666 -0.2527
13715TIP3    H262637   3.929   3.239  17.157 -1.4416  0.4836 -1.1695
13716TIP3   OH262638   2.624   0.588   0.270  0.0363 -0.0911  0.2423
13716TIP3    H162639   2.644   0.570   0.178  0.7858  1.8298 -0.0224
13716TIP3    H262640   2.529   0.603   0.271 -0.3460 -2.2208  0.2104
13717TIP3   OH262641   1.141   0.594  13.054 -0.1751  0.2188  0.5578
13717TIP3    H162642   1.150   0.558  12.966  1.8946 -0.5641  1.0279
13717TIP3    H262643   1.066   0.548  13.092 -1.7435  1.3038 -1.0859
13718TIP3   OH262644   3.824   4.273   5.723  0.6785  0.7319  0.0719
13718TIP3    H162645   3.809   4.305   5.634 -2.2461 -0.5662 -0.0165
13718TIP3    H262646   3.847   4.181   5.711  1.3982  0.8331  0.6303
13719TIP3   OH262647   5.885   5.933   0.350 -0.0957 -0.3349 -0.1982
13719TIP3    H162648   5.839   5.868   0.297 -0.7032  0.5448 -0.7800
13719TIP3    H262649   5.833   6.013   0.341  0.9563  0.4003 -0.0038
13720TIP3   OH262650   3.645   0.795  14.695 -0.6391 -0.1692  0.2966
13720TIP3    H162651   3.562   0.752  14.676 -0.5244 -0.4712  0.4774
13720TIP3    H262652   3.626   0.851  14.771 -0.8829  0.3930 -0.1696
13721TIP3   OH262653   5.092   3.627  17.100 -0.6524  0.8025  0.4084
13721TIP3    H162654   5.093   3.614  17.005  0.9729 -0.1879  0.5087
13721TIP3    H262655   5.133   3.712  17.113  1.9974 -0.3477  0.2808
13722TIP3   OH262656   2.622   6.235   1.914 -0.4350  0.1368 -0.3791
13722TIP3    H162657   2.531   6.258   1.934 -0.7567 -1.4577  0.1366
13722TIP3    H262658   2.615   6.154   1.863  0.6663  0.6178 -1.3501
13723TIP3   OH262659   5.662   1.750  14.952 -0.2037 -0.0544 -0.7587
13723TIP3    H162660   5.672   1.676  15.012 -1.2549  0.8549  0.5979
13723TIP3    H262661   5.751   1.784  14.941 -0.1616  0.7280  1.5905
13724TIP3   OH262662   0.012   3.747  11.271  0.2001  0.1913 -0.3749
13724TIP3    H162663  -0.032   3.744  11.186  1.0522 -1.8314 -0.7870
13724TIP3    H262664  -0.015   3.667  11.315  0.4196  0.8225  0.9403
13725TIP3   OH262665   3.156   5.433   5.903 -0.1722 -0.0795 -0.3143
13725TIP3    H162666   3.109   5.476   5.974 -1.6124  0.0799 -1.3116
13725TIP3    H262667   3.199   5.505   5.856 -1.9309  0.2460 -1.5129
13726TIP3   OH262668   6.486   2.365  11.838 -0.4462 -0.3658  0.0698
13726TIP3    H162669   6.461   2.281  11.800 -0.6271 -0.7568  1.0327
13726TIP3    H262670   6.540   2.342  11.914  0.8207  0.4162 -0.5502
13727TIP3   OH262671   6.810   2.161   3.358  0.3941  0.0589 -0.3709
13727TIP3    H162672   6.734   2.204   3.318 -0.0678 -0.7557 -0.3801
13727TIP3    H262673   6.885   2.210   3.324 -0.1323  1.1033 -0.0813
13728TIP3   OH262674   2.685   0.211   4.933 -0.1352 -0.5665  0.0216
13728TIP3    H162675   2.654   0.152   4.864  0.7415 -1.0114 -0.0046
13728TIP3    H262676   2.632   0.190   5.009 -0.6807 -0.5104 -0.3355
13729TIP3   OH262677   0.092   2.835   4.355 -0.0647  0.3161  0.3690
13729TIP3    H162678   0.180   2.797   4.350 -0.3656 -0.2969 -0.6250
13729TIP3    H262679   0.078   2.852   4.448  0.8448 -0.1955  0.6130
13730TIP3   OH262680   4.132   5.707   3.779 -0.2928  0.7134  0.0855
13730TIP3    H162681   4.073   5.782   3.784  0.8271  1.5553  1.0919
13730TIP3    H262682   4.131   5.682   3.686 -1.8407  0.9920  0.0018
13731TIP3   OH262683   4.215   5.463  11.364 -0.6413 -0.3347  0.0692
13731TIP3    H162684   4.247   5.416  11.441 -0.0523 -0.5230 -0.2891
13731TIP3    H262685   4.263   5.546  11.365  0.1015 -0.7474 -0.6419
13732TIP3   OH262686   3.594   1.172   5.100  0.0783 -0.1381  0.0712
13732TIP3    H162687   3.509   1.180   5.142 -1.1201  0.5711 -2.3205
13732TIP3    H262688   3.624   1.084   5.123 -1.3210 -0.4398  0.8718
13733TIP3   OH262689   3.301   6.075   1.823  0.3084 -0.4324  0.1838
13733TIP3    H162690   3.394   6.065   1.845  0.1060 -1.3607  0.6637
13733TIP3    H262691   3.297   6.158   1.774  1.3811 -0.3749  0.1619
13734TIP3   OH262692   2.851   3.878  12.331 -0.2725 -0.4251 -0.2247
13734TIP3    H162693   2.787   3.915  12.269  0.1631  1.1014  0.1854
13734TIP3    H262694   2.802   3.867  12.412 -0.3893 -0.7101 -0.3316
13735TIP3   OH262695   1.583   0.296  13.669  0.0891  0.8118 -0.1831
13735TIP3    H162696   1.660   0.242  13.652 -0.5252 -0.7185  1.5543
13735TIP3    H262697   1.569   0.289  13.763 -3.7677 -1.3306 -0.7040
13736TIP3   OH262698   6.512   3.242   4.437  0.0436  0.5037  0.5186
13736TIP3    H162699   6.592   3.201   4.470 -0.8947 -0.4737  1.6851
13736TIP3    H262700   6.520   3.236   4.341  0.9619 -0.3719  0.6298
13737TIP3   OH262701   5.116   3.887   2.875  0.1789 -0.9756  0.2541
13737TIP3    H162702   5.173   3.819   2.911  1.7761 -0.3437 -0.9942
13737TIP3    H262703   5.103   3.862   2.783 -0.6192 -0.4968  0.2260
13738TIP3   OH262704   4.884   4.878   1.118 -0.7189 -0.1261 -0.2545
13738TIP3    H162705   4.850   4.960   1.080 -0.9073  0.6263  1.4541
13738TIP3    H262706   4.825   4.810   1.084 -2.5849  0.8749  0.8138
13739TIP3   OH262707   2.741   4.338   3.919  0.2481  0.5715  0.1991
13739TIP3    H162708   2.721   4.321   4.011 -0.6929  1.2094  0.1205
13739TIP3    H262709   2.822   4.289   3.903  0.4406  0.4798  1.3673
13740TIP3   OH262710   4.817   4.014   2.780  0.0364 -0.1401 -0.6961
13740TIP3    H162711   4.894   3.967   2.748  0.2470  0.5518 -1.2378
13740TIP3    H262712   4.816   3.998   2.875  0.2319 -1.0267 -0.8365
13741TIP3   OH262713   1.679   1.239   4.304 -0.2347 -0.1134  0.4440
13741TIP3    H162714   1.723   1.165   4.347 -0.1966 -0.5093 -0.2662
13741TIP3    H262715   1.625   1.198   4.236 -2.9988  0.1694  2.2922
13742TIP3   OH262716   1.339   4.967  11.889  0.2019 -0.0653  0.2499
13742TIP3    H162717   1.332   4.885  11.840  1.5093 -0.3300  0.4891
13742TIP3    H262718   1.267   4.964  11.951  1.3190 -1.9096  1.5302
13743TIP3   OH262719   2.273   5.899  12.795 -0.0172  0.3548  0.1422
13743TIP3    H162720   2.202   5.869  12.738 -0.1335 -0.6990  0.8113
13743TIP3    H262721   2.233   5.908  12.881  0.6363 -0.2512  0.5296
13744TIP3   OH262722   3.216   0.745   6.322 -0.1190 -0.4886 -0.5046
13744TIP3    H162723   3.182   0.816   6.377  1.8310  2.3753 -2.6378
13744TIP3    H262724   3.154   0.740   6.249  0.8713  0.7054 -1.4830
13745TIP3   OH262725   3.252   5.657  13.926  0.1760  0.0687  0.0241
13745TIP3    H162726   3.336   5.700  13.942  0.8145 -1.2025  0.2710
13745TIP3    H262727   3.261   5.571  13.968 -0.9279 -0.4159 -0.6810
13746TIP3   OH262728   1.692   2.748   5.500  0.5404 -0.3366  0.0012
13746TIP3    H162729   1.780   2.712   5.502  0.2796 -1.0279 -0.5625
13746TIP3    H262730   1.671   2.767   5.591  1.3704  0.0973  0.1103
13747TIP3   OH262731   0.095   1.892  11.664  0.1940  0.0491 -0.1957
13747TIP3    H162732   0.143   1.834  11.605 -0.2279  0.5999 -1.1056
13747TIP3    H262733   0.133   1.978  11.649  1.9623 -0.1846  2.3571
13748TIP3   OH262734   1.005   4.823  13.045 -0.6580 -0.5056 -0.1085
13748TIP3    H162735   1.041   4.777  12.969 -2.2608 -1.8289 -0.1239
13748TIP3    H262736   1.052   4.906  13.048  2.0414 -1.9224 -0.3672
13749TIP3   OH262737   5.626   0.030  13.604 -0.2621 -0.1510 -0.2694
13749TIP3    H162738   5.534   0.008  13.621 -0.5218  0.9952 -0.1229
13749TIP3    H262739   5.659   0.064  13.686 -0.7921  2.9488 -1.2246
13750TIP3   OH262740   2.568   2.363  12.968 -0.2517 -0.5432 -0.2990
13750TIP3    H162741   2.515   2.420  13.024 -0.6204  0.7756 -1.9310
13750TIP3    H262742   2.529   2.276  12.980 -0.6186 -0.2117  1.1004
13751TIP3   OH262743   6.099   0.725   0.116 -0.3702 -0.2852  0.5547
13751TIP3    H162744   6.059   0.759   0.196 -1.7189  0.9317 -0.5672
13751TIP3    H262745   6.163   0.792   0.091 -1.3468  0.3174 -0.4038
13752TIP3   OH262746   5.843   3.436  14.776 -0.3052  0.5969  0.5151
13752TIP3    H162747   5.903   3.495  14.820  1.2395  0.0346 -0.7266
13752TIP3    H262748   5.899   3.367  14.740 -1.7243 -0.1179 -0.4383
13753TIP3   OH262749   0.766   4.073   5.110  0.2158  0.0082  0.0818
13753TIP3    H162750   0.821   4.118   5.046  1.0618 -1.7380 -0.4879
13753TIP3    H262751   0.788   4.114   5.194  0.2298  1.2806 -0.5222
13754TIP3   OH262752   3.203   0.174   0.061  0.3547 -0.4189  0.3130
13754TIP3    H162753   3.249   0.247   0.103  1.6558 -1.0548  0.0447
13754TIP3    H262754   3.175   0.209  -0.024  0.1571  0.0347  0.5603
13755TIP3   OH262755   4.731   5.093   3.552  0.4962 -0.5153 -0.8444
13755TIP3    H162756   4.720   5.106   3.458 -1.2125  0.5134 -0.5446
13755TIP3    H262757   4.718   4.999   3.565 -5.6608 -0.0809 -1.0270
13756TIP3   OH262758   2.186   5.971  16.656  0.1603  0.2237 -0.2278
13756TIP3    H162759   2.155   5.960  16.746 -0.1973  0.0674 -0.3691
13756TIP3    H262760   2.257   6.035  16.663 -0.3260  0.7373  0.0693
13757TIP3   OH262761   5.515   0.320   6.158  1.1142 -0.1822  0.2315
13757TIP3    H162762   5.471   0.308   6.242  0.6712  0.2894  0.0681
13757TIP3    H262763   5.556   0.406   6.163 -0.3262  0.5974 -0.6479
13758TIP3   OH262764   5.073   1.692  15.686 -0.1048 -0.3152  0.6476
13758TIP3    H162765   5.058   1.609  15.640 -0.4855  0.3545 -0.4691
13758TIP3    H262766   5.153   1.727  15.646 -2.2009  1.8827 -2.0310
13759TIP3   OH262767   2.232   6.270  13.029 -0.0633 -0.0470 -0.0892
13759TIP3    H162768   2.153   6.238  12.986  0.0349 -0.0218 -0.2891
13759TIP3    H262769   2.200   6.331  13.096 -0.2153 -0.0627 -0.1471
13760TIP3   OH262770   0.281   5.373   5.313 -1.0827  0.3606 -0.0056
13760TIP3    H162771   0.260   5.426   5.236 -0.6265  0.4590 -0.0693
13760TIP3    H262772   0.364   5.409   5.345  0.2736 -1.4989 -1.1815
13761TIP3   OH262773   1.378   6.467  15.002  0.0180 -0.0164  0.3372
13761TIP3    H162774   1.444   6.400  15.019 -0.1435 -0.6491 -1.3187
13761TIP3    H262775   1.294   6.422  15.013 -0.0897 -0.2762 -1.3414
13762TIP3   OH262776   1.869   5.941  13.063  0.0031 -0.1455 -0.1481
13762TIP3    H162777   1.819   5.942  13.144 -0.2957 -1.8316 -0.2743
13762TIP3    H262778   1.807   5.912  12.997  0.7563 -0.7627 -0.5985
13763TIP3   OH262779   2.853   4.001   4.833 -0.0849  0.2564  0.0029
13763TIP3    H162780   2.834   4.082   4.785 -0.4791  0.5010  0.5645
13763TIP3    H262781   2.932   4.020   4.882  0.2318  0.0567 -0.4243
13764TIP3   OH262782   4.222   1.014   2.934 -0.1094  0.5787  0.3167
13764TIP3    H162783   4.240   0.920   2.937 -0.1279  0.5888  1.7117
13764TIP3    H262784   4.209   1.033   2.842  0.0136 -0.7677 -0.0070
13765TIP3   OH262785   6.830   5.493   4.759  0.3104  0.5044  0.3059
13765TIP3    H162786   6.833   5.454   4.672 -0.0537  1.0434  0.0495
13765TIP3    H262787   6.904   5.554   4.761  0.8182 -0.1062  0.6717
13766TIP3   OH262788   0.895   5.276  11.547  0.0854  0.1529  0.1250
13766TIP3    H162789   0.985   5.298  11.573  0.3331 -0.6493 -0.0130
13766TIP3    H262790   0.845   5.355  11.564  1.4304  1.7962 -2.9674
13767TIP3   OH262791   4.211   6.725   3.342 -0.1378  0.0300 -0.2671
13767TIP3    H162792   4.227   6.632   3.361  0.4112 -0.0013 -0.8487
13767TIP3    H262793   4.129   6.725   3.292 -0.5540 -0.0648  0.4042
13768TIP3   OH262794   0.641   0.937   1.793  0.0928 -0.2036  0.1774
13768TIP3    H162795   0.664   1.028   1.775  0.9696 -0.6342 -1.0332
13768TIP3    H262796   0.687   0.887   1.726 -0.5869 -1.5260  0.6558
13769TIP3   OH262797   4.407   1.100   2.279 -0.2493  0.3405  0.3398
13769TIP3    H162798   4.438   1.086   2.369  0.0637 -0.8484  0.0655
13769TIP3    H262799   4.361   1.020   2.257 -0.8222  0.8567 -0.3787
13770TIP3   OH262800   4.914   1.777  12.241  0.0719 -0.0609 -0.0583
13770TIP3    H162801   4.905   1.683  12.257 -1.6823  0.5244  3.5479
13770TIP3    H262802   4.846   1.797  12.176 -0.6661 -1.0859  0.3697
13771TIP3   OH262803   2.214   0.078   2.037  0.2907 -0.0546  0.1481
13771TIP3    H162804   2.285   0.121   1.991 -0.5388  0.8341 -0.3445
13771TIP3    H262805   2.252   0.051   2.121  1.3915 -0.2792 -0.4126
13772TIP3   OH262806   3.398   1.342   4.285  0.9772  0.8793  0.1691
13772TIP3    H162807   3.360   1.265   4.328 -0.5845  1.3579 -0.2777
13772TIP3    H262808   3.490   1.340   4.309  0.7429 -0.5216  1.0670
13773TIP3   OH262809   1.286   4.345  12.030 -0.1671 -0.3053  0.2757
13773TIP3    H162810   1.337   4.319  12.106  1.0878  0.2495 -0.3382
13773TIP3    H262811   1.338   4.316  11.955 -1.0694 -0.2820 -0.3781
13774TIP3   OH262812   5.219   6.143  12.666  0.5011  0.3398 -0.2177
13774TIP3    H162813   5.256   6.059  12.640  0.2697  0.3001 -0.4299
13774TIP3    H262814   5.201   6.134  12.759  0.3868  0.1195 -0.2607
13775TIP3   OH262815   0.507   5.558   1.577  0.4165 -0.0429 -0.2655
13775TIP3    H162816   0.505   5.607   1.495  2.2896  0.4407 -0.0688
13775TIP3    H262817   0.465   5.616   1.641  0.4953  0.3049 -0.5297
13776TIP3   OH262818   6.591   2.294  16.742  0.0116  0.2489 -0.5721
13776TIP3    H162819   6.539   2.282  16.662 -1.5053 -2.0472  0.6655
13776TIP3    H262820   6.532   2.337  16.803  0.2770 -0.3303  0.1103
13777TIP3   OH262821   0.626   1.975  12.520 -0.0896 -0.3094 -0.1893
13777TIP3    H162822   0.599   2.010  12.605 -1.2613 -1.7082  0.0593
13777TIP3    H262823   0.722   1.984  12.520 -0.2468  1.9732  0.2071
13778TIP3   OH262824   2.240   2.670  15.679  0.2012 -0.6012  0.3724
13778TIP3    H162825   2.182   2.676  15.755 -0.0819  0.2399  0.0986
13778TIP3    H262826   2.279   2.757  15.672  0.4287 -0.7522 -0.2864
13779TIP3   OH262827   2.841   2.447   2.554  0.8502  0.3426 -0.3188
13779TIP3    H162828   2.765   2.458   2.496  0.8868 -0.1616 -0.4705
13779TIP3    H262829   2.831   2.515   2.619  0.7039  0.8006 -0.8112
13780TIP3   OH262830   4.705   5.871   2.161  0.0347 -0.1909 -0.1309
13780TIP3    H162831   4.665   5.788   2.188 -0.9580 -0.5880 -2.5314
13780TIP3    H262832   4.777   5.884   2.223 -1.4037 -1.4465  1.9675
13781TIP3   OH262833   0.483   0.710   0.520 -0.1698  0.6011  0.6374
13781TIP3    H162834   0.573   0.713   0.550  0.2885  2.5932 -0.6818
13781TIP3    H262835   0.454   0.620   0.535  1.7015  0.1886  1.9812
13782TIP3   OH262836   3.998   2.275   5.228 -0.5198  0.2375 -0.1095
13782TIP3    H162837   4.051   2.338   5.179 -1.0671  0.6714 -0.1442
13782TIP3    H262838   4.036   2.190   5.206  1.1546  0.6263  1.0420
13783TIP3   OH262839   0.066   0.457   5.624 -0.1387  0.3323 -0.3949
13783TIP3    H162840   0.079   0.548   5.597  0.4382  0.5558  0.5871
13783TIP3    H262841   0.154   0.420   5.628 -0.2095  0.2658  0.9772
13784TIP3   OH262842   3.911   4.112   6.043 -0.2852 -0.0865  1.1447
13784TIP3    H162843   3.848   4.072   6.104 -0.0616  1.6470  2.5969
13784TIP3    H262844   3.957   4.177   6.096 -1.5162  3.0485 -1.3074
13785TIP3   OH262845   2.258   4.694  11.633  0.7503 -0.2920  0.0388
13785TIP3    H162846   2.327   4.688  11.567  0.0203 -0.6618 -0.7136
13785TIP3    H262847   2.216   4.608  11.632 -0.0734  0.0982  0.0843
13786TIP3   OH262848   3.860   3.997   3.766 -0.1713  0.4703  0.4399
13786TIP3    H162849   3.944   4.026   3.732 -1.8160  3.3535 -1.6621
13786TIP3    H262850   3.844   3.913   3.724  1.1437  0.4231 -0.0023
13787TIP3   OH262851   3.113   3.326   0.826  0.0427 -0.3126 -0.0893
13787TIP3    H162852   3.171   3.256   0.798 -1.3006 -1.3399 -0.3536
13787TIP3    H262853   3.080   3.298   0.911  1.7677  1.4013  1.2582
13788TIP3   OH262854   4.006   5.747   4.775  0.3256 -0.2686  0.1986
13788TIP3    H162855   4.082   5.802   4.791  0.4044 -0.6029  1.0554
13788TIP3    H262856   4.022   5.667   4.827  0.0157 -0.9116 -0.6686
13789TIP3   OH262857   6.381   0.848   4.776 -0.1226 -0.3738  0.3494
13789TIP3    H162858   6.384   0.944   4.782 -0.6942 -0.2157 -1.4434
13789TIP3    H262859   6.391   0.819   4.867 -0.8040  1.4074  1.0577
13790TIP3   OH262860   4.010   6.138   2.851  0.0910 -0.6497 -0.0855
13790TIP3    H162861   4.029   6.045   2.860  0.1941 -0.6112  0.1124
13790TIP3    H262862   4.078   6.181   2.904 -0.5201 -0.5071  0.5901
13791TIP3   OH262863   0.342   1.771  11.267 -0.5067  0.0627  0.1021
13791TIP3    H162864   0.293   1.843  11.226  0.1647  1.6487  1.9219
13791TIP3    H262865   0.280   1.699  11.272 -2.2695  1.5731  1.1371
13792TIP3   OH262866   5.499   6.662   1.548  0.2574  0.0548 -0.4829
13792TIP3    H162867   5.488   6.606   1.471 -2.0045  0.3460 -0.4540
13792TIP3    H262868   5.415   6.658   1.593  1.3754  0.2303  1.7880
13793TIP3   OH262869   5.431   4.937  14.953  0.2197  0.0892 -0.4212
13793TIP3    H162870   5.403   5.027  14.938  2.1578  0.4403 -2.4977
13793TIP3    H262871   5.510   4.945  15.006 -0.2305 -0.4962  0.3637
13794TIP3   OH262872   3.236   3.198   4.162  0.3419  0.5527 -0.4201
13794TIP3    H162873   3.259   3.127   4.101 -0.5712 -0.7683  0.7123
13794TIP3    H262874   3.160   3.240   4.122 -0.5642 -0.6287  0.0064
13795TIP3   OH262875   0.676   1.229   1.801  0.2015  0.2407 -0.2513
13795TIP3    H162876   0.715   1.299   1.750 -0.8072  0.2272 -1.0866
13795TIP3    H262877   0.585   1.257   1.814  0.4893  0.3739  1.8010
13796TIP3   OH262878   3.000   2.224   2.607  0.1445 -0.0100  0.4606
13796TIP3    H162879   2.946   2.304   2.611  0.4987  0.2317  0.4870
13796TIP3    H262880   2.957   2.164   2.668 -0.4631 -0.0501  0.0050
13797TIP3   OH262881   6.804   5.753  12.244  0.0482  0.4935  0.4419
13797TIP3    H162882   6.785   5.824  12.305 -0.0795  0.8783 -0.0422
13797TIP3    H262883   6.823   5.796  12.162  0.0379 -0.0324  0.1576
13798TIP3   OH262884   5.511   5.267  15.168 -0.1952  0.3977  0.7232
13798TIP3    H162885   5.536   5.211  15.242  0.0945  0.2695  0.5324
13798TIP3    H262886   5.543   5.354  15.192  0.9033  0.1362  0.2620
13799TIP3   OH262887   0.053   2.377  11.323  0.0697 -0.4531  0.1180
13799TIP3    H162888   0.064   2.421  11.239 -2.2670  1.0612  0.5065
13799TIP3    H262889   0.130   2.321  11.331  2.3510  2.2083 -1.2555
13800TIP3   OH262890   2.705   1.127  16.191 -0.3704  0.2461 -0.4634
13800TIP3    H162891   2.741   1.130  16.102  0.1164 -0.9389 -0.3256
13800TIP3    H262892   2.744   1.048  16.229 -0.8530  0.5532  0.6836
13801TIP3   OH262893   2.349   1.417  16.914  0.1553 -0.3619  0.3296
13801TIP3    H162894   2.369   1.500  16.957 -2.1895  0.6092 -0.2926
13801TIP3    H262895   2.253   1.410  16.919  0.2634 -2.9449  0.1773
13802TIP3   OH262896   0.063   2.235  15.794 -0.1246  0.2421  0.0570
13802TIP3    H162897  -0.004   2.167  15.800  0.2718 -0.0908  0.7141
13802TIP3    H262898   0.086   2.237  15.701 -1.1107  0.4326 -0.2007
13803TIP3   OH262899   2.798   4.793  11.379  0.5486 -0.5822 -0.0083
13803TIP3    H162900   2.838   4.855  11.318 -0.5839  0.1527 -0.0309
13803TIP3    H262901   2.864   4.725  11.391  2.2774  1.1338  0.8200
13804TIP3   OH262902   4.171   5.050  16.663  0.2005 -0.1812 -0.1875
13804TIP3    H162903   4.263   5.067  16.646  0.8116 -1.9161  1.0833
13804TIP3    H262904   4.127   5.132  16.643  2.0877  0.8654 -0.2417
13805TIP3   OH262905   2.970   4.973   1.710 -0.6133 -0.0539 -0.0274
13805TIP3    H162906   2.959   4.975   1.805  0.8010  1.3908  0.1522
13805TIP3    H262907   2.954   4.882   1.686 -1.1817 -0.4035  1.5622
13806TIP3   OH262908   6.817   5.271  14.990  0.0047  0.8309 -0.5290
13806TIP3    H162909   6.763   5.192  14.994 -1.5767  1.9066  1.8995
13806TIP3    H262910   6.764   5.333  14.941  0.5296  0.8796 -1.0337
13807TIP3   OH262911   3.334   2.278   3.141 -0.2364  0.4475  0.2909
13807TIP3    H162912   3.294   2.326   3.069 -1.8556 -2.0381 -0.5787
13807TIP3    H262913   3.428   2.287   3.126 -0.5029 -0.6489 -2.6554
13808TIP3   OH262914   2.335   1.857  17.120 -0.4599  0.4622  0.5721
13808TIP3    H162915   2.311   1.934  17.068 -0.8563  0.0808  0.1821
13808TIP3    H262916   2.376   1.894  17.199 -0.0330  1.0524  0.0883
13809TIP3   OH262917   1.470   5.867   4.359  0.0185  0.2908 -0.0251
13809TIP3    H162918   1.391   5.900   4.402 -0.0951 -0.6334  0.4969
13809TIP3    H262919   1.540   5.923   4.393 -0.0387 -0.5395  1.5578
13810TIP3   OH262920   0.486   4.763   0.891 -0.0203  0.1762  0.1720
13810TIP3    H162921   0.467   4.779   0.983 -0.6841 -0.8571  0.2279
13810TIP3    H262922   0.548   4.691   0.891 -1.3087 -0.9871 -0.2093
13811TIP3   OH262923   4.892   6.229   5.770  0.0647  0.0570 -0.2969
13811TIP3    H162924   4.820   6.244   5.831  1.6014 -1.0307  1.9110
13811TIP3    H262925   4.869   6.148   5.725  0.2870 -0.7581  1.0244
13812TIP3   OH262926   3.102   2.339   5.860  0.4693 -0.3328 -0.1405
13812TIP3    H162927   3.083   2.298   5.944 -0.2816  0.0259 -0.1288
13812TIP3    H262928   3.197   2.349   5.858  0.6556 -1.8873 -0.0582
13813TIP3   OH262929   5.155   2.357   4.874  0.0556 -0.3702 -0.5047
13813TIP3    H162930   5.149   2.453   4.869 -0.5936 -0.4255 -0.8586
13813TIP3    H262931   5.248   2.340   4.891  0.2482  0.3094 -0.8286
13814TIP3   OH262932   6.234   3.195   0.821 -0.0003  0.0032  0.2969
13814TIP3    H162933   6.147   3.227   0.797 -0.0666  0.7958  1.5051
13814TIP3    H262934   6.233   3.191   0.916  0.1907 -3.2197  0.2643
13815TIP3   OH262935   5.853   4.894   7.085  0.0708 -0.0559 -0.1712
13815TIP3    H162936   5.803   4.818   7.055  0.3773 -0.1750 -0.3742
13815TIP3    H262937   5.786   4.962   7.098 -0.3667 -0.6909  1.1367
13816TIP3   OH262938   1.598   0.935  12.353  0.6210  0.5478  0.4128
13816TIP3    H162939   1.604   1.012  12.297 -0.9916  0.6495  0.3373
13816TIP3    H262940   1.518   0.891  12.324  0.6708 -0.3044  1.5206
13817TIP3   OH262941   0.728   1.500   4.791  0.3560 -0.3955  0.0630
13817TIP3    H162942   0.725   1.414   4.834 -2.2947 -0.5081 -0.1705
13817TIP3    H262943   0.686   1.559   4.853  0.2410  0.2989 -0.6668
13818TIP3   OH262944   0.227   6.145  14.067  1.0233 -0.0548 -0.1717
13818TIP3    H162945   0.222   6.050  14.076  1.3682 -0.1869 -1.1803
13818TIP3    H262946   0.297   6.171  14.128  0.1195 -0.2814  0.9948
13819TIP3   OH262947   4.891   2.284   1.109 -0.1947  0.1774 -0.2517
13819TIP3    H162948   4.808   2.236   1.109 -0.7662  1.1291 -0.8470
13819TIP3    H262949   4.865   2.376   1.098  0.9819  0.4115 -1.1975
13820TIP3   OH262950   5.506   0.439  13.741 -0.2696 -0.0220  0.0904
13820TIP3    H162951   5.556   0.439  13.823  0.1355 -1.2009 -0.1409
13820TIP3    H262952   5.415   0.428  13.768 -0.1533 -0.2609  0.3857
13821TIP3   OH262953   6.663   0.131   2.000 -0.4866 -0.1282  0.6013
13821TIP3    H162954   6.676   0.209   1.945  0.1345 -0.3294  0.4574
13821TIP3    H262955   6.672   0.163   2.090 -0.4598  0.0094  0.5498
13822TIP3   OH262956   2.807   6.713  15.903  0.0869 -0.1569  0.3242
13822TIP3    H162957   2.821   6.714  15.997 -0.2332 -0.6978  0.3823
13822TIP3    H262958   2.714   6.734  15.892 -0.3615 -2.0142  0.2485
13823TIP3   OH262959   3.832   5.231   2.415  0.1683 -0.1013 -0.0992
13823TIP3    H162960   3.879   5.277   2.345 -0.2821 -1.2361 -1.1672
13823TIP3    H262961   3.744   5.268   2.413  0.3571  0.3962  0.3865
13824TIP3   OH262962   6.023   3.245   2.292  0.0553  0.0855  0.4992
13824TIP3    H162963   6.042   3.155   2.267  0.1083  0.4898 -1.0306
13824TIP3    H262964   5.997   3.240   2.384  2.0334 -1.2189  1.0543
13825TIP3   OH262965   3.645   0.587   1.905  0.4283 -0.0870  0.3157
13825TIP3    H162966   3.556   0.620   1.892 -0.3975 -2.6480 -1.3419
13825TIP3    H262967   3.702   0.660   1.883 -1.2597  0.4698 -2.7179
13826TIP3   OH262968   2.401   2.520  13.122 -0.6178  0.4949 -0.3367
13826TIP3    H162969   2.314   2.562  13.127  0.3262  2.7283 -1.2422
13826TIP3    H262970   2.412   2.479  13.208 -2.2986  0.7104  0.0296
13827TIP3   OH262971   2.310   2.719   3.141  0.1406 -0.2574 -0.3947
13827TIP3    H162972   2.221   2.753   3.138  0.9470  2.0487 -0.4000
13827TIP3    H262973   2.301   2.630   3.173 -2.3199 -0.7580 -2.2115
13828TIP3   OH262974   4.798   0.898  11.483 -0.3527  0.2677  0.1969
13828TIP3    H162975   4.798   0.894  11.388 -2.6662 -1.9153  0.1896
13828TIP3    H262976   4.740   0.972  11.504 -1.5543 -0.5650 -0.1253
13829TIP3   OH262977   2.343   4.126  12.097  0.4367 -0.1371 -0.0315
13829TIP3    H162978   2.421   4.162  12.140  0.0264  1.8565 -0.8114
13829TIP3    H262979   2.301   4.202  12.057 -2.3745 -1.0120  1.0101
13830TIP3   OH262980   4.070   4.653   3.467 -0.6229  0.2168 -0.5511
13830TIP3    H162981   4.166   4.654   3.466 -0.6094 -0.5201 -1.1537
13830TIP3    H262982   4.047   4.564   3.492 -1.1407  0.1512 -1.2171
13831TIP3   OH262983   2.554   0.589   3.521  0.1013 -0.1526 -0.5421
13831TIP3    H162984   2.537   0.683   3.511 -0.8738 -0.1589  0.7670
13831TIP3    H262985   2.557   0.576   3.616  0.1866 -1.4552 -0.7118
13832TIP3   OH262986   2.574   6.404  13.835  0.9611  0.2957 -0.8607
13832TIP3    H162987   2.506   6.469  13.855 -1.0772 -1.2557 -2.2789
13832TIP3    H262988   2.638   6.452  13.782  0.6736  1.6725 -0.0106
13833TIP3   OH262989   4.227   1.317   2.288  0.0098  0.0839  0.2726
13833TIP3    H162990   4.156   1.260   2.257  0.9208 -0.0506 -1.7132
13833TIP3    H262991   4.302   1.258   2.298  0.2470  0.4863  0.8806
13834TIP3   OH262992   6.082   3.122   6.349 -0.5367 -0.4177 -0.3037
13834TIP3    H162993   6.136   3.098   6.425 -1.8963 -1.1642  0.4678
13834TIP3    H262994   6.138   3.180   6.298  0.4780  0.0018  1.1939
13835TIP3   OH262995   4.886   2.700   4.169 -0.2809  0.2061 -0.2811
13835TIP3    H162996   4.819   2.653   4.219 -0.3295  1.6302  1.0910
13835TIP3    H262997   4.969   2.658   4.194 -0.0834  1.9417  2.5057
13836TIP3   OH262998   0.700   6.826   5.875 -0.5154  0.1581  0.1958
13836TIP3    H162999   0.662   6.831   5.963 -0.4136  0.0541  0.2469
13836TIP3    H263000   0.781   6.777   5.887 -0.5804  0.0043  0.0158
13837TIP3   OH263001   2.219   5.491  13.415 -0.0461  0.5729 -0.1691
13837TIP3    H163002   2.224   5.485  13.320  0.9079 -1.3149 -0.0261
13837TIP3    H263003   2.239   5.403  13.447  0.4593  1.3445  1.8166
13838TIP3   OH263004   6.431   6.694   5.293 -0.2727  0.6738 -0.3368
13838TIP3    H163005   6.347   6.678   5.248 -0.6465  0.3963  0.4401
13838TIP3    H263006   6.497   6.664   5.231 -0.8324 -0.9118 -0.2226
13839TIP3   OH263007   4.704   3.255   0.136 -0.0970 -0.0914 -0.5451
13839TIP3    H163008   4.684   3.162   0.148  1.1751 -0.3871 -0.5629
13839TIP3    H263009   4.734   3.261   0.046  0.7321  0.1637 -0.2535
13840TIP3   OH263010   2.509   4.628  16.803 -0.0345 -0.6215  0.0219
13840TIP3    H163011   2.444   4.574  16.849 -1.1320  1.2118  0.7655
13840TIP3    H263012   2.582   4.636  16.864 -0.4576 -0.1832  0.4832
13841TIP3   OH263013   3.855   0.097  13.914 -0.4261 -0.5301  0.3165
13841TIP3    H163014   3.903   0.173  13.882  0.3167 -1.4777 -0.8920
13841TIP3    H263015   3.920   0.028  13.920 -1.1505 -1.1683  1.1296
13842TIP3   OH263016   4.446   3.428  11.277  0.4711  0.0393 -0.4021
13842TIP3    H163017   4.432   3.386  11.192  0.8917 -0.7713 -0.0851
13842TIP3    H263018   4.471   3.356  11.335 -0.1156  0.5420  0.4849
13843TIP3   OH263019   2.778   0.448   2.741  0.1920 -0.0493  0.0378
13843TIP3    H163020   2.776   0.532   2.695 -3.6484 -0.0617 -0.1826
13843TIP3    H263021   2.840   0.461   2.812  3.3046  1.3020 -2.6459
13844TIP3   OH263022   3.015   3.496   1.086 -0.1764 -0.1478  0.7610
13844TIP3    H163023   2.954   3.548   1.035  0.3924  0.5656  0.7995
13844TIP3    H263024   3.012   3.409   1.046 -0.9364 -0.0237  0.5380
13845TIP3   OH263025   1.815   5.087   4.660  0.3723  0.0109  0.2010
13845TIP3    H163026   1.747   5.034   4.701  1.9728 -2.2141  0.2048
13845TIP3    H263027   1.774   5.123   4.582 -0.9446 -0.8234  0.4762
13846TIP3   OH263028   5.033   5.803  10.999  0.2032  0.0702  0.4155
13846TIP3    H163029   5.029   5.722  11.050  0.6600 -0.4877 -0.4053
13846TIP3    H263030   5.119   5.840  11.019 -0.2116  0.6347  1.1917
13847TIP3   OH263031   1.965   0.134   0.037 -0.3801 -0.0240  0.1208
13847TIP3    H163032   1.947   0.040   0.041  1.5518 -0.4358  0.1902
13847TIP3    H263033   1.975   0.160   0.128  0.6283 -0.1079  0.0471
13848TIP3   OH263034   0.719   0.390   5.557 -0.3941  0.0655  0.1984
13848TIP3    H163035   0.807   0.417   5.584 -0.5411  3.0986 -1.8832
13848TIP3    H263036   0.666   0.395   5.637  1.0900 -0.8711  1.2829
13849TIP3   OH263037   5.718   0.751   2.966 -0.0215  0.1160  0.2764
13849TIP3    H163038   5.627   0.725   2.981 -0.4723  1.7761  0.5528
13849TIP3    H263039   5.737   0.813   3.036  0.1602  2.5030 -1.7563
13850TIP3   OH263040   4.199   3.768   2.465 -0.0757 -0.2472  0.6332
13850TIP3    H163041   4.169   3.683   2.495  0.9082 -0.1163  2.0881
13850TIP3    H263042   4.201   3.822   2.544 -2.2687  1.6540 -0.4913
13851TIP3   OH263043   3.897   2.811  11.473 -0.0854 -0.2958 -0.0755
13851TIP3    H163044   3.816   2.765  11.495  0.6285 -1.7846 -0.4013
13851TIP3    H263045   3.957   2.742  11.444  2.1655  0.3473  2.5713
13852TIP3   OH263046   6.480   1.899   3.123  0.2035 -0.3374  0.3700
13852TIP3    H163047   6.432   1.977   3.150  2.1038  1.3670 -0.8128
13852TIP3    H263048   6.446   1.829   3.178 -0.7334  1.5748  2.3675
13853TIP3   OH263049   4.132   1.531  14.809  0.1457 -0.1526  0.2580
13853TIP3    H163050   4.216   1.572  14.787 -0.2356 -0.4263 -1.9848
13853TIP3    H263051   4.138   1.443  14.773 -1.1195 -0.1440 -0.0430
13854TIP3   OH263052   3.871   2.365   5.659 -0.1052 -0.1937 -0.0420
13854TIP3    H163053   3.795   2.307   5.649  1.6520 -2.8642  1.1648
13854TIP3    H263054   3.944   2.307   5.680  2.0083  2.4058  0.3755
13855TIP3   OH263055   0.169   1.742   0.028  0.3878 -0.0559  0.6324
13855TIP3    H163056   0.091   1.791   0.053  0.9009  1.3143 -0.3170
13855TIP3    H263057   0.240   1.806   0.035  1.2490 -0.9787  0.4482
13856TIP3   OH263058   5.325   3.331  11.755 -0.0886 -0.2591  0.0575
13856TIP3    H163059   5.356   3.298  11.839 -0.9975  0.3463  0.6489
13856TIP3    H263060   5.232   3.311  11.755  0.0700 -1.0822 -1.2178
13857TIP3   OH263061   2.782   6.346   2.334 -0.1667 -0.1870  0.1227
13857TIP3    H163062   2.790   6.286   2.260  0.1459  0.0925 -0.0756
13857TIP3    H263063   2.735   6.297   2.400 -0.7649 -0.3270 -0.3941
13858TIP3   OH263064   5.027   2.510  16.692 -0.4057  0.5240 -0.0772
13858TIP3    H163065   4.962   2.575  16.666  0.5818  1.2137 -0.8922
13858TIP3    H263066   5.054   2.536  16.780 -0.1262  1.1386 -0.3435
13859TIP3   OH263067   6.003   2.787   6.455  0.8217  0.0162 -0.0744
13859TIP3    H163068   6.082   2.802   6.507  1.6017 -0.8534 -0.9812
13859TIP3    H263069   5.973   2.701   6.482  0.8274 -0.1350 -0.5421
13860TIP3   OH263070   6.811   4.582   4.346 -0.0435 -0.1085  0.8466
13860TIP3    H163071   6.844   4.495   4.365  0.8217  0.6037  2.9550
13860TIP3    H263072   6.827   4.595   4.253 -0.4591 -2.2695  0.4310
13861TIP3   OH263073   4.135   3.571   3.700  0.1693  0.3541  0.3802
13861TIP3    H163074   4.168   3.661   3.699  2.7819 -0.5110 -1.4837
13861TIP3    H263075   4.152   3.541   3.790 -0.2419  1.5178  0.8766
13862TIP3   OH263076   5.822   0.041   6.485 -0.3340 -0.3593 -0.3974
13862TIP3    H163077   5.823   0.131   6.517 -1.2278 -1.1494  2.0571
13862TIP3    H263078   5.910   0.028   6.449  1.0804  0.4593  2.4840
13863TIP3   OH263079   0.634   0.626   0.921  0.2767  0.1309 -0.0856
13863TIP3    H163080   0.547   0.608   0.885  0.3667 -2.0312  0.6191
13863TIP3    H263081   0.639   0.570   0.999  1.6861  1.4671  0.8351
13864TIP3   OH263082   1.300   0.449   3.485 -0.5062 -0.3314  0.6090
13864TIP3    H163083   1.336   0.537   3.490 -0.2915 -0.3885  0.0886
13864TIP3    H263084   1.367   0.393   3.526  0.3675 -0.5368 -0.9990
13865TIP3   OH263085   2.338   4.296   2.662 -0.4921  0.3509  0.7721
13865TIP3    H163086   2.257   4.256   2.629 -0.5231  1.2747 -0.3435
13865TIP3    H263087   2.386   4.321   2.583 -0.1911  1.9204  1.4047
13866TIP3   OH263088   2.465   5.996   0.409  0.1224  0.5928  0.1677
13866TIP3    H163089   2.375   6.004   0.438 -0.7679 -1.4074 -1.7224
13866TIP3    H263090   2.512   6.067   0.453 -2.5970  2.4774  0.2289
13867TIP3   OH263091   0.060   1.823   1.279  0.2442 -0.2242 -0.5835
13867TIP3    H163092   0.074   1.773   1.360  1.1049  0.8499 -0.0439
13867TIP3    H263093  -0.027   1.861   1.289  0.6008  0.4309  0.1444
13868TIP3   OH263094   2.809   6.730  14.710 -0.3435 -0.1187  0.5925
13868TIP3    H163095   2.787   6.755  14.800 -1.3735 -1.3712  0.7204
13868TIP3    H263096   2.893   6.686  14.716  0.0354  0.6231  0.7968
13869TIP3   OH263097   5.064   6.649  15.821 -0.5075 -0.1552  0.4197
13869TIP3    H163098   5.145   6.615  15.784 -1.1019 -0.0860 -1.0143
13869TIP3    H263099   5.092   6.720  15.880  0.3971  1.4375 -1.8119
13870TIP3   OH263100   2.676   6.027  14.311  0.3300 -0.1174 -0.1721
13870TIP3    H163101   2.681   6.054  14.402 -0.1249 -0.5462 -0.0145
13870TIP3    H263102   2.582   6.022  14.293  0.3050  2.7009 -1.4899
13871TIP3   OH263103   3.134   4.770  11.215  0.0895  0.0704  0.0575
13871TIP3    H163104   3.120   4.702  11.281 -0.2667 -1.9060 -1.9199
13871TIP3    H263105   3.053   4.770  11.163  0.7896  0.7205 -1.0834
13872TIP3   OH263106   4.093   6.337   1.886 -0.2000 -0.2385  0.3917
13872TIP3    H163107   4.086   6.422   1.841  0.7708  0.4733  1.5017
13872TIP3    H263108   4.004   6.304   1.889 -0.7345  1.1516  0.6584
13873TIP3   OH263109   3.225   2.925  15.332  0.3165  0.3978 -0.4572
13873TIP3    H163110   3.161   2.996  15.324 -0.9707 -0.7617 -0.8140
13873TIP3    H263111   3.292   2.959  15.391 -0.9429  1.4259  0.4100
13874TIP3   OH263112   2.107   3.240   4.918 -0.5167 -0.0229  0.3726
13874TIP3    H163113   2.091   3.146   4.908  3.8028 -1.1365  1.7661
13874TIP3    H263114   2.068   3.262   5.003 -3.1214  0.0091 -0.7431
13875TIP3   OH263115   0.078   0.121  16.231  0.0716  0.0073  0.0084
13875TIP3    H163116   0.085   0.102  16.137  2.3371 -0.4660  0.1971
13875TIP3    H263117  -0.015   0.137  16.246 -0.1396  2.0397 -2.6890
13876TIP3   OH263118   4.627   4.878  14.829  0.3970 -0.2789 -0.1049
13876TIP3    H163119   4.574   4.799  14.821  0.9895 -0.9535  1.9873
13876TIP3    H263120   4.601   4.916  14.913  3.1178 -0.6152  0.9869
13877TIP3   OH263121   1.855   2.785  16.107  0.3594 -0.2063 -0.5878
13877TIP3    H163122   1.806   2.825  16.036 -2.6996 -1.4561  0.6491
13877TIP3    H263123   1.849   2.691  16.091 -0.8386 -0.5479  1.4789
13878TIP3   OH263124   5.673   1.118  12.501  0.2760  0.7788  0.3679
13878TIP3    H163125   5.665   1.044  12.440 -3.0073 -0.3966  1.9976
13878TIP3    H263126   5.673   1.196  12.445 -1.6664 -0.2809 -1.2312
13879TIP3   OH263127   5.430   2.796  15.677 -0.0442  0.5506 -0.1867
13879TIP3    H163128   5.507   2.788  15.620  0.6648  0.3401  0.7689
13879TIP3    H263129   5.383   2.872  15.643 -0.0274  0.0165 -1.4817
13880TIP3   OH263130   3.482   1.576   4.883  0.4890 -0.2056 -0.3876
13880TIP3    H163131   3.453   1.659   4.845  3.0523  0.9250 -0.0848
13880TIP3    H263132   3.462   1.584   4.976  0.0708 -0.2375 -0.4741
13881TIP3   OH263133   2.880   1.032  15.599  0.1428  0.0917 -0.2532
13881TIP3    H163134   2.878   1.037  15.503 -0.6870 -0.6711 -0.2936
13881TIP3    H263135   2.897   1.122  15.627 -2.2397  0.9056 -1.0843
13882TIP3   OH263136   4.170   1.518   2.017  0.2511 -0.4103 -0.0495
13882TIP3    H163137   4.164   1.467   2.098  1.4821 -0.1813  0.1965
13882TIP3    H263138   4.097   1.486   1.963 -1.1815  0.1082  1.5083
13883TIP3   OH263139   5.598   3.865   3.337 -0.5170 -0.3184 -0.7574
13883TIP3    H163140   5.535   3.849   3.268 -0.4308 -1.0977 -0.6685
13883TIP3    H263141   5.675   3.900   3.292 -0.2583 -1.3354 -1.1455
13884TIP3   OH263142   5.925   3.122   3.564 -0.4266  0.3558  1.0689
13884TIP3    H163143   5.972   3.043   3.592  1.4665  1.0477  0.0351
13884TIP3    H263144   5.877   3.150   3.642  0.6293 -0.5991  2.1043
13885TIP3   OH263145   1.303   2.156  15.097 -0.0876 -0.1813  0.0005
13885TIP3    H163146   1.384   2.201  15.073  0.1842 -0.8716 -0.3876
13885TIP3    H263147   1.321   2.118  15.183  0.0806 -0.5353 -0.1917
13886TIP3   OH263148   5.682   6.107   6.077  0.3191 -0.3344 -0.0076
13886TIP3    H163149   5.690   6.201   6.065 -0.1022 -0.1669  0.9113
13886TIP3    H263150   5.747   6.086   6.145  1.0351 -0.8549 -0.8337
13887TIP3   OH263151   5.879   3.065  12.271 -0.7969  0.1946 -0.1403
13887TIP3    H163152   5.867   3.147  12.225 -0.0826  1.0811  1.1975
13887TIP3    H263153   5.973   3.051  12.274 -0.5345  1.6065  3.3225
13888TIP3   OH263154   5.940   4.607  14.091 -0.3181  0.4191 -0.8671
13888TIP3    H163155   6.000   4.660  14.143  0.6611 -0.9761 -0.4983
13888TIP3    H263156   5.992   4.583  14.013 -0.3239 -0.9079 -0.4850
13889TIP3   OH263157   0.619   4.258   1.587 -0.1245 -0.5563  0.3975
13889TIP3    H163158   0.609   4.225   1.497 -0.3753  1.5009 -0.3905
13889TIP3    H263159   0.544   4.223   1.634  0.0155 -1.6789 -0.1907
13890TIP3   OH263160   5.845   2.769  13.718  0.1726  0.7466 -0.1889
13890TIP3    H163161   5.789   2.783  13.795  0.8164  1.0060  0.2469
13890TIP3    H263162   5.784   2.758  13.646 -0.4525  0.3728  0.3802
13891TIP3   OH263163   4.608   0.140   0.272  0.2319  0.2340 -0.0508
13891TIP3    H163164   4.578   0.070   0.330 -0.5285 -0.4876 -1.2886
13891TIP3    H263165   4.699   0.119   0.254  0.2762  0.0951  0.3208
13892TIP3   OH263166   5.359   0.145   1.429  0.0592 -0.1161  0.5722
13892TIP3    H163167   5.429   0.184   1.377 -0.5103 -0.1649 -0.2455
13892TIP3    H263168   5.283   0.148   1.372 -1.3999  2.6647  2.4518
13893TIP3   OH263169   4.736   4.833  11.249 -0.1930 -0.1184 -0.1189
13893TIP3    H163170   4.776   4.746  11.246 -2.9916 -1.5076 -1.6500
13893TIP3    H263171   4.804   4.892  11.218  0.9026 -2.2026 -2.0279
13894TIP3   OH263172   5.445   1.077  15.463  0.3395 -0.0081  0.2493
13894TIP3    H163173   5.426   1.062  15.555  0.4325 -1.7083  0.0223
13894TIP3    H263174   5.375   1.136  15.433 -0.9629 -1.1533  0.9141
13895TIP3   OH263175   1.007   5.404  12.066  0.2372  0.3488 -0.1172
13895TIP3    H163176   1.025   5.428  12.157  1.3450  0.3553 -0.3221
13895TIP3    H263177   1.069   5.334  12.047 -0.4502 -0.1220 -0.6674
13896TIP3   OH263178   3.129   5.763   2.945 -0.8916  0.0232  0.1607
13896TIP3    H163179   3.150   5.855   2.960 -3.8573  0.8841 -0.4167
13896TIP3    H263180   3.176   5.716   3.014 -2.2278  2.3479  2.8452
13897TIP3   OH263181   5.405   5.745   2.303 -0.0749 -0.2665 -0.2025
13897TIP3    H163182   5.489   5.789   2.287 -0.8642  2.0424  1.5213
13897TIP3    H263183   5.397   5.682   2.231  2.8915 -0.2327 -0.6789
13898TIP3   OH263184   1.265   2.576   3.441  0.1271  0.2291 -0.3326
13898TIP3    H163185   1.229   2.490   3.461 -0.8060  0.2339 -1.8092
13898TIP3    H263186   1.336   2.558   3.379 -0.1213  0.5162 -0.7055
13899TIP3   OH263187   6.245   6.196   1.665 -0.1559 -0.1150 -0.1167
13899TIP3    H163188   6.211   6.121   1.616  0.4741 -0.4289 -0.0686
13899TIP3    H263189   6.286   6.158   1.742  0.1688  0.2825 -0.0935
13900TIP3   OH263190   4.626   3.503  16.071 -0.8777 -0.0252  0.6851
13900TIP3    H163191   4.613   3.596  16.051  0.9478  0.1859  0.2525
13900TIP3    H263192   4.589   3.491  16.158 -0.9113  1.1748  0.8487
13901TIP3   OH263193   5.454   0.752   0.323  0.7212 -0.1335  0.3845
13901TIP3    H163194   5.525   0.763   0.387  0.5019  0.0410  0.5978
13901TIP3    H263195   5.498   0.756   0.238  0.9098  0.4155  0.5046
13902TIP3   OH263196   5.191   1.121   4.117  0.3266  0.1325 -0.1805
13902TIP3    H163197   5.268   1.133   4.173  0.7480 -2.8512  0.0661
13902TIP3    H263198   5.228   1.098   4.031 -0.3270  3.2533 -1.4167
13903TIP3   OH263199   5.336   2.343  11.746  0.7113  0.2784  0.7584
13903TIP3    H163200   5.393   2.267  11.754  1.3946  0.6643 -0.2776
13903TIP3    H263201   5.390   2.410  11.704 -0.9859  0.0691 -2.0044
13904TIP3   OH263202   1.109   1.992   0.155  0.1921  0.5618 -0.1984
13904TIP3    H163203   1.200   1.962   0.165 -0.2935 -1.2735 -0.7632
13904TIP3    H263204   1.115   2.072   0.103  1.5122  0.7788  0.2521
13905TIP3   OH263205   3.696   3.483   1.652 -0.0305  0.6682  0.1988
13905TIP3    H163206   3.727   3.470   1.562 -0.8428  0.0501 -0.0150
13905TIP3    H263207   3.613   3.434   1.655  0.5552 -0.3074  1.6246
13906TIP3   OH263208   1.347   0.219   0.513 -0.3670  0.0973  0.2475
13906TIP3    H163209   1.308   0.300   0.545  0.1668  0.0650  1.0184
13906TIP3    H263210   1.421   0.203   0.572 -0.1153 -0.6417 -0.2493
13907TIP3   OH263211   4.134   2.954   4.330  0.0152 -0.1009 -0.4163
13907TIP3    H163212   4.082   2.880   4.297 -0.7306  0.3991 -0.3667
13907TIP3    H263213   4.137   3.016   4.257 -1.9653  1.1837  0.5168
13908TIP3   OH263214   5.310   2.490  13.821 -0.4390  0.3173  0.0507
13908TIP3    H163215   5.228   2.538  13.811 -0.7111  0.3267  1.9818
13908TIP3    H263216   5.373   2.539  13.769 -1.4456  0.8471 -0.7076
13909TIP3   OH263217   0.043   3.646   1.360 -0.7197  0.2873 -0.5052
13909TIP3    H163218  -0.026   3.612   1.416 -0.6581 -1.3976 -1.3556
13909TIP3    H263219   0.006   3.643   1.272  0.8250 -2.0748 -1.1930
13910TIP3   OH263220   6.158   5.533   4.534  0.4633 -0.1387  0.2760
13910TIP3    H163221   6.224   5.468   4.558 -1.4872 -1.7944  1.5690
13910TIP3    H263222   6.207   5.605   4.494  2.9303 -1.5337  0.6161
13911TIP3   OH263223   5.026   1.108  15.880  0.0680 -0.4702  0.1850
13911TIP3    H163224   5.120   1.127  15.873  0.3138 -1.9373 -1.0043
13911TIP3    H263225   4.998   1.094  15.789 -1.2807 -0.1934  0.5449
13912TIP3   OH263226   3.375   5.000   3.229 -0.6577  0.1757 -0.0676
13912TIP3    H163227   3.436   5.069   3.204 -0.2084 -1.1353 -3.0291
13912TIP3    H263228   3.344   4.965   3.145 -1.9138 -2.2755  1.3323
13913TIP3   OH263229   0.448   5.811  16.098  0.2622  0.2963  0.0264
13913TIP3    H163230   0.431   5.784  16.008  0.0806  0.4462  0.0139
13913TIP3    H263231   0.543   5.799  16.109 -0.1203 -2.7811  0.8326
13914TIP3   OH263232   5.187   2.063   6.166 -0.1273 -0.3037  0.3327
13914TIP3    H163233   5.250   1.996   6.140  0.7577  0.6153  0.0641
13914TIP3    H263234   5.221   2.144   6.129 -0.7324  0.4456  1.3610
13915TIP3   OH263235   2.318   6.368   1.927 -0.0316 -0.0948  0.1719
13915TIP3    H163236   2.295   6.421   1.850  0.8166  0.8192  0.5207
13915TIP3    H263237   2.366   6.429   1.983  1.1014 -1.2930  0.5226
13916TIP3   OH263238   5.575   2.206   0.012  0.1283 -0.0867  1.1021
13916TIP3    H163239   5.661   2.242   0.031 -0.1144  0.5302  1.0608
13916TIP3    H263240   5.531   2.275  -0.039 -0.4062 -0.3703  1.1727
13917TIP3   OH263241   6.028   1.468   0.540 -0.3347  0.5588  0.1249
13917TIP3    H163242   5.959   1.517   0.585  0.2805  1.0248  0.5884
13917TIP3    H263243   6.038   1.387   0.591  0.7408  1.3293  1.2016
13918TIP3   OH263244   0.356   5.510   4.462 -0.3305  0.0125  0.2937
13918TIP3    H163245   0.300   5.563   4.406 -2.1450 -1.0314  1.0481
13918TIP3    H263246   0.371   5.430   4.412  0.4510  0.2469  0.1345
13919TIP3   OH263247   2.199   0.950   1.609 -0.1141 -0.2182  0.0497
13919TIP3    H163248   2.143   0.882   1.569 -2.5575  1.7563 -0.1399
13919TIP3    H263249   2.177   0.946   1.702  0.6296 -0.4309  0.2232
13920TIP3   OH263250   5.680   4.159  14.979 -0.3775 -0.2163 -0.5970
13920TIP3    H163251   5.643   4.198  15.059 -0.9228 -1.0647 -0.4221
13920TIP3    H263252   5.666   4.225  14.912  1.1817  1.0411  0.2291
13921TIP3   OH263253   6.427   2.579   5.157  0.2216  0.3130 -0.0724
13921TIP3    H163254   6.414   2.672   5.140  0.0403  0.3485  0.2387
13921TIP3    H263255   6.461   2.544   5.075 -2.4430  0.0906 -1.1843
13922TIP3   OH263256   1.857   5.494  13.392  0.3667  0.0322  0.3952
13922TIP3    H163257   1.931   5.435  13.380  0.1879  0.0118 -0.7303
13922TIP3    H263258   1.836   5.525  13.304 -1.4343 -0.5514  0.5760
13923TIP3   OH263259   2.967   2.515  13.037  0.0898 -0.0402 -0.0149
13923TIP3    H163260   2.895   2.561  13.081 -0.9356 -1.1116 -0.5213
13923TIP3    H263261   2.994   2.574  12.966 -0.4123  0.2968  0.0701
13924TIP3   OH263262   5.996   5.861   1.875  0.3490  0.0514 -0.0016
13924TIP3    H163263   5.942   5.930   1.837  0.0366 -0.6955 -0.9598
13924TIP3    H263264   6.071   5.854   1.816  1.1906  0.6402  0.9626
13925TIP3   OH263265   0.133   4.631  12.298  0.0541  0.6089 -0.0041
13925TIP3    H163266   0.114   4.659  12.209  0.8270  0.9273 -0.0735
13925TIP3    H263267   0.052   4.646  12.346 -0.4603  0.1669 -0.7098
13926TIP3   OH263268   3.511   1.625  14.842 -0.4809 -0.5977  0.1412
13926TIP3    H163269   3.429   1.644  14.796  0.5832  2.2700 -0.8318
13926TIP3    H263270   3.548   1.551  14.795 -0.4695  0.8753 -2.3367
13927TIP3   OH263271   5.236   0.394   1.702  0.1859  0.3481  0.1564
13927TIP3    H163272   5.185   0.457   1.752 -1.8526  0.0588 -1.4226
13927TIP3    H263273   5.273   0.445   1.630  0.2820  0.1373  0.0548
13928TIP3   OH263274   5.632   3.768  11.773 -0.4903  0.0092 -0.5577
13928TIP3    H163275   5.544   3.739  11.750  0.1249 -1.0619 -1.6798
13928TIP3    H263276   5.667   3.804  11.691  0.7487 -1.2379 -0.5970
13929TIP3   OH263277   2.951   4.605   0.467  0.2705  0.1332  0.8541
13929TIP3    H163278   2.968   4.515   0.495  0.2923  0.4054  1.7445
13929TIP3    H263279   3.033   4.652   0.483 -0.0549  0.5394  1.3602
13930TIP3   OH263280   2.383   5.469   4.497 -0.3682  0.0971 -0.2463
13930TIP3    H163281   2.466   5.455   4.544  0.7166  0.5062 -1.9547
13930TIP3    H263282   2.322   5.497   4.565  1.5122  2.1374  0.7249
13931TIP3   OH263283   4.637   3.008  15.925 -0.3504 -0.3207  0.5301
13931TIP3    H163284   4.673   2.920  15.913 -0.4191 -0.4544  1.2871
13931TIP3    H263285   4.693   3.064  15.873 -0.1590 -0.7800  0.2343
13932TIP3   OH263286   5.264   3.740   0.152 -0.1310 -0.3984  0.3360
13932TIP3    H163287   5.334   3.792   0.191 -0.5968 -0.6164  1.5018
13932TIP3    H263288   5.285   3.650   0.177 -0.1291 -0.6085 -0.4160
13933TIP3   OH263289   0.450   3.831   0.022 -0.9108  0.0774 -0.5555
13933TIP3    H163290   0.528   3.784  -0.007 -1.2893 -0.5753 -0.5513
13933TIP3    H263291   0.464   3.846   0.115 -1.4353 -1.3855 -0.2112
13934TIP3   OH263292   4.874   2.436  13.018 -0.0902 -0.8504 -0.0904
13934TIP3    H163293   4.805   2.406  13.077 -0.2992  1.1824  0.7739
13934TIP3    H263294   4.927   2.495  13.071  1.7615 -1.6065 -1.0178
13935TIP3   OH263295   3.428   3.113  12.089  0.2093 -0.1737 -0.3938
13935TIP3    H163296   3.450   3.021  12.106  2.1109  0.3366  0.1073
13935TIP3    H263297   3.468   3.132  12.004 -0.2508  0.1898 -0.5382
13936TIP3   OH263298   2.142   3.854   4.406  0.3225 -0.1814 -0.2437
13936TIP3    H163299   2.099   3.937   4.384  0.8896  0.1303 -0.1937
13936TIP3    H263300   2.233   3.878   4.423  0.4317 -0.7788  0.0379
13937TIP3   OH263301   3.640   2.212  14.952 -0.5801 -0.1651 -0.1295
13937TIP3    H163302   3.574   2.258  14.901 -1.5809 -2.2506 -0.8100
13937TIP3    H263303   3.605   2.123  14.963  1.6712 -1.0729  0.2810
13938TIP3   OH263304   4.279   1.234   5.132 -0.3201 -0.1806  0.0243
13938TIP3    H163305   4.214   1.183   5.084  0.7610 -0.3402 -1.3458
13938TIP3    H263306   4.352   1.173   5.146  1.2808  1.0719 -2.2303
13939TIP3   OH263307   5.237   6.556   3.967 -0.3477  0.3427  0.1700
13939TIP3    H163308   5.175   6.495   4.006 -2.0663  0.4145 -2.1918
13939TIP3    H263309   5.222   6.639   4.014 -1.1028  0.0177  0.5241
13940TIP3   OH263310   3.505   2.740   0.901  0.8103  0.3093 -0.3752
13940TIP3    H163311   3.567   2.813   0.901  1.7589 -0.4573  0.7363
13940TIP3    H263312   3.547   2.673   0.955 -1.3485  0.0829  1.1684
13941TIP3   OH263313   3.621   6.647  13.446 -0.7981 -0.2328 -0.5638
13941TIP3    H163314   3.617   6.701  13.368 -0.7865 -0.8950 -1.0321
13941TIP3    H263315   3.603   6.558  13.415  0.3969 -0.6921 -0.0174
13942TIP3   OH263316   3.074   4.721   1.350 -0.1428  0.2922  0.4054
13942TIP3    H163317   3.049   4.811   1.327  0.6203  0.5369  0.4834
13942TIP3    H263318   3.168   4.717   1.330 -0.4533 -0.9483 -1.0043
13943TIP3   OH263319   4.173   4.006  16.132  0.2434 -0.9340  0.8532
13943TIP3    H163320   4.213   4.090  16.111 -0.8718 -0.4713  0.5178
13943TIP3    H263321   4.247   3.949  16.153  0.9792  0.2843  1.7026
13944TIP3   OH263322   0.346   0.259   1.739 -0.1222 -0.1305 -0.1819
13944TIP3    H163323   0.386   0.346   1.735 -0.0840 -0.0523  1.3614
13944TIP3    H263324   0.419   0.198   1.742 -0.1150 -0.0925  0.7008
13945TIP3   OH263325   5.077   4.480  15.325 -0.6412 -0.1111 -0.2458
13945TIP3    H163326   5.107   4.570  15.330  0.3354 -0.4509  0.2766
13945TIP3    H263327   5.002   4.476  15.385 -0.2349  0.1746  0.2809
13946TIP3   OH263328   3.870   0.774   4.419 -1.0609 -0.2311  0.0933
13946TIP3    H163329   3.825   0.691   4.434 -0.5660 -0.3172  1.2487
13946TIP3    H263330   3.892   0.805   4.507 -0.0195  0.4466 -0.3897
13947TIP3   OH263331   5.479   5.773   2.693 -0.0048 -0.1940  0.4159
13947TIP3    H163332   5.434   5.761   2.777  2.5937  0.2673  2.0262
13947TIP3    H263333   5.464   5.864   2.670 -1.1591 -0.4580  0.0757
13948TIP3   OH263334   3.317   6.097  17.188  0.3700  0.1583  0.5445
13948TIP3    H163335   3.370   6.023  17.217 -0.4745  0.3073  2.7087
13948TIP3    H263336   3.230   6.060  17.175  0.7595  0.0351 -2.3987
13949TIP3   OH263337   0.617   2.297  16.001  0.4104  0.1860 -0.0585
13949TIP3    H163338   0.635   2.257  16.087  0.3287 -0.6109 -0.4021
13949TIP3    H263339   0.703   2.301  15.958  0.3709  0.1061 -0.1435
13950TIP3   OH263340   1.220   3.728  12.860 -0.1320  0.2287 -0.1157
13950TIP3    H163341   1.223   3.745  12.765  2.0028 -1.3538 -0.3857
13950TIP3    H263342   1.147   3.667  12.870 -0.8374  0.9568 -0.5967
13951TIP3   OH263343   5.646   0.843   1.036  0.8474 -0.9611  0.3124
13951TIP3    H163344   5.628   0.907   1.104  1.4034 -1.2862  0.7709
13951TIP3    H263345   5.563   0.835   0.988  0.0185 -1.7408  1.8007
13952TIP3   OH263346   0.000   4.273  12.455  0.0034  0.3110  0.3978
13952TIP3    H163347  -0.007   4.182  12.483  0.3005  0.9353  2.7300
13952TIP3    H263348   0.088   4.300  12.482  0.2895  1.0507 -1.1399
13953TIP3   OH263349   0.724   4.458  12.292  0.0874  0.2230  0.1829
13953TIP3    H163350   0.665   4.403  12.242 -1.0429  0.9480  0.6631
13953TIP3    H263351   0.707   4.434  12.384  0.5636  0.4192  0.3263
13954TIP3   OH263352   0.187   2.921  13.254  0.1445  0.2469 -0.0761
13954TIP3    H163353   0.275   2.912  13.216 -0.7443 -0.4305 -2.1251
13954TIP3    H263354   0.169   2.835  13.293  0.2521  0.2772  0.0412
13955TIP3   OH263355   6.098   0.977  14.569 -0.1592 -0.3299 -0.1452
13955TIP3    H163356   6.062   0.931  14.645 -1.5329 -0.7306 -1.0135
13955TIP3    H263357   6.044   1.055  14.560  0.3455 -0.0026 -0.3951
13956TIP3   OH263358   2.096   4.156   2.584 -0.1107 -0.2662 -0.2122
13956TIP3    H163359   2.011   4.199   2.587 -0.1254 -0.3103  0.0554
13956TIP3    H263360   2.084   4.081   2.526 -0.0731  0.1191 -0.7175
13957TIP3   OH263361   4.497   5.151   0.302 -0.1059 -0.5264  0.0703
13957TIP3    H163362   4.493   5.247   0.306 -0.7293 -0.5728  0.7753
13957TIP3    H263363   4.568   5.127   0.361 -0.5724 -0.5335  0.6453
13958TIP3   OH263364   5.235   4.789  16.134 -0.4614 -0.3295 -0.8081
13958TIP3    H163365   5.162   4.803  16.195 -0.2722  2.0862 -1.0340
13958TIP3    H263366   5.206   4.716  16.079 -2.8518  0.6819 -1.0413
13959TIP3   OH263367   5.784   4.307   3.228  0.0112 -0.1943  0.2764
13959TIP3    H163368   5.869   4.284   3.189  0.6258  0.1037  1.3920
13959TIP3    H263369   5.720   4.275   3.165  0.9038 -1.7560  0.1064
13960TIP3   OH263370   4.214   1.660   5.164 -0.1786  0.3492 -0.4473
13960TIP3    H163371   4.208   1.591   5.230  0.2662  0.5391 -0.2121
13960TIP3    H263372   4.244   1.737   5.211 -0.3875  0.6308 -0.7677
13961TIP3   OH263373   1.246   0.715   1.698  0.5568  0.2193 -0.7330
13961TIP3    H163374   1.299   0.794   1.706  0.4761  0.3137 -1.1052
13961TIP3    H263375   1.248   0.694   1.604 -1.3463  1.1163 -1.0137
13962TIP3   OH263376   6.530   2.263  16.261 -0.5801 -0.8349 -0.0880
13962TIP3    H163377   6.511   2.231  16.349  1.6503 -1.0819  0.3509
13962TIP3    H263378   6.608   2.317  16.271 -2.0592  1.7499 -1.4459
13963TIP3   OH263379   3.562   6.629  10.968  0.1191  0.6229 -0.4806
13963TIP3    H163380   3.487   6.674  10.930  0.1852 -0.1841 -1.6277
13963TIP3    H263381   3.580   6.676  11.049 -2.1490  0.3068  0.2729
13964TIP3   OH263382   0.797   3.878  12.847 -0.4534  0.3211  0.2129
13964TIP3    H163383   0.768   3.788  12.837 -1.4946  0.5973  0.6779
13964TIP3    H263384   0.754   3.926  12.777 -1.0143  0.7042  0.8082
13965TIP3   OH263385   4.896   0.911  12.754  0.9301 -0.1767 -0.6490
13965TIP3    H163386   4.955   0.862  12.812  0.5639 -0.4675 -0.5214
13965TIP3    H263387   4.832   0.952  12.812  1.8847  1.4003 -0.6445
13966TIP3   OH263388   6.371   3.162   1.160  0.0268  0.5201 -0.3319
13966TIP3    H163389   6.354   3.241   1.211  0.6661  0.4292  0.0261
13966TIP3    H263390   6.441   3.187   1.100  0.7584  0.0162  0.2955
13967TIP3   OH263391   2.624   1.153  12.487 -0.1611  0.4645  0.3884
13967TIP3    H163392   2.563   1.198  12.545 -1.1116  2.0916 -1.7117
13967TIP3    H263393   2.708   1.195  12.504 -0.2854  0.4417  1.0750
13968TIP3   OH263394   2.810   4.320  15.348 -0.2308  0.7127  0.3695
13968TIP3    H163395   2.796   4.250  15.411  0.2962  0.7417  0.5241
13968TIP3    H263396   2.854   4.278  15.274 -0.2294  0.8098  0.3156
13969TIP3   OH263397   6.640   1.229  10.559 -0.1324  0.3177 -0.2680
13969TIP3    H163398   6.616   1.168  10.490 -1.0565 -0.4041  0.6554
13969TIP3    H263399   6.697   1.178  10.618  0.9635  1.0313 -0.6638
13970TIP3   OH263400   4.059   2.003  11.215 -0.9725  0.4612 -0.1706
13970TIP3    H163401   4.043   2.019  11.308 -0.8499  1.0447 -0.2477
13970TIP3    H263402   4.013   2.073  11.170 -0.1898  0.7710 -0.4997
13971TIP3   OH263403   0.118   1.923   3.337 -0.2147 -0.0642 -0.4739
13971TIP3    H163404   0.100   1.871   3.415 -1.0329  1.1454  0.1820
13971TIP3    H263405   0.066   2.003   3.349  1.3002  1.0887 -1.2270
13972TIP3   OH263406   6.750   5.467  12.603  0.1615  0.6768 -0.5519
13972TIP3    H163407   6.800   5.473  12.684 -1.6053  1.2307  0.5639
13972TIP3    H263408   6.713   5.554  12.590  1.3516  0.9445 -2.6501
13973TIP3   OH263409   1.712   6.745  13.871 -0.0642 -0.0998  0.8041
13973TIP3    H163410   1.726   6.683  13.800  1.0043  0.8964  0.1134
13973TIP3    H263411   1.711   6.692  13.950 -2.3779 -1.3967  0.0260
13974TIP3   OH263412   6.114   5.904  15.734 -0.0121  0.1102 -0.4286
13974TIP3    H163413   6.163   5.953  15.668  0.6547  1.0886  0.7395
13974TIP3    H263414   6.175   5.896  15.808 -0.2462 -2.1680 -0.4191
13975TIP3   OH263415   4.052   1.085   0.538  0.6245 -0.1808 -0.2483
13975TIP3    H163416   4.041   1.004   0.588  0.7904  0.8428  1.5050
13975TIP3    H263417   4.038   1.155   0.602  0.6414  1.1910 -1.6907
13976TIP3   OH263418   0.593   5.267   1.227  0.2419  0.1485  0.3876
13976TIP3    H163419   0.633   5.185   1.196 -0.4344 -0.2498  0.5514
13976TIP3    H263420   0.531   5.239   1.293  0.5330  0.8692  0.9703
13977TIP3   OH263421   0.520   3.176   0.054  0.4074 -0.1486 -0.3034
13977TIP3    H163422   0.508   3.112   0.124 -1.2339 -2.7053 -2.7154
13977TIP3    H263423   0.484   3.257   0.090 -1.7401 -1.7160  1.3871
13978TIP3   OH263424   4.425   5.598   3.321 -0.0466 -0.3367  0.2142
13978TIP3    H163425   4.504   5.598   3.376 -1.4578 -0.0733  2.3748
13978TIP3    H263426   4.406   5.505   3.308 -1.0972 -0.5071  2.4436
13979TIP3   OH263427   1.335   3.709   5.158 -0.2416  0.6818  0.0321
13979TIP3    H163428   1.340   3.690   5.064 -1.4188  0.8778 -0.0828
13979TIP3    H263429   1.330   3.622   5.199  2.6436  0.4545  0.1381
13980TIP3   OH263430   1.522   6.360   1.292  0.4337 -0.5495 -0.2527
13980TIP3    H163431   1.552   6.349   1.382 -1.1646  1.0607  0.5450
13980TIP3    H263432   1.470   6.281   1.274  0.8642 -0.9347  0.1866
13981TIP3   OH263433   3.277   4.895   5.407  0.2782 -0.3415 -0.3459
13981TIP3    H163434   3.221   4.828   5.369 -1.2395  1.5098 -1.5627
13981TIP3    H263435   3.221   4.939   5.471  0.2499  1.5693 -1.6173
13982TIP3   OH263436   2.755   5.581   5.083  0.4329 -0.2401  0.1537
13982TIP3    H163437   2.762   5.489   5.107 -2.0868  0.3236  3.7903
13982TIP3    H263438   2.661   5.596   5.071  0.6785  2.0015  0.5043
13983TIP3   OH263439   5.480   4.599   6.156  0.1874 -0.9950 -0.0360
13983TIP3    H163440   5.439   4.525   6.201  1.5384 -2.1876 -0.7046
13983TIP3    H263441   5.543   4.633   6.220 -1.1832  0.3465  0.6929
13984TIP3   OH263442   4.567   0.039   1.297 -0.1967  0.1782 -0.2307
13984TIP3    H163443   4.629   0.070   1.364  0.5087 -0.8162 -0.4048
13984TIP3    H263444   4.514  -0.026   1.343 -0.1933  0.0221 -0.4487
13985TIP3   OH263445   3.255   5.661   5.836 -1.0055 -0.5455  0.1746
13985TIP3    H163446   3.203   5.727   5.880 -1.9011  0.0076 -1.6199
13985TIP3    H263447   3.341   5.667   5.877 -1.2504  1.2787  0.5078
13986TIP3   OH263448   5.864   0.498   3.020  0.3760  0.3558  0.6614
13986TIP3    H163449   5.815   0.423   3.056 -0.2299 -0.9798 -2.5472
13986TIP3    H263450   5.797   0.553   2.980  1.1492  0.4607 -0.5447
13987TIP3   OH263451   5.065   6.270  15.769  0.1614  0.1816 -0.2027
13987TIP3    H163452   4.974   6.293  15.789  0.0463  0.0793 -0.6025
13987TIP3    H263453   5.116   6.343  15.805 -0.0991  0.3741 -0.2190
13988TIP3   OH263454   1.015   2.020   5.927  0.1256 -0.2536  0.4468
13988TIP3    H163455   1.097   2.070   5.925 -0.5690  0.9964  1.4744
13988TIP3    H263456   0.992   2.016   6.020  0.3080 -2.8290  0.4355
13989TIP3   OH263457   1.512   3.913   4.026 -0.5088  0.2237 -0.8147
13989TIP3    H163458   1.521   3.818   4.021  1.9980  0.3465 -0.1650
13989TIP3    H263459   1.502   3.931   4.120 -0.1288  0.6139 -0.8403
13990TIP3   OH263460   3.722   1.209  11.693  0.2923  0.4021  0.0850
13990TIP3    H163461   3.634   1.177  11.673  1.0150  0.1929 -3.4423
13990TIP3    H263462   3.723   1.218  11.788 -3.8731  1.4704  0.2267
13991TIP3   OH263463   5.410   0.168   5.681  1.0521  0.3777  0.0941
13991TIP3    H163464   5.399   0.186   5.775 -0.4848  0.9222 -0.1728
13991TIP3    H263465   5.446   0.248   5.645 -0.5654  1.0212 -0.1549
13992TIP3   OH263466   1.866   5.867   6.157  0.3011 -0.0686  0.2796
13992TIP3    H163467   1.917   5.786   6.166  1.1475  0.4122 -0.0767
13992TIP3    H263468   1.778   5.842   6.183  0.8970 -0.7157  1.8745
13993TIP3   OH263469   5.712   0.962   6.605 -0.0699 -0.3129  0.7994
13993TIP3    H163470   5.739   1.035   6.661  3.0147 -0.6942 -0.0396
13993TIP3    H263471   5.616   0.962   6.611 -0.1366  2.9673  1.8597
13994TIP3   OH263472   4.669   0.963   2.514 -0.5712  0.0262 -0.3355
13994TIP3    H163473   4.582   1.003   2.519 -0.1162  1.1802 -1.1114
13994TIP3    H263474   4.699   0.981   2.425  1.2538  1.4086  0.4745
13995TIP3   OH263475   1.081   0.414   5.359  0.3167 -0.3805 -0.1559
13995TIP3    H163476   1.151   0.460   5.404 -0.2351 -1.3487  1.7811
13995TIP3    H263477   1.126   0.345   5.310  0.9734  1.0464 -1.6672
13996TIP3   OH263478   4.941   1.159  15.087  0.4601 -0.5780 -0.2380
13996TIP3    H163479   4.909   1.237  15.042 -2.2420 -1.5793 -0.2362
13996TIP3    H263480   5.010   1.125  15.029  0.9067  1.1434 -0.7878
13997TIP3   OH263481   2.567   3.414  11.629  0.5091 -0.4268  0.1575
13997TIP3    H163482   2.565   3.507  11.607  0.6764 -0.4228  0.1571
13997TIP3    H263483   2.485   3.379  11.594 -0.0311 -0.0821  1.0517
13998TIP3   OH263484   0.981   0.861  11.852 -0.0333  0.0098  0.1335
13998TIP3    H163485   0.902   0.871  11.799 -1.3626 -1.4311  1.7369
13998TIP3    H263486   0.955   0.886  11.940  0.9472 -1.5676  0.9185
13999TIP3   OH263487   5.827   4.622  14.763 -0.4024 -0.0451 -0.6085
13999TIP3    H163488   5.819   4.597  14.855 -0.7376 -0.7269 -0.8151
13999TIP3    H263489   5.747   4.588  14.722 -1.0954  1.7140 -0.8395
14000TIP3   OH263490   4.956   0.771  12.227 -0.5730 -0.1325  0.2636
14000TIP3    H163491   4.956   0.676  12.237 -0.9454  0.0189  2.1518
14000TIP3    H263492   5.019   0.788  12.157 -1.0305 -1.7983 -0.5993
14001TIP3   OH263493   2.011   1.383  14.041 -0.5046 -0.2031  0.0509
14001TIP3    H163494   2.071   1.336  13.984  1.2240 -0.5258  2.0148
14001TIP3    H263495   2.029   1.475  14.024 -2.6628 -0.1376 -2.5303
14002TIP3   OH263496   2.734   1.052   1.474  0.2608 -0.3628  0.3421
14002TIP3    H163497   2.718   1.092   1.560 -0.0673 -0.0459  0.1406
14002TIP3    H263498   2.774   1.122   1.423 -2.2598  0.4665 -0.6801
14003TIP3   OH263499   1.208   0.953  13.408 -0.7036 -0.6731 -0.0962
14003TIP3    H163500   1.139   0.891  13.430 -1.7565  0.0999 -1.0919
14003TIP3    H263501   1.180   1.035  13.450  0.1684 -0.6243  0.3983
14004TIP3   OH263502   0.326   0.704  15.141 -0.2685  0.3259 -0.4968
14004TIP3    H163503   0.261   0.705  15.210 -0.4773 -0.0237 -0.6838
14004TIP3    H263504   0.358   0.794  15.136 -1.0077  0.5866 -0.6570
14005TIP3   OH263505   4.497   6.182   1.771 -0.3391  0.3300  0.6669
14005TIP3    H163506   4.589   6.176   1.797  0.0087 -0.2959 -0.5981
14005TIP3    H263507   4.488   6.117   1.701 -1.8597  0.0749  1.0624
14006TIP3   OH263508   6.360   0.882   5.811 -0.9714  0.0006 -0.2813
14006TIP3    H163509   6.319   0.902   5.728 -0.3140  1.2621 -0.3163
14006TIP3    H263510   6.289   0.891   5.876 -1.0155  1.1043 -0.4641
14007TIP3   OH263511   1.793   1.555   1.968  0.0341  0.0323 -0.0898
14007TIP3    H163512   1.830   1.522   2.050  0.6719  1.4758  0.2486
14007TIP3    H263513   1.754   1.479   1.926 -2.4963 -0.3700  2.6769
14008TIP3   OH263514   3.164   1.536  13.387 -0.7707 -0.1657  0.2814
14008TIP3    H163515   3.133   1.447  13.367  0.1124 -0.3406 -0.4141
14008TIP3    H263516   3.194   1.531  13.477 -0.7445 -0.5805  0.2553
14009TIP3   OH263517   5.215   5.498   5.219 -0.0970  0.1082 -0.0013
14009TIP3    H163518   5.249   5.411   5.239 -0.8921 -0.4783 -1.0777
14009TIP3    H263519   5.265   5.557   5.275 -0.6473 -1.1887  1.9536
14010TIP3   OH263520   3.362   6.819   5.670 -0.1822 -0.6435 -0.0626
14010TIP3    H163521   3.355   6.801   5.763 -1.4071 -0.9705 -0.1889
14010TIP3    H263522   3.387   6.735   5.630 -2.9698 -1.4668 -0.3371
14011TIP3   OH263523   0.029   4.040   4.829  0.1868  0.2091 -0.1878
14011TIP3    H163524  -0.020   3.958   4.839 -0.6388  0.7961  0.6973
14011TIP3    H263525   0.034   4.075   4.918 -1.4864  2.2658 -0.8419
14012TIP3   OH263526   4.641   1.915   4.248  0.3081  0.4363  0.5519
14012TIP3    H163527   4.666   1.992   4.197  0.1189 -0.8496 -1.6634
14012TIP3    H263528   4.550   1.930   4.271 -0.0773  0.4187 -0.8581
14013TIP3   OH263529   2.774   0.184  16.762 -0.2841  0.3615  0.4564
14013TIP3    H163530   2.688   0.143  16.754 -0.3043  0.6140 -0.6857
14013TIP3    H263531   2.756   0.277  16.776 -0.2033  0.4902 -0.2477
14014TIP3   OH263532   1.433   3.791  12.429 -0.2229  0.1345 -0.4408
14014TIP3    H163533   1.520   3.753  12.442 -0.7799 -1.2985 -0.7000
14014TIP3    H263534   1.374   3.715  12.422 -1.4959  1.0695 -0.2798
14015TIP3   OH263535   3.443   2.136   1.732 -0.1004  0.0945  0.2599
14015TIP3    H163536   3.471   2.153   1.642 -1.5363  0.1251 -0.2029
14015TIP3    H263537   3.409   2.220   1.762 -0.3028 -0.1020  0.5813
14016TIP3   OH263538   5.978   3.529  12.367  0.1214  0.8516  0.4436
14016TIP3    H163539   5.986   3.620  12.338 -1.1345  0.0732 -2.7405
14016TIP3    H263540   6.066   3.493  12.359  0.0754  1.0428 -1.2610
14017TIP3   OH263541   4.204   0.469   0.261  0.3762 -0.2660  0.0698
14017TIP3    H163542   4.233   0.555   0.293  0.2378 -0.5003  0.8180
14017TIP3    H263543   4.285   0.418   0.254  0.2914 -0.5347  1.0068
14018TIP3   OH263544   4.482   1.206   4.639 -0.2951 -0.0054 -0.0948
14018TIP3    H163545   4.490   1.172   4.550 -1.2923 -0.7020  0.0600
14018TIP3    H263546   4.461   1.298   4.628  1.6425  0.4096 -0.5382
14019TIP3   OH263547   5.065   6.600   3.097 -0.3654 -0.2868  0.2983
14019TIP3    H163548   5.112   6.564   3.173  0.8656  0.1740 -0.2213
14019TIP3    H263549   5.045   6.690   3.122  2.3942  0.7457 -0.8666
14020TIP3   OH263550   5.856   2.386  11.458 -0.2158  0.2600  0.1156
14020TIP3    H163551   5.901   2.468  11.438 -1.7532  1.3751  0.9958
14020TIP3    H263552   5.843   2.388  11.553 -2.3370  0.1503 -0.1269
14021TIP3   OH263553   2.484   0.958   5.260 -0.6703 -0.4663  0.6149
14021TIP3    H163554   2.489   1.045   5.299  1.6012 -0.2518 -0.0248
14021TIP3    H263555   2.410   0.963   5.199 -0.0096  1.3196 -0.0986
14022TIP3   OH263556   6.710   1.261   0.405 -1.2212  0.9072 -0.5711
14022TIP3    H163557   6.708   1.167   0.388 -1.1454  0.8054 -0.0314
14022TIP3    H263558   6.795   1.289   0.374 -1.2518  0.8005 -0.7514
14023TIP3   OH263559   2.441   4.822  11.820  0.1127  0.6258 -0.2330
14023TIP3    H163560   2.498   4.833  11.744 -1.3084  1.3106 -1.2434
14023TIP3    H263561   2.356   4.797  11.783 -0.9223  2.1006  1.0326
14024TIP3   OH263562   0.420   0.904   1.087 -0.1419 -0.3502  0.3749
14024TIP3    H163563   0.397   0.975   1.146  0.5531 -1.0248  1.4858
14024TIP3    H263564   0.413   0.825   1.140 -0.6397 -1.1036 -0.7632
14025TIP3   OH263565   5.639   2.836  16.310 -0.4722 -0.3568 -0.4613
14025TIP3    H163566   5.724   2.846  16.267  0.3191 -0.8531  0.9159
14025TIP3    H263567   5.660   2.829  16.404 -1.9735 -1.1364 -0.1471
14026TIP3   OH263568   1.699   0.935   2.715  0.1256  0.2354  0.2522
14026TIP3    H163569   1.725   0.948   2.806 -0.0575  0.8132  0.2283
14026TIP3    H263570   1.769   0.975   2.664  0.0881  0.1642  0.1439
14027TIP3   OH263571   0.743   5.187  15.390  0.8351 -0.0988  0.6097
14027TIP3    H163572   0.783   5.226  15.312 -0.7122  1.3210  0.4810
14027TIP3    H263573   0.747   5.092  15.373  0.7227  0.1670 -1.1048
14028TIP3   OH263574   4.101   1.874   0.913  0.7497 -0.0836  0.6749
14028TIP3    H163575   4.087   1.960   0.874  1.9415 -0.1708  0.0161
14028TIP3    H263576   4.089   1.888   1.007  1.1153  0.8475  0.5934
14029TIP3   OH263577   6.790   4.897  15.057  0.9867  0.2463  0.2169
14029TIP3    H163578   6.805   4.858  15.143  0.1751 -1.3033 -0.3110
14029TIP3    H263579   6.696   4.915  15.055  0.7646 -0.8793 -0.7773
14030TIP3   OH263580   3.122   4.788  14.602 -0.3510  0.0105  0.0342
14030TIP3    H163581   3.056   4.849  14.569 -1.3474 -0.9613  0.1384
14030TIP3    H263582   3.189   4.786  14.533  0.4851  2.3106  0.6890
14031TIP3   OH263583   0.138   6.091   4.952  0.2596  0.0142 -0.4002
14031TIP3    H163584   0.218   6.041   4.939 -0.0067 -0.4133 -0.4037
14031TIP3    H263585   0.168   6.181   4.967  0.7041 -0.0047 -1.1267
14032TIP3   OH263586   5.149   4.130  15.624 -0.2785  0.1515 -0.2212
14032TIP3    H163587   5.177   4.079  15.548 -1.9588 -0.6773 -0.3194
14032TIP3    H263588   5.068   4.172  15.597  0.0875  1.3721  0.5047
14033TIP3   OH263589   4.286   2.154   5.905 -0.5140  0.5751  0.0518
14033TIP3    H163590   4.233   2.101   5.965 -0.9344 -0.7102 -1.3751
14033TIP3    H263591   4.278   2.243   5.938  1.0044 -0.2723  3.1651
14034TIP3   OH263592   3.507   0.442  12.067 -0.2927 -0.2143  0.6517
14034TIP3    H163593   3.440   0.507  12.047  2.2461  1.9417 -1.5771
14034TIP3    H263594   3.514   0.390  11.987  1.6951  0.6036  0.2565
14035TIP3   OH263595   3.001   6.138   2.741 -0.3949 -0.0534  0.2208
14035TIP3    H163596   2.956   6.139   2.825  1.2146  1.2688  1.1019
14035TIP3    H263597   2.968   6.216   2.695 -0.9598 -0.5493 -0.2537
14036TIP3   OH263598   1.306   0.966  15.270  0.1618  0.1012  0.1909
14036TIP3    H163599   1.342   1.013  15.345 -0.7930 -0.2752  0.9085
14036TIP3    H263600   1.337   0.876  15.282 -0.3346 -0.0488  0.3728
14037TIP3   OH263601   3.370   2.493  16.294 -0.3597  0.4125 -0.3332
14037TIP3    H163602   3.389   2.586  16.281  0.8795  0.4346  1.2333
14037TIP3    H263603   3.451   2.458  16.331 -0.8019 -1.3077 -0.9340
14038TIP3   OH263604   1.993   3.072  11.829  0.0808 -0.1592  0.8752
14038TIP3    H163605   1.994   3.000  11.765 -0.5193 -0.5095  1.2547
14038TIP3    H263606   1.972   3.030  11.912  0.7490  0.3131  1.2936
14039TIP3   OH263607   6.779   4.146  15.020 -0.3246  0.3842 -0.5616
14039TIP3    H163608   6.731   4.147  15.102 -0.5291 -2.0165 -0.6012
14039TIP3    H263609   6.715   4.120  14.954  0.2162  0.6461 -1.2041
14040TIP3   OH263610   3.759   4.996   5.265  0.6102 -0.5581 -0.3887
14040TIP3    H163611   3.829   4.997   5.330  0.5463 -0.1866 -0.3241
14040TIP3    H263612   3.802   5.019   5.183  0.6583 -0.8507 -0.4465
14041TIP3   OH263613   5.632   4.218   3.022  0.2075 -0.4453 -0.1940
14041TIP3    H163614   5.694   4.179   2.960  1.0333  1.5058 -0.6528
14041TIP3    H263615   5.602   4.144   3.074  0.6460 -1.9170 -1.9086
14042TIP3   OH263616   0.569   1.640   0.740 -0.1033 -0.2419  0.0791
14042TIP3    H163617   0.519   1.589   0.677  0.4838  0.0545 -0.6549
14042TIP3    H263618   0.512   1.713   0.763 -0.2543 -0.2521 -0.2605
14043TIP3   OH263619   0.339   1.949  17.204 -0.2761 -0.8444 -0.3928
14043TIP3    H163620   0.404   2.016  17.226 -2.0961  0.0880  2.9316
14043TIP3    H263621   0.273   1.995  17.152 -1.0101 -0.2261  1.0245
14044TIP3   OH263622   2.035   1.530   5.337  0.0614  0.1728 -0.0208
14044TIP3    H163623   2.116   1.578   5.324  0.1729  0.3987  1.4116
14044TIP3    H263624   1.980   1.589   5.388 -0.9973  0.0017 -0.9262
14045TIP3   OH263625   0.028   4.569  13.575  0.2969 -0.2177 -0.4111
14045TIP3    H163626  -0.025   4.531  13.504  0.0067  0.9793 -0.8749
14045TIP3    H263627  -0.036   4.591  13.643  0.4700 -0.6444 -0.1118
14046TIP3   OH263628   6.490   3.418   5.127  0.0177 -0.1196 -0.2498
14046TIP3    H163629   6.458   3.415   5.217 -0.7266  1.0682 -0.4464
14046TIP3    H263630   6.585   3.422   5.134 -0.0919  1.7185  0.5625
14047TIP3   OH263631   3.736   2.245   2.600 -0.0505  0.3894 -0.0802
14047TIP3    H163632   3.810   2.253   2.540 -0.9111 -3.3927 -1.9352
14047TIP3    H263633   3.659   2.267   2.548 -0.6255 -0.8170  0.2167
14048TIP3   OH263634   6.553   3.975   0.157  0.0718  0.2898  0.5903
14048TIP3    H163635   6.549   3.916   0.082 -0.5934 -0.7995  1.4466
14048TIP3    H263636   6.641   3.961   0.193 -0.1576 -0.3546  0.9158
14049TIP3   OH263637   0.076   2.143  13.662  0.7072  0.2195  0.1637
14049TIP3    H163638   0.057   2.235  13.645  0.8592  0.1617 -0.3345
14049TIP3    H263639   0.081   2.137  13.757  1.2135  0.8385  0.1868
14050TIP3   OH263640   5.043   2.425   3.804 -0.0336  0.0134  0.1864
14050TIP3    H163641   4.981   2.352   3.808  0.1296 -0.2664 -1.5481
14050TIP3    H263642   5.129   2.384   3.815 -0.0411  0.2157  1.1191
14051TIP3   OH263643   4.167   4.266   3.249  0.6455 -0.6897 -0.3224
14051TIP3    H163644   4.128   4.178   3.243  1.4511 -1.0040 -1.0496
14051TIP3    H263645   4.205   4.281   3.163  0.6913  0.3015 -0.1342
14052TIP3   OH263646   5.433   2.229  10.780  0.0288  0.2083  0.1269
14052TIP3    H163647   5.410   2.260  10.693 -0.5790  1.7864  0.8177
14052TIP3    H263648   5.479   2.146  10.764  0.1534  0.5771 -1.6903
14053TIP3   OH263649   6.545   3.576  17.130  0.3423 -0.4698  0.5415
14053TIP3    H163650   6.522   3.659  17.088  0.9246 -0.5290  0.0913
14053TIP3    H263651   6.492   3.511  17.083  0.8678 -0.5144 -0.0003
14054TIP3   OH263652   2.967   0.247  12.908  0.5083  0.1654  0.1999
14054TIP3    H163653   3.057   0.236  12.878 -0.1905  1.6900 -2.8944
14054TIP3    H263654   2.932   0.318  12.854 -2.3211  0.1898  1.8515
14055TIP3   OH263655   6.102   5.810  17.103 -0.1166  0.5784 -0.7384
14055TIP3    H163656   6.192   5.784  17.084  0.1228  1.5311 -0.9844
14055TIP3    H263657   6.080   5.873  17.034 -1.0129  0.2769 -0.7416
14056TIP3   OH263658   3.113   6.360  16.035 -0.2019  0.1453 -0.4205
14056TIP3    H163659   3.087   6.452  16.032 -1.3078 -0.1786 -1.5498
14056TIP3    H263660   3.105   6.336  16.128 -0.8386  0.9383 -0.2598
14057TIP3   OH263661   5.539   2.611  13.684 -0.0042 -0.1385  0.2428
14057TIP3    H163662   5.542   2.697  13.727 -2.0005 -0.6381  1.4776
14057TIP3    H263663   5.502   2.630  13.598  1.5100  0.4870 -0.3145
14058TIP3   OH263664   0.564   5.203  13.969  0.5295 -0.2355  0.9446
14058TIP3    H163665   0.485   5.226  14.018 -2.0081 -0.9763 -2.4519
14058TIP3    H263666   0.550   5.113  13.939  1.9042  0.1311 -1.0584
14059TIP3   OH263667   1.175   2.371  15.875 -0.0029 -0.0361 -0.0066
14059TIP3    H163668   1.271   2.365  15.872 -0.0405 -0.3741 -1.8152
14059TIP3    H263669   1.151   2.405  15.789 -1.5218 -0.1290  0.3629
14060TIP3   OH263670   3.968   3.779   2.652 -0.2520  0.3321  0.1188
14060TIP3    H163671   4.042   3.832   2.681 -0.6833 -0.0709  2.0547
14060TIP3    H263672   3.897   3.841   2.637  0.5955  0.8171 -2.4748
14061TIP3   OH263673   2.002   6.371  16.002  0.9305  0.1245 -0.0951
14061TIP3    H163674   1.939   6.304  16.028  1.3081 -0.6882 -1.2220
14061TIP3    H263675   1.947   6.445  15.974  0.5133  0.2506  1.0029
14062TIP3   OH263676   5.437   3.218   2.623 -0.0296  0.6515  0.0874
14062TIP3    H163677   5.361   3.276   2.634  0.0000  0.8010 -0.4627
14062TIP3    H263678   5.408   3.154   2.558 -0.4419 -0.6167  1.4867
14063TIP3   OH263679   1.999   4.339   3.416 -0.1733  0.3927  0.3890
14063TIP3    H163680   2.030   4.389   3.491  1.1419 -1.0269  0.8478
14063TIP3    H263681   1.908   4.366   3.405  0.0366  1.6978  1.5711
14064TIP3   OH263682   6.185   3.905  17.146  0.2024  0.3353  0.1931
14064TIP3    H163683   6.174   3.993  17.111 -0.6875  0.3880  0.5900
14064TIP3    H263684   6.275   3.881  17.122  0.3160  1.1862 -0.2683
14065TIP3   OH263685   5.594   3.804   3.045  0.4980  0.3835 -0.3218
14065TIP3    H163686   5.519   3.858   3.070  0.5485  0.4808 -0.3818
14065TIP3    H263687   5.647   3.860   2.989  0.4640  0.2162 -0.5247
14066TIP3   OH263688   2.142   5.894   4.192  0.1078 -0.1163  0.2912
14066TIP3    H163689   2.207   5.947   4.145  0.4221 -0.4877  0.2970
14066TIP3    H263690   2.064   5.898   4.137  0.8505 -1.5995 -0.9656
14067TIP3   OH263691   1.891   3.640   2.285  0.0479 -0.1864  0.2662
14067TIP3    H163692   1.893   3.572   2.218  0.9111  1.9276 -2.0262
14067TIP3    H263693   1.830   3.705   2.251 -0.2536  0.5133  2.0513
14068TIP3   OH263694   4.257   6.233  12.634 -0.0658 -0.8714  0.4564
14068TIP3    H163695   4.276   6.326  12.635 -1.1677 -0.6386  0.3574
14068TIP3    H263696   4.343   6.191  12.620  0.1792  0.1964 -1.7740
14069TIP3   OH263697   2.540   6.336  14.881 -0.0512 -0.2852 -0.4868
14069TIP3    H163698   2.543   6.408  14.817 -0.0725 -2.2825 -2.9230
14069TIP3    H263699   2.462   6.354  14.933 -0.2729  1.2399 -1.2762
14070TIP3   OH263700   3.302   0.358  15.851  0.1388  0.5840 -0.3131
14070TIP3    H163701   3.255   0.413  15.789  1.3783  0.0950 -1.7561
14070TIP3    H263702   3.391   0.354  15.817  0.5050 -0.9195  0.6932
14071TIP3   OH263703   0.424   2.928   2.586  0.7157 -0.1499  0.0834
14071TIP3    H163704   0.402   3.004   2.640  0.0799  0.1949 -0.6429
14071TIP3    H263705   0.356   2.864   2.606  0.7773 -0.2166  0.0782
14072TIP3   OH263706   5.042   0.508  12.744  0.1823 -0.4171 -0.4528
14072TIP3    H163707   5.053   0.511  12.839  0.0797 -0.7830 -0.4263
14072TIP3    H263708   4.948   0.514  12.730 -0.1339 -3.5299 -0.3535
14073TIP3   OH263709   4.726   1.608  15.544 -0.3533 -0.2334  0.7667
14073TIP3    H163710   4.744   1.620  15.637  1.3143  1.0782  0.3276
14073TIP3    H263711   4.763   1.685  15.502 -0.8788 -0.8965 -1.0144
14074TIP3   OH263712   2.817   4.566  14.066  0.2757  0.1332  0.7583
14074TIP3    H163713   2.724   4.543  14.064 -0.0186  1.2210  1.3013
14074TIP3    H263714   2.856   4.504  14.128 -0.2930  0.3515  1.3446
14075TIP3   OH263715   2.549   0.065   3.284 -0.6204  0.2077  0.5308
14075TIP3    H163716   2.531   0.151   3.245 -0.2496  0.8098  1.6353
14075TIP3    H263717   2.587   0.085   3.370 -1.6266 -1.0666  1.3083
14076TIP3   OH263718   5.488   5.286  13.849  0.0431  0.2429 -0.2907
14076TIP3    H163719   5.474   5.198  13.884 -0.8086  0.6800  0.5067
14076TIP3    H263720   5.426   5.293  13.777  1.0689 -0.2810 -1.2632
14077TIP3   OH263721   0.855   0.151   3.098 -0.3891  0.2949 -0.1360
14077TIP3    H163722   0.882   0.242   3.104 -1.6928  0.7080 -0.3247
14077TIP3    H263723   0.849   0.122   3.189 -0.3834  0.5277 -0.0613
14078TIP3   OH263724   3.530   1.821  13.991 -0.1558  0.1955 -0.2015
14078TIP3    H163725   3.552   1.909  13.962 -0.1278  0.9882  2.0153
14078TIP3    H263726   3.600   1.797  14.051 -0.8254 -0.8244  0.2060
14079TIP3   OH263727   6.222   5.329   2.259  0.5350  0.5018 -0.5200
14079TIP3    H163728   6.227   5.247   2.309 -0.0787  0.5131 -0.4359
14079TIP3    H263729   6.311   5.342   2.227  1.6430  1.8220  2.7147
14080TIP3   OH263730   0.530   6.478  13.034 -0.1407 -0.4885 -0.0842
14080TIP3    H163731   0.552   6.551  13.091 -0.4605 -0.0320 -0.5385
14080TIP3    H263732   0.545   6.510  12.945 -1.1750 -0.6480 -0.3331
14081TIP3   OH263733   5.508   4.959  15.704 -0.5394 -0.2812  0.6689
14081TIP3    H163734   5.548   4.923  15.784 -0.8471  0.6927  1.2720
14081TIP3    H263735   5.453   4.888  15.671  1.2033 -1.4423  0.1433
14082TIP3   OH263736   4.872   6.037  16.344  0.2757  0.1407 -0.3287
14082TIP3    H163737   4.816   6.103  16.385 -1.3809 -0.3434 -1.6703
14082TIP3    H263738   4.891   6.072  16.257  2.0033  0.2201  0.0409
14083TIP3   OH263739   3.309   6.812  13.686  0.2414  0.7117 -0.3086
14083TIP3    H163740   3.265   6.802  13.601  1.1400 -0.8670 -0.6448
14083TIP3    H263741   3.402   6.821  13.663  0.4344  0.7560  0.4878
14084TIP3   OH263742   6.467   3.262   6.017  0.2648 -0.2426  0.0071
14084TIP3    H163743   6.470   3.175   5.979 -0.1979 -0.4413  0.4125
14084TIP3    H263744   6.494   3.250   6.108  0.4565  0.0787 -0.0036
14085TIP3   OH263745   6.724   3.948  14.012 -0.4195  0.0351  0.2597
14085TIP3    H163746   6.724   3.855  13.988 -0.9746  0.0196  0.3117
14085TIP3    H263747   6.641   3.961  14.057  0.1763  0.2903  1.3139
14086TIP3   OH263748   6.028   1.347   4.385  0.2865  0.2417 -0.3635
14086TIP3    H163749   6.086   1.381   4.453  0.4214  1.0773 -0.8801
14086TIP3    H263750   6.079   1.276   4.344  1.2286  1.3566 -1.2140
14087TIP3   OH263751   1.434   0.247   0.029  0.1287 -0.1521 -0.0567
14087TIP3    H163752   1.408   0.198  -0.048  1.3306 -0.1759 -0.4658
14087TIP3    H263753   1.493   0.188   0.077  0.3961  0.3281  0.2223
14088TIP3   OH263754   0.412   4.461  15.178 -0.5322 -0.1216 -0.0961
14088TIP3    H163755   0.505   4.442  15.188 -0.1574  0.5072 -1.9474
14088TIP3    H263756   0.383   4.403  15.108 -1.3549  0.1800 -0.0121
14089TIP3   OH263757   3.227   5.270   2.480 -0.1958  0.0176  0.7272
14089TIP3    H163758   3.201   5.359   2.457 -2.3610 -1.1500 -1.8361
14089TIP3    H263759   3.145   5.225   2.499  0.7649 -1.7008  1.0754
14090TIP3   OH263760   1.134   5.937   3.610  0.3618  0.1007 -0.3941
14090TIP3    H163761   1.066   5.964   3.672  0.0210  1.0522 -1.1557
14090TIP3    H263762   1.121   5.842   3.600  0.4517 -0.0789  0.9992
14091TIP3   OH263763   1.229   0.784  15.557  0.3540 -0.3243 -0.3644
14091TIP3    H163764   1.284   0.783  15.635 -2.4651 -1.2767  1.8031
14091TIP3    H263765   1.198   0.875  15.551  0.0897 -0.3830  0.0437
14092TIP3   OH263766   4.454   4.832   2.968  0.3502 -0.0610 -0.2967
14092TIP3    H163767   4.384   4.868   3.023  0.9522 -0.0431  0.4789
14092TIP3    H263768   4.422   4.747   2.939 -0.9688  0.9163 -1.8897
14093TIP3   OH263769   3.272   0.623  15.183  0.0887  0.4737 -0.7555
14093TIP3    H163770   3.198   0.684  15.179  0.4345  0.8579 -1.3612
14093TIP3    H263771   3.315   0.643  15.266 -0.4217  0.3228 -0.4509
14094TIP3   OH263772   1.371   2.177   0.303  0.2880  0.5785  0.1001
14094TIP3    H163773   1.284   2.215   0.319 -0.5003 -1.4279  0.9002
14094TIP3    H263774   1.374   2.162   0.209 -0.3069  0.5207  0.0871
14095TIP3   OH263775   0.558   3.914   1.923 -0.4825  0.0135 -0.8310
14095TIP3    H163776   0.593   3.893   1.837  0.2642  0.3683 -0.6149
14095TIP3    H263777   0.585   3.840   1.978 -1.5551 -0.5616 -1.0448
14096TIP3   OH263778   3.985   1.399   5.644 -0.8661  0.0873 -0.0512
14096TIP3    H163779   4.041   1.380   5.568 -0.2377  1.0141  0.1575
14096TIP3    H263780   3.994   1.321   5.699  2.1066  1.0760  1.0703
14097TIP3   OH263781   2.911   6.375  11.908 -0.0690  0.2930  0.4854
14097TIP3    H163782   2.986   6.365  11.850 -0.8654  1.0594 -0.7187
14097TIP3    H263783   2.876   6.462  11.888 -1.5660 -0.2345  0.6505
14098TIP3   OH263784   3.662   2.830   0.459 -0.2207 -0.2956 -0.8096
14098TIP3    H163785   3.579   2.872   0.484 -0.2141  0.3066 -1.7264
14098TIP3    H263786   3.691   2.785   0.538 -0.5232  0.9751  0.0673
14099TIP3   OH263787   4.747   3.658  13.224  0.6897 -0.3804  0.3067
14099TIP3    H163788   4.656   3.681  13.243 -0.0528  0.0560 -3.1486
14099TIP3    H263789   4.797   3.736  13.248 -0.0553 -0.0226  0.7203
14100TIP3   OH263790   1.082   5.305  10.436 -0.1317  0.7576 -0.4631
14100TIP3    H163791   1.111   5.282  10.524  0.4244 -1.2084 -1.1182
14100TIP3    H263792   1.006   5.248  10.421 -0.9161  1.8747 -0.8684
14101TIP3   OH263793   2.567   4.460   3.625  0.6007 -0.1570  0.3374
14101TIP3    H163794   2.497   4.479   3.563  0.0716  0.0799  0.9955
14101TIP3    H263795   2.629   4.531   3.614  0.8164 -0.4388 -0.3464
14102TIP3   OH263796   5.713   4.084  10.561  0.3559  0.3297  0.5044
14102TIP3    H163797   5.669   4.000  10.567  1.3262 -0.2519 -0.2961
14102TIP3    H263798   5.642   4.147  10.548 -0.2154 -0.7912 -2.7564
14103TIP3   OH263799   5.945   2.234   2.698  0.2020 -0.1600  0.6166
14103TIP3    H163800   5.939   2.324   2.730 -0.6563  0.2186 -0.5485
14103TIP3    H263801   5.928   2.180   2.775 -1.2163  0.7137  0.9506
14104TIP3   OH263802   2.098   3.945  14.461 -0.2393  0.3305 -0.4566
14104TIP3    H163803   2.161   3.914  14.397 -0.2970  0.8579 -0.7719
14104TIP3    H263804   2.150   3.969  14.537 -0.2141 -0.7627 -0.1112
14105TIP3   OH263805   6.706   5.531  17.159 -0.4155  0.0490 -0.3074
14105TIP3    H163806   6.700   5.442  17.126  0.1929 -0.1038 -0.0320
14105TIP3    H263807   6.789   5.564  17.125 -0.4256  0.3542 -0.0454
14106TIP3   OH263808   1.258   5.203   4.465 -0.0656 -0.6209 -0.3002
14106TIP3    H163809   1.302   5.269   4.410 -0.5240  0.5115  0.6569
14106TIP3    H263810   1.165   5.225   4.460 -0.1732 -0.9006  0.4324
14107TIP3   OH263811   0.797   1.971  13.827 -0.1039 -0.4179  0.4441
14107TIP3    H163812   0.732   1.930  13.769 -0.6535 -0.4459  1.0629
14107TIP3    H263813   0.756   1.970  13.914  1.0785 -1.2161  1.0168
14108TIP3   OH263814   0.214   4.907  15.671 -0.0658 -0.3657  0.1714
14108TIP3    H163815   0.270   4.952  15.608 -1.5912 -0.4836 -1.3266
14108TIP3    H263816   0.272   4.887  15.745  1.1771  2.0051 -0.0886
14109TIP3   OH263817   6.196   3.152  14.952 -0.1869 -0.0810 -0.0770
14109TIP3    H163818   6.139   3.159  15.028 -0.7955 -2.0751 -0.2991
14109TIP3    H263819   6.284   3.165  14.987 -0.5543  0.2268  0.7579
14110TIP3   OH263820   4.478   1.422   0.857 -0.2638 -0.3391  0.4533
14110TIP3    H163821   4.539   1.379   0.796  0.6481  0.8489  0.4855
14110TIP3    H263822   4.532   1.443   0.933 -0.2168  2.3761 -0.2514
14111TIP3   OH263823   5.063   2.963  15.877  0.4687 -0.0486  0.0234
14111TIP3    H163824   5.027   3.041  15.921 -0.7128 -0.0118 -0.9650
14111TIP3    H263825   5.155   2.985  15.862  0.4869  0.6089  0.9494
14112TIP3   OH263826   0.664   3.856   0.426 -0.0604 -0.1091 -0.8430
14112TIP3    H163827   0.676   3.790   0.358  0.7115 -0.5512 -0.2964
14112TIP3    H263828   0.587   3.826   0.476  0.2791 -0.5965 -0.6054
14113TIP3   OH263829   3.601   3.199   2.844 -0.2665 -0.2944  0.0759
14113TIP3    H163830   3.619   3.127   2.783 -2.1901  0.0762 -1.0014
14113TIP3    H263831   3.557   3.157   2.917 -0.7960 -0.3122 -0.2497
14114TIP3   OH263832   0.951   3.973  12.514 -0.4429 -0.4191  0.3200
14114TIP3    H163833   1.009   4.038  12.475 -0.0573 -1.6562 -1.2751
14114TIP3    H263834   0.868   3.982  12.468 -0.3110 -1.2041 -0.0833
14115TIP3   OH263835   5.766   3.825   6.541 -0.2262 -0.4505 -0.5533
14115TIP3    H163836   5.764   3.920   6.537  0.1402 -0.4551 -3.9753
14115TIP3    H263837   5.858   3.803   6.553  0.0789 -0.3030 -2.3242
14116TIP3   OH263838   1.573   3.096  16.975 -0.2172  0.0527 -0.3143
14116TIP3    H163839   1.577   3.035  17.049 -0.7073  1.6008  1.0588
14116TIP3    H263840   1.651   3.076  16.923  1.6484  0.5920  2.0519
14117TIP3   OH263841   6.114   1.841   2.385 -0.2980 -0.2202 -0.4692
14117TIP3    H163842   6.112   1.896   2.463  0.2184 -0.2589 -0.4223
14117TIP3    H263843   6.197   1.794   2.391 -0.1177 -0.0063 -1.1963
14118TIP3   OH263844   6.669   1.178   4.644 -0.2989 -0.2442  0.8397
14118TIP3    H163845   6.608   1.206   4.711 -0.9579 -0.2301  0.2489
14118TIP3    H263846   6.677   1.253   4.585 -0.5755 -0.6195  0.3110
14119TIP3   OH263847   1.745   2.843  12.441  0.7924  0.4276  0.1077
14119TIP3    H163848   1.777   2.853  12.531  1.0423 -1.3722  0.2645
14119TIP3    H263849   1.821   2.811  12.392  0.7287  1.6364 -0.8146
14120TIP3   OH263850   2.921   5.616   1.661 -0.0305 -0.5315  0.4333
14120TIP3    H163851   2.931   5.605   1.756  1.7351 -1.1585  0.2117
14120TIP3    H263852   3.000   5.664   1.634 -1.2534  1.0601 -0.5353
14121TIP3   OH263853   3.860   0.302   5.033  0.1608  0.6277 -0.0706
14121TIP3    H163854   3.876   0.210   5.054  2.8515  1.3505  1.5343
14121TIP3    H263855   3.804   0.334   5.104 -0.7512  0.2805 -0.6142
14122TIP3   OH263856   4.707   0.692   5.091  0.2253 -0.0441  0.1813
14122TIP3    H163857   4.728   0.765   5.150 -2.0171 -0.8358  2.1156
14122TIP3    H263858   4.618   0.711   5.062  0.3998 -0.9714 -0.9953
14123TIP3   OH263859   5.711   1.562   0.988  0.2278 -0.1882  0.1396
14123TIP3    H163860   5.697   1.481   1.038 -0.0402  1.0082  2.0871
14123TIP3    H263861   5.799   1.591   1.013 -1.1777  2.2525  2.7864
14124TIP3   OH263862   1.197   0.472   1.850  0.2198  0.2684  0.4423
14124TIP3    H163863   1.134   0.480   1.922 -1.3825 -1.2694 -0.6722
14124TIP3    H263864   1.219   0.562   1.827  2.7082  0.8743  4.3129
14125TIP3   OH263865   5.137   0.142   1.752 -0.4691 -0.6915  0.4420
14125TIP3    H163866   5.113   0.145   1.660 -1.7042 -0.9328  0.7334
14125TIP3    H263867   5.167   0.231   1.772 -2.7554  0.1506  0.4387
14126TIP3   OH263868   1.462   1.503   2.993 -0.1358  0.7564  0.1109
14126TIP3    H163869   1.500   1.549   3.068 -0.7079  2.3938 -0.5597
14126TIP3    H263870   1.536   1.458   2.953  0.7417  2.2251  0.0060
14127TIP3   OH263871   4.369   1.539  16.313 -0.5492 -0.8363  0.2094
14127TIP3    H163872   4.456   1.578  16.298 -0.9787 -0.2839 -1.0468
14127TIP3    H263873   4.341   1.575  16.397  0.1663 -0.5088  0.3208
14128TIP3   OH263874   2.002   1.456   0.946  0.3485  0.0548 -0.1487
14128TIP3    H163875   2.043   1.382   0.901 -0.6026  0.3284 -1.5156
14128TIP3    H263876   1.941   1.415   1.008  0.6246 -0.3149 -0.1160
14129TIP3   OH263877   5.048   3.221   2.411 -0.3218 -0.1907 -0.5272
14129TIP3    H163878   5.104   3.280   2.461 -1.2118  1.0920 -0.9937
14129TIP3    H263879   5.051   3.138   2.459  1.1620  0.1488 -0.0001
14130TIP3   OH263880   6.162   4.988   1.291  0.3835  0.4412 -0.2352
14130TIP3    H163881   6.241   5.041   1.285  0.6077 -0.0071 -1.5716
14130TIP3    H263882   6.125   4.989   1.202  0.1544 -1.2502 -0.2005
14131TIP3   OH263883   0.572   6.274   3.026 -0.1880 -0.1784 -0.0705
14131TIP3    H163884   0.584   6.188   2.986 -0.4240 -0.0210 -0.4912
14131TIP3    H263885   0.633   6.331   2.979  0.2845 -0.1986  0.5002
14132TIP3   OH263886   0.880   0.699   3.111  0.1385 -0.4183  0.0019
14132TIP3    H163887   0.919   0.743   3.035 -0.3146 -0.4530 -0.2534
14132TIP3    H263888   0.787   0.722   3.106 -0.0567 -1.2016  0.0109
14133TIP3   OH263889   6.237   0.047  11.071  0.3647 -0.0755 -0.2786
14133TIP3    H163890   6.155   0.003  11.049  2.0316 -3.0439 -1.1239
14133TIP3    H263891   6.253   0.024  11.163  1.1726 -1.1719 -0.6797
14134TIP3   OH263892   2.729   2.572  16.014 -0.0863  0.4472 -0.4865
14134TIP3    H163893   2.694   2.654  15.981 -2.0043 -0.2825 -0.4312
14134TIP3    H263894   2.682   2.557  16.096  0.6299 -0.4335 -0.2142
14135TIP3   OH263895   1.997   4.549  10.840  0.0153 -0.1081 -0.5925
14135TIP3    H163896   2.020   4.456  10.848 -0.7409 -0.3462 -1.0699
14135TIP3    H263897   1.907   4.555  10.871 -0.0007  0.4368 -0.7230
14136TIP3   OH263898   5.710   2.157  13.484 -0.1072 -1.0468 -0.5483
14136TIP3    H163899   5.673   2.070  13.497 -1.7624 -0.2293  0.6400
14136TIP3    H263900   5.800   2.141  13.458  0.0999 -3.1117  1.1513
14137TIP3   OH263901   6.549   4.986   5.668  0.1555  0.1763  0.1685
14137TIP3    H163902   6.633   4.999   5.711  0.3643 -0.3128 -0.0878
14137TIP3    H263903   6.523   4.898   5.692 -0.4824  0.4691  0.5775
14138TIP3   OH263904   5.089   6.778   1.475  0.3171 -0.3634 -0.3210
14138TIP3    H163905   5.184   6.770   1.482  0.5951  0.4749 -2.3849
14138TIP3    H263906   5.075   6.863   1.432 -1.3587 -0.4420 -0.0053
14139TIP3   OH263907   3.639   1.966  15.179  0.2185 -0.9559  0.1578
14139TIP3    H163908   3.621   1.885  15.131  0.7599  0.4441 -2.6575
14139TIP3    H263909   3.735   1.974  15.178  0.1381  0.5688 -1.3425
14140TIP3   OH263910   0.387   4.246  12.766 -0.2718  0.5523 -0.1759
14140TIP3    H163911   0.353   4.157  12.773  0.1224  0.3212 -1.0184
14140TIP3    H263912   0.310   4.302  12.768 -0.4525  0.2970  1.6684
14141TIP3   OH263913   4.560   4.865  16.625 -0.4184 -0.3793  0.1917
14141TIP3    H163914   4.634   4.891  16.681 -1.3490  0.4290  1.1108
14141TIP3    H263915   4.512   4.801  16.678 -1.4020  0.5162  0.4306
14142TIP3   OH263916   6.436   1.633  12.238 -0.1956 -0.4087  0.4030
14142TIP3    H163917   6.351   1.590  12.240 -0.3315 -0.1280  1.9317
14142TIP3    H263918   6.422   1.712  12.186 -0.4945 -1.0490 -0.5331
14143TIP3   OH263919   4.691   0.391   1.669 -0.1415 -0.2990 -0.2572
14143TIP3    H163920   4.634   0.468   1.665 -0.2306 -0.4083 -1.1828
14143TIP3    H263921   4.780   0.426   1.664 -0.1901 -0.2709 -1.0160
14144TIP3   OH263922   6.103   4.481  15.879  0.0132 -0.1376 -0.3945
14144TIP3    H163923   6.142   4.547  15.822  0.9709 -0.1784  0.2049
14144TIP3    H263924   6.028   4.525  15.919  0.3248  0.4236 -0.4170
14145TIP3   OH263925   5.906   0.419  11.708  0.6060 -0.9884  0.0728
14145TIP3    H163926   5.997   0.428  11.678  0.6160 -0.6399  0.2055
14145TIP3    H263927   5.858   0.391  11.630  0.5988  0.0923 -0.3220
14146TIP3   OH263928   4.338   0.890  10.825 -0.2496 -0.4187 -0.2929
14146TIP3    H163929   4.243   0.884  10.812 -0.1892 -0.2604 -0.8327
14146TIP3    H263930   4.350   0.962  10.887 -0.4152  0.3792 -1.1714
14147TIP3   OH263931   0.130   1.472  16.381  0.0214 -0.2857 -0.0522
14147TIP3    H163932   0.176   1.475  16.298  1.4944 -0.3522  0.7415
14147TIP3    H263933   0.126   1.563  16.410 -2.3158  0.0371 -1.1107
14148TIP3   OH263934   6.136   6.063   0.230 -0.8876 -0.0624  0.4352
14148TIP3    H163935   6.072   5.994   0.245  0.1578 -1.2046 -0.2133
14148TIP3    H263936   6.221   6.020   0.237 -0.2095  1.0223 -0.5663
14149TIP3   OH263937   0.531   0.056   0.190  0.1263 -0.0544 -0.7156
14149TIP3    H163938   0.491   0.110   0.258  0.1568 -0.0382 -0.7100
14149TIP3    H263939   0.611   0.103   0.167 -0.4229  0.4972 -1.5340
14150TIP3   OH263940   0.834   0.771  10.623 -0.8168  0.5957 -0.8102
14150TIP3    H163941   0.788   0.818  10.554  1.3890  0.4978 -2.4555
14150TIP3    H263942   0.872   0.695  10.579  0.3750  0.3364  0.5841
14151TIP3   OH263943   5.459   1.957   3.746 -0.2129 -0.6174  0.0232
14151TIP3    H163944   5.479   1.925   3.658 -1.4710  1.9667 -1.3143
14151TIP3    H263945   5.392   1.896   3.779 -0.9866 -0.6620 -1.5256
14152TIP3   OH263946   2.260   5.657   4.139  0.0486  0.0029  0.2232
14152TIP3    H163947   2.327   5.655   4.070 -0.2787 -0.0131 -0.0951
14152TIP3    H263948   2.251   5.750   4.161 -2.1497  0.4332 -2.0358
14153TIP3   OH263949   5.826   5.487  13.271  0.1740 -0.1057  0.0056
14153TIP3    H163950   5.824   5.537  13.190  3.4405 -1.8866 -1.3869
14153TIP3    H263951   5.851   5.551  13.338  2.0661  0.6145 -1.3065
14154TIP3   OH263952   5.012   6.627  14.832  0.1454  0.1834 -0.3408
14154TIP3    H163953   5.056   6.668  14.757 -0.1762 -1.2316 -1.3420
14154TIP3    H263954   4.923   6.610  14.801  0.0873 -0.6569  0.2702
14155TIP3   OH263955   5.780   1.992  16.771 -0.5444  0.0734  0.5294
14155TIP3    H163956   5.825   2.074  16.751 -1.3608  0.7137  1.2603
14155TIP3    H263957   5.736   1.968  16.690  1.1954 -0.6529 -0.2541
14156TIP3   OH263958   1.555   3.439  16.340 -0.0882  0.0371  0.6523
14156TIP3    H163959   1.622   3.506  16.357 -0.0126  0.0242  0.4101
14156TIP3    H263960   1.473   3.479  16.369 -0.1274  0.4577 -0.0079
14157TIP3   OH263961   2.048   0.147  13.099  0.2087  0.1346  0.2447
14157TIP3    H163962   2.075   0.086  13.030 -0.4536  1.2171 -1.0198
14157TIP3    H263963   2.071   0.234  13.065 -1.2777  0.7880  0.8057
14158TIP3   OH263964   0.986   6.556  15.780 -0.2027  0.1760 -0.3839
14158TIP3    H163965   1.065   6.504  15.794 -0.6668 -1.2322 -2.5004
14158TIP3    H263966   1.018   6.644  15.761  0.6523  0.4558  1.9621
14159TIP3   OH263967   5.710   3.136  16.835  0.1083  0.0642 -0.0162
14159TIP3    H163968   5.746   3.073  16.773 -0.6876 -0.0975 -0.3308
14159TIP3    H263969   5.755   3.218  16.815  0.1263 -0.0759 -0.5654
14160TIP3   OH263970   6.769   6.420  13.005 -0.6651 -0.0979 -0.2239
14160TIP3    H163971   6.677   6.430  13.029 -0.2306  2.0135  0.8593
14160TIP3    H263972   6.772   6.445  12.912 -1.0499  0.8294  0.0024
14161TIP3   OH263973   5.295   1.066   1.673  0.0458 -0.5129  0.5409
14161TIP3    H163974   5.275   1.136   1.611  1.2033  1.0241  1.8229
14161TIP3    H263975   5.389   1.076   1.691  0.4025 -2.7996  0.3200
14162TIP3   OH263976   1.977   6.188  11.530  0.0524  0.0675 -0.6818
14162TIP3    H163977   1.974   6.099  11.566  0.6195 -0.3822 -1.7153
14162TIP3    H263978   1.975   6.176  11.435  1.2857  1.0990 -0.8658
14163TIP3   OH263979   1.253   2.529   0.058 -0.2813 -0.5100 -0.3664
14163TIP3    H163980   1.166   2.568   0.050 -0.2683 -0.5398 -0.6639
14163TIP3    H263981   1.239   2.437   0.035  0.4526  0.1589 -4.0984
14164TIP3   OH263982   1.848   5.259  17.079 -0.3431  0.5328 -0.1021
14164TIP3    H163983   1.800   5.190  17.125  1.1097  1.3595  2.8950
14164TIP3    H263984   1.868   5.222  16.993 -0.5634 -2.3371  0.9921
14165TIP3   OH263985   2.296   3.112   2.681 -0.1697  0.9171  0.7300
14165TIP3    H163986   2.213   3.076   2.712 -0.3043  0.4650 -0.1162
14165TIP3    H263987   2.362   3.053   2.716 -0.3046  0.5368  0.3593
14166TIP3   OH263988   1.340   2.301   1.697 -0.2512 -0.0391  0.2917
14166TIP3    H163989   1.344   2.344   1.611 -2.0861  0.8321  0.6096
14166TIP3    H263990   1.334   2.208   1.676  1.0368  0.0053 -0.4556
14167TIP3   OH263991   3.888   3.848  17.015  0.3266  0.1253 -0.2757
14167TIP3    H163992   3.867   3.816  17.103  2.3881 -0.4306  0.0629
14167TIP3    H263993   3.830   3.799  16.957 -1.0399  0.4756  0.7429
14168TIP3   OH263994   0.133   6.244  11.939  0.1494  0.1726 -0.2014
14168TIP3    H163995   0.126   6.261  12.033 -0.7548  2.5660 -0.6149
14168TIP3    H263996   0.085   6.162  11.926 -1.0080  0.5635  1.2556
14169TIP3   OH263997   2.939   3.101  11.454  0.1012 -0.3600  0.5309
14169TIP3    H163998   2.946   3.076  11.362  0.1857 -0.4321  0.5574
14169TIP3    H263999   2.977   3.189  11.457  0.2917 -0.4416  0.5344
14170TIP3   OH264000   3.045   6.198  14.854 -0.0225 -0.3325  0.3818
14170TIP3    H164001   2.977   6.176  14.917 -0.8603 -0.6443 -0.6035
14170TIP3    H264002   3.011   6.166  14.770  1.4973 -0.8125 -0.0775
14171TIP3   OH264003   4.365   2.401  15.475 -0.3699 -0.4780 -0.0277
14171TIP3    H164004   4.332   2.360  15.395  0.7856 -1.5246  0.0020
14171TIP3    H264005   4.315   2.482  15.483 -0.9583 -0.6729 -1.4554
14172TIP3   OH264006   3.483   2.858  16.592  0.0825  0.3745 -0.1870
14172TIP3    H164007   3.526   2.785  16.636  0.3263  1.1213  0.8370
14172TIP3    H264008   3.538   2.875  16.516  1.3175  0.9553  0.8052
14173TIP3   OH264009   6.104   3.550   0.742 -0.3717  0.5536 -0.1036
14173TIP3    H164010   6.135   3.555   0.832 -1.5201 -0.0102  0.3530
14173TIP3    H264011   6.027   3.493   0.747  0.1913 -0.4208 -1.6188
14174TIP3   OH264012   1.477   6.605  10.585 -0.0386 -0.0372  0.3236
14174TIP3    H164013   1.559   6.624  10.629  1.4204 -0.7585 -1.8758
14174TIP3    H264014   1.409   6.623  10.650  1.7648  1.7964  1.8210
14175TIP3   OH264015   5.434   4.584  16.842 -0.2543  0.6416  0.1632
14175TIP3    H164016   5.381   4.524  16.896  1.7930 -0.2945  1.2389
14175TIP3    H264017   5.397   4.576  16.754 -1.7499 -0.1156  0.8087
14176TIP3   OH264018   5.950   3.533   4.266 -0.5638 -0.0961  0.2526
14176TIP3    H164019   6.018   3.571   4.321  1.1742 -1.4804 -0.8290
14176TIP3    H264020   5.945   3.441   4.294 -1.6406 -0.1441 -0.0424
14177TIP3   OH264021   3.268   4.619  11.052  0.5993  0.0784 -0.5226
14177TIP3    H164022   3.337   4.649  10.994 -0.4361  1.5266 -1.0685
14177TIP3    H264023   3.233   4.698  11.093 -0.4860 -0.6390  0.0285
14178TIP3   OH264024   2.650   3.943   2.416  0.3846 -0.1434 -0.5119
14178TIP3    H164025   2.577   3.980   2.467  0.0470 -0.0130 -1.0779
14178TIP3    H264026   2.647   3.849   2.434  1.3915  0.0977  1.1228
14179TIP3   OH264027   4.881   4.792  15.508 -0.3330  0.6852  1.0065
14179TIP3    H164028   4.920   4.829  15.429 -0.7514 -0.7009  0.1225
14179TIP3    H264029   4.812   4.854  15.533 -0.9674  0.5648 -0.3862
14180TIP3   OH264030   0.495   5.438   0.023  0.0908  0.0484  0.1730
14180TIP3    H164031   0.413   5.473   0.058  1.2425  2.0870  0.9956
14180TIP3    H264032   0.486   5.343   0.032 -1.3877  0.3103  2.0557
14181TIP3   OH264033   1.852   6.191  16.651 -0.1366 -0.0517  0.2238
14181TIP3    H164034   1.922   6.244  16.613 -0.0616  0.1434  0.6297
14181TIP3    H264035   1.882   6.100  16.639  0.1005  0.0246  0.2264
14182TIP3   OH264036   0.143   5.829   1.485 -0.1628 -0.5467  0.2724
14182TIP3    H164037   0.197   5.868   1.554  0.3546  0.4153 -0.6435
14182TIP3    H264038   0.144   5.894   1.415 -1.4608 -1.0943 -0.2708
14183TIP3   OH264039   4.746   0.774  15.138  0.4292 -0.8414 -0.7344
14183TIP3    H164040   4.659   0.755  15.101 -0.9626  2.2806  0.5673
14183TIP3    H264041   4.771   0.694  15.184 -1.7618 -1.8309 -1.1521
14184TIP3   OH264042   3.377   1.161  11.251 -0.6100 -0.1750  0.2015
14184TIP3    H164043   3.337   1.245  11.227 -1.9163 -0.9495 -0.4120
14184TIP3    H264044   3.450   1.186  11.308 -0.6162  1.4108 -0.4179
14185TIP3   OH264045   2.352   1.333   5.036  0.7506  0.2255 -0.2490
14185TIP3    H164046   2.428   1.306   4.984 -0.5447 -1.3454 -1.4397
14185TIP3    H264047   2.280   1.279   5.003 -1.2297  2.6261 -0.1296
14186TIP3   OH264048   4.588   2.622  15.928  0.3660  0.4317 -0.2252
14186TIP3    H164049   4.505   2.605  15.972 -0.7806  0.4675 -2.2495
14186TIP3    H264050   4.577   2.708  15.888  0.9135 -0.0559 -1.4740
14187TIP3   OH264051   5.777   0.505   4.417 -0.6062  0.1221  0.2351
14187TIP3    H164052   5.785   0.516   4.512  0.7851  1.3051  0.0317
14187TIP3    H264053   5.807   0.416   4.400 -0.7871 -0.0688  0.9039
14188TIP3   OH264054   0.517   3.821  13.530 -0.3560  0.3342  0.0468
14188TIP3    H164055   0.472   3.865  13.602  0.0577 -0.8676  1.0749
14188TIP3    H264056   0.500   3.728  13.544  0.6268  0.0101 -0.7886
14189TIP3   OH264057   0.261   0.790  11.388 -0.4802 -0.2958  0.1370
14189TIP3    H164058   0.313   0.865  11.357 -0.2396  0.0021  1.2260
14189TIP3    H264059   0.320   0.715  11.380 -0.5882 -0.3130 -0.5824
14190TIP3   OH264060   2.341   5.024   1.417  0.3483  0.1176 -0.1952
14190TIP3    H164061   2.329   4.929   1.409 -2.6190  0.3454  0.3116
14190TIP3    H264062   2.391   5.035   1.498 -0.8551 -1.0015  0.7455
14191TIP3   OH264063   1.342   4.748  10.696  0.3126  0.4363  0.0806
14191TIP3    H164064   1.308   4.793  10.774  1.9133 -1.1967  1.8259
14191TIP3    H264065   1.429   4.785  10.684  1.3297 -1.5088  1.0592
14192TIP3   OH264066   6.225   1.997  10.539  0.1887  0.5604 -0.1564
14192TIP3    H164067   6.236   2.071  10.599 -3.2376 -0.1333  1.5708
14192TIP3    H264068   6.270   1.924  10.582  1.0959  0.9337 -0.4420
14193TIP3   OH264069   0.363   1.729   1.206  0.6606 -0.5534  0.1103
14193TIP3    H164070   0.371   1.702   1.298  1.2095 -3.2342 -0.6355
14193TIP3    H264071   0.283   1.781   1.203  0.2233 -1.0408  1.9859
14194TIP3   OH264072   3.692   4.913  13.549  0.2788  0.0628 -0.6419
14194TIP3    H164073   3.681   4.975  13.477 -2.2410 -0.3316 -0.7007
14194TIP3    H264074   3.703   4.967  13.627  0.5208  0.5332 -1.0006
14195TIP3   OH264075   4.255   1.960   5.700  0.5049  0.3531  0.0401
14195TIP3    H164076   4.208   2.017   5.640 -0.6290 -1.2399 -0.6692
14195TIP3    H264077   4.273   2.015   5.776 -0.4480  1.6736 -0.6416
14196TIP3   OH264078   3.565   6.352  14.615 -0.6044 -0.4844  0.0456
14196TIP3    H164079   3.513   6.396  14.683  0.3666  1.2368 -0.2655
14196TIP3    H264080   3.503   6.337  14.544 -0.5739  2.4891 -0.7436
14197TIP3   OH264081   5.425   3.444  14.184  0.1395 -0.3576  0.7964
14197TIP3    H164082   5.335   3.460  14.214  0.0239 -0.5283  0.5395
14197TIP3    H264083   5.476   3.436  14.265 -0.1893 -0.9139  0.9517
14198TIP3   OH264084   6.550   0.624   4.471  0.4108 -0.0949 -0.5363
14198TIP3    H164085   6.616   0.643   4.538  0.1540 -0.2659 -0.2308
14198TIP3    H264086   6.519   0.536   4.492 -1.2066  0.6575  0.4175
14199TIP3   OH264087   5.355   2.300   6.626  0.1462 -0.1386  0.6816
14199TIP3    H164088   5.336   2.361   6.697  0.5302 -0.1675  0.8153
14199TIP3    H264089   5.423   2.242   6.662  0.2023 -0.2752  0.3603
14200TIP3   OH264090   0.354   0.790   2.861  0.2985  1.2264  0.1254
14200TIP3    H164091   0.379   0.862   2.802 -1.6509  0.7322 -1.3983
14200TIP3    H264092   0.268   0.814   2.894  0.7437  0.7875  1.6568
14201TIP3   OH264093   2.865   5.997   5.334  0.2051 -0.5151 -1.1551
14201TIP3    H164094   2.866   5.929   5.402  0.4653 -0.6688 -1.3117
14201TIP3    H264095   2.870   5.949   5.252 -0.6851 -0.3572 -1.3118
14202TIP3   OH264096   3.630   4.763  11.714 -0.6165 -0.0397  0.1589
14202TIP3    H164097   3.568   4.734  11.647 -0.4606 -1.1437  0.4743
14202TIP3    H264098   3.715   4.762  11.669 -0.5573 -0.4520  0.2825
14203TIP3   OH264099   3.948   5.848  15.801 -0.0377  0.1180  0.3211
14203TIP3    H164100   4.013   5.792  15.843  0.8914 -1.3864 -2.8145
14203TIP3    H264101   3.997   5.927  15.775 -0.9569  1.7778  3.1885
14204TIP3   OH264102   4.975   1.072   0.913  0.1967 -0.0858  0.1046
14204TIP3    H164103   4.988   1.094   0.820  0.2447  0.4040  0.2262
14204TIP3    H264104   4.880   1.077   0.925  0.2642  0.7977  0.3115
14205TIP3   OH264105   0.947   4.667  15.067 -0.0258  0.1837  0.2948
14205TIP3    H164106   0.875   4.631  15.118  0.2946  1.7582  1.9785
14205TIP3    H264107   0.943   4.761  15.084  0.9008  0.6106 -1.6109
14206TIP3   OH264108   4.660   3.043  15.539  0.0220  0.4421  0.3138
14206TIP3    H164109   4.718   3.076  15.608 -0.5423  1.2291  0.4365
14206TIP3    H264110   4.635   3.122  15.491  0.0859 -0.0550 -0.5450
14207TIP3   OH264111   2.820   2.334  11.785 -0.1920 -0.6572 -0.1444
14207TIP3    H164112   2.880   2.390  11.735  0.9715 -1.2025  0.6111
14207TIP3    H264113   2.840   2.354  11.876 -2.0852  0.0989  0.1423
14208TIP3   OH264114   5.217   4.868   6.062  0.4751  0.1940 -0.5046
14208TIP3    H164115   5.131   4.908   6.063  0.5828  0.4446  0.6681
14208TIP3    H264116   5.242   4.865   5.970  0.6156  3.1486 -0.6335
14209TIP3   OH264117   4.877   1.451   1.179 -0.1900 -0.3512 -0.1366
14209TIP3    H164118   4.952   1.465   1.236 -0.7728  0.6911  0.4147
14209TIP3    H264119   4.904   1.382   1.119  0.5949 -1.1785  1.1359
14210TIP3   OH264120   6.030   5.778   3.493 -0.4238  0.6331 -0.0897
14210TIP3    H164121   6.087   5.736   3.557 -2.0325 -1.8532 -0.1601
14210TIP3    H264122   5.971   5.832   3.544  0.4171  1.2909  0.1982
14211TIP3   OH264123   4.284   4.572   6.118  0.5006  0.0790  0.1659
14211TIP3    H164124   4.311   4.527   6.198 -1.2472  0.8961  1.2835
14211TIP3    H264125   4.341   4.649   6.113 -0.5577  1.0178  1.6923
14212TIP3   OH264126   1.877   1.939  10.838 -0.6233 -0.3256 -0.3472
14212TIP3    H164127   1.911   1.873  10.777  0.2497 -0.0959 -0.1170
14212TIP3    H264128   1.833   2.003  10.782 -0.4985 -0.5181 -0.6698
14213TIP3   OH264129   2.870   3.005  11.696 -0.4903 -0.1798 -0.2210
14213TIP3    H164130   2.925   2.927  11.705  1.7476  1.3284  0.1097
14213TIP3    H264131   2.886   3.036  11.607 -0.6014  0.4332 -0.0315
14214TIP3   OH264132   5.513   1.692  16.546 -0.0732  0.0084  0.1347
14214TIP3    H164133   5.514   1.787  16.552  1.7535  0.2070 -1.9981
14214TIP3    H264134   5.474   1.673  16.461 -0.2468 -1.1609  0.4512
14215TIP3   OH264135   4.094   6.142  11.426 -0.0187  0.6513 -0.1640
14215TIP3    H164136   4.053   6.195  11.495 -1.6207  1.0227 -1.3464
14215TIP3    H264137   4.073   6.052  11.448 -0.6979  0.7840 -0.2585
14216TIP3   OH264138   4.199   3.478   4.761  0.1637 -0.2429 -0.3885
14216TIP3    H164139   4.144   3.408   4.795  1.3618 -0.4222  1.2582
14216TIP3    H264140   4.207   3.459   4.667  1.7857 -3.2826  0.2497
14217TIP3   OH264141   4.328   6.104   1.218  0.1697  0.1097 -0.3989
14217TIP3    H164142   4.396   6.142   1.163  0.9387  0.9718  1.0824
14217TIP3    H264143   4.343   6.009   1.214 -0.1877  0.0967 -2.1268
14218TIP3   OH264144   1.292   4.441   4.215  0.1554 -0.4197 -0.1864
14218TIP3    H164145   1.287   4.447   4.120 -1.6935  0.9498 -0.0613
14218TIP3    H264146   1.267   4.528   4.247  0.8023 -0.8241  1.5584
14219TIP3   OH264147   4.171   4.007   5.262  0.0478  0.4396  0.1504
14219TIP3    H164148   4.264   3.999   5.243 -0.2890 -1.6621 -0.8081
14219TIP3    H264149   4.141   3.918   5.277 -1.7677  1.0981  0.7371
14220TIP3   OH264150   6.149   4.518   3.943 -0.0753 -0.8695  0.1527
14220TIP3    H164151   6.188   4.453   4.002  1.6833 -2.6312 -2.7131
14220TIP3    H264152   6.111   4.467   3.872  2.5464  1.0638 -2.9452
14221TIP3   OH264153   6.216   5.379  16.366 -0.0853 -0.2827  0.5400
14221TIP3    H164154   6.269   5.444  16.320 -0.0768 -0.8045 -0.2049
14221TIP3    H264155   6.128   5.417  16.367 -0.0356 -0.1601  0.3065
14222TIP3   OH264156   3.604   2.804  13.303 -0.4259 -0.0241  0.2196
14222TIP3    H164157   3.578   2.735  13.241  1.2409 -0.3394 -0.1666
14222TIP3    H264158   3.657   2.864  13.252  0.3007  0.1487  1.1463
14223TIP3   OH264159   0.489   6.645  12.187  0.3400 -0.5709 -0.2977
14223TIP3    H164160   0.575   6.605  12.172  0.6304  0.4404 -1.5031
14223TIP3    H264161   0.508   6.736  12.208 -0.4642  0.0400 -2.0186
14224TIP3   OH264162   4.248   4.702  13.677 -0.3881 -0.0086  0.0115
14224TIP3    H164163   4.210   4.698  13.589 -1.3576  2.0924  0.2532
14224TIP3    H264164   4.341   4.683  13.665 -0.5519  0.0208 -1.4294
14225TIP3   OH264165   5.194   2.044  12.309  0.1364 -0.6291  0.2991
14225TIP3    H164166   5.099   2.027  12.311  0.0802 -0.4929 -0.8313
14225TIP3    H264167   5.203   2.131  12.346 -0.2225 -0.4769  0.0333
14226TIP3   OH264168   4.944   2.886  14.565 -0.2629 -0.1471 -0.0628
14226TIP3    H164169   4.930   2.866  14.658 -0.1858 -1.8435 -0.3847
14226TIP3    H264170   4.859   2.912  14.533 -0.1097  1.3601  0.6714
14227TIP3   OH264171   3.610   6.092  15.475  0.6178  0.0229  0.0259
14227TIP3    H164172   3.635   6.110  15.385 -1.2427 -0.0047 -0.5364
14227TIP3    H264173   3.663   6.016  15.500  0.1677 -0.8487 -1.5258
14228TIP3   OH264174   2.483   6.523   2.092 -0.2412 -0.0820  0.0675
14228TIP3    H164175   2.554   6.566   2.140 -2.0741  0.4238  2.4914
14228TIP3    H264176   2.477   6.435   2.129 -1.5035  0.2186  0.6466
14229TIP3   OH264177   1.740   6.573   3.809  0.1224 -0.1676 -0.0338
14229TIP3    H164178   1.678   6.622   3.755  1.7103  0.8121 -1.0407
14229TIP3    H264179   1.769   6.635   3.875 -0.2226 -0.7397  0.6793
14230TIP3   OH264180   5.951   1.546  11.684 -0.1438 -0.0436  0.1144
14230TIP3    H164181   6.008   1.622  11.691 -0.3269  0.0813  0.2501
14230TIP3    H264182   5.920   1.549  11.593 -0.3308  0.1746  0.1836
14231TIP3   OH264183   1.722   1.918  12.622 -0.4122  0.2846 -0.6973
14231TIP3    H164184   1.706   1.875  12.706 -0.3662  0.0962 -0.7850
14231TIP3    H264185   1.662   1.994  12.623 -3.1194 -1.6590 -1.9678
14232TIP3   OH264186   0.478   6.400   5.766 -0.3221  0.1328 -0.5163
14232TIP3    H164187   0.397   6.358   5.795  1.2399 -3.2003 -0.5583
14232TIP3    H264188   0.547   6.341   5.795  2.1110  2.5788 -0.9666
14233TIP3   OH264189   0.493   5.229   2.180 -0.2303  0.0766  0.1246
14233TIP3    H164190   0.477   5.233   2.274 -1.2593  0.0523 -0.0414
14233TIP3    H264191   0.477   5.137   2.157  0.2906  0.0219 -0.0290
14234TIP3   OH264192   0.225   4.321   4.239  0.0629 -0.9223 -1.0336
14234TIP3    H164193   0.131   4.312   4.257 -0.1707 -0.8138 -2.1616
14234TIP3    H264194   0.242   4.415   4.247 -0.0723 -0.8548 -1.5207
14235TIP3   OH264195   0.331   5.429   3.200  0.2863  0.1506  0.1475
14235TIP3    H164196   0.370   5.363   3.256 -1.4797  0.2296  1.5460
14235TIP3    H264197   0.261   5.383   3.153  2.2704 -0.1516 -2.8089
14236TIP3   OH264198   2.057   2.743   2.002  0.3449  0.3767  0.5648
14236TIP3    H164199   2.041   2.758   2.095 -1.5973 -2.1450  0.7368
14236TIP3    H264200   2.001   2.669   1.980  1.8554 -0.0415 -2.2905
14237TIP3   OH264201   0.204   3.005   5.926  0.0940  0.2379 -1.0519
14237TIP3    H164202   0.162   2.983   5.843 -0.9717 -1.5657 -0.0986
14237TIP3    H264203   0.203   2.923   5.976 -3.3652  2.1261  2.4902
14238TIP3   OH264204   2.256   4.698  14.132  0.1449  0.2623 -0.0916
14238TIP3    H164205   2.347   4.724  14.120 -0.0015  0.5271 -0.7006
14238TIP3    H264206   2.233   4.656  14.049  0.1604 -1.1672  0.6087
14239TIP3   OH264207   0.706   4.663   2.052 -0.5979 -0.2690  0.2925
14239TIP3    H164208   0.611   4.672   2.051 -0.5189  0.9307  1.0220
14239TIP3    H264209   0.734   4.691   1.964 -0.8150  1.1050  0.6344
14240TIP3   OH264210   3.359   1.827  15.060 -0.0724  0.0141 -0.0668
14240TIP3    H164211   3.346   1.898  15.122  1.4080  0.2720 -0.0143
14240TIP3    H264212   3.387   1.870  14.979 -0.9021 -0.3985 -0.5909
14241TIP3   OH264213   3.526   1.803   0.423  0.5504 -0.2386  0.0236
14241TIP3    H164214   3.453   1.742   0.413  0.5660 -0.2544  0.0069
14241TIP3    H264215   3.514   1.866   0.352  1.5044 -1.1982 -1.0195
14242TIP3   OH264216   0.060   3.812   5.681 -0.2744  0.6283  0.6975
14242TIP3    H164217   0.061   3.809   5.777  0.1507  0.3938  0.6883
14242TIP3    H264218   0.153   3.818   5.657 -0.2594 -0.9633  0.2556
14243TIP3   OH264219   2.499   0.882  14.553  0.1308 -0.3732 -0.3156
14243TIP3    H164220   2.416   0.844  14.526 -0.5675  0.0088  1.1532
14243TIP3    H264221   2.508   0.962  14.501  0.7384 -1.5760 -2.1338
14244TIP3   OH264222   0.801   5.558   3.608 -0.5293  0.2542  0.0568
14244TIP3    H164223   0.818   5.557   3.514  0.6984  1.1169  0.2401
14244TIP3    H264224   0.760   5.474   3.626 -0.4915 -0.0513 -1.1941
14245TIP3   OH264225   0.571   1.447  14.748 -0.5540  0.6536  0.0258
14245TIP3    H164226   0.485   1.460  14.707 -0.7672  0.3402  0.3597
14245TIP3    H264227   0.613   1.533  14.745 -0.2178  0.4576 -1.5989
14246TIP3   OH264228   4.119   2.561  10.973 -0.6002 -0.1671 -0.2487
14246TIP3    H164229   4.209   2.537  10.949  0.3983  0.9269  2.0869
14246TIP3    H264230   4.093   2.623  10.906  0.4889 -0.3116 -0.8338
14247TIP3   OH264231   3.381   3.252   1.817 -0.4575  0.5504  0.8232
14247TIP3    H164232   3.341   3.331   1.781  0.2476  0.4572 -0.2260
14247TIP3    H264233   3.358   3.253   1.910 -3.3916  0.2135  0.2065
14248TIP3   OH264234   3.978   6.664  11.021 -0.9094 -0.0952  0.0201
14248TIP3    H164235   3.941   6.577  11.005 -1.6040  0.2976 -0.5936
14248TIP3    H264236   4.065   6.661  10.982 -1.7416  0.1452 -1.9836
14249TIP3   OH264237   1.776   5.693   3.888  0.7857 -0.0805 -0.2268
14249TIP3    H164238   1.859   5.663   3.926  0.8846  0.5783  0.0890
14249TIP3    H264239   1.713   5.688   3.960  0.0179 -2.5259 -0.9361
14250TIP3   OH264240   4.022   4.236  11.754  0.2948  0.1323  0.0866
14250TIP3    H164241   4.101   4.282  11.725  1.2341 -1.9640 -0.8579
14250TIP3    H264242   3.969   4.227  11.675  0.5031 -1.0999  0.0770
14251TIP3   OH264243   5.877   1.299   2.328  0.2797  0.2340  0.4118
14251TIP3    H164244   5.931   1.221   2.338  0.3991  0.3513  0.6930
14251TIP3    H264245   5.807   1.289   2.393 -0.2167 -0.0641 -0.1587
14252TIP3   OH264246   1.253   6.056  12.877  0.3410 -0.0054 -0.0889
14252TIP3    H164247   1.242   6.057  12.782 -1.5559  1.7804  0.0753
14252TIP3    H264248   1.286   6.143  12.899  0.6993 -0.3798  0.9098
14253TIP3   OH264249   4.057   6.175  14.979 -0.0234 -0.1292  0.3350
14253TIP3    H164250   3.976   6.226  14.985  0.9956  1.8281 -1.1866
14253TIP3    H264251   4.125   6.234  15.013  1.0511 -0.8592 -0.4574
14254TIP3   OH264252   3.098   4.287  16.961 -0.1219  0.1331 -0.2255
14254TIP3    H164253   3.176   4.308  17.014 -0.2142  0.5153 -0.2359
14254TIP3    H264254   3.110   4.338  16.881 -1.3007  1.7112  0.5507
14255TIP3   OH264255   2.784   0.822  14.370  0.0508 -0.8095 -0.1308
14255TIP3    H164256   2.707   0.790  14.324 -0.0850  0.7005 -1.0368
14255TIP3    H264257   2.765   0.808  14.463 -0.1527 -2.8756 -0.4401
14256TIP3   OH264258   6.014   3.174   1.022 -0.5249 -0.2481  0.0377
14256TIP3    H164259   5.965   3.137   1.095 -0.1352 -0.5995  0.1206
14256TIP3    H264260   5.948   3.223   0.971 -1.2113 -1.7204 -0.5335
14257TIP3   OH264261   0.400   0.491  16.422 -0.0246 -0.1798  0.1268
14257TIP3    H164262   0.312   0.494  16.461 -0.8199  3.9337 -1.4690
14257TIP3    H264263   0.387   0.449  16.337  0.5398 -3.4456  1.4948
14258TIP3   OH264264   4.914   4.798  11.629  0.1183 -0.0027 -0.1010
14258TIP3    H164265   4.948   4.844  11.552 -1.2380  0.4769 -0.4309
14258TIP3    H264266   4.906   4.865  11.696 -1.8309  0.2777 -0.5737
14259TIP3   OH264267   5.250   0.215  16.004 -0.1614 -0.0429 -0.4873
14259TIP3    H164268   5.241   0.295  15.953 -1.6468 -0.1237 -0.3973
14259TIP3    H264269   5.199   0.150  15.956  0.7326 -0.8674 -0.3712
14260TIP3   OH264270   2.622   3.923  11.244 -0.5183 -0.1954  0.6583
14260TIP3    H164271   2.700   3.922  11.189 -0.1126 -1.1777  1.2312
14260TIP3    H264272   2.553   3.959  11.187 -0.2428 -1.6561 -0.6749
14261TIP3   OH264273   1.151   1.878   1.857 -0.5630  0.3066 -0.4078
14261TIP3    H164274   1.213   1.827   1.909 -1.3701 -1.5407 -1.1899
14261TIP3    H264275   1.205   1.946   1.817  0.3087  0.9882  1.7278
14262TIP3   OH264276   5.250   1.775   3.783 -0.2095  0.2838  0.1002
14262TIP3    H164277   5.183   1.804   3.845  0.4367  3.0648 -0.3447
14262TIP3    H264278   5.206   1.771   3.699 -0.4017 -0.4445  0.2378
14263TIP3   OH264279   0.280   5.837  15.369  0.2772 -0.1674  0.6750
14263TIP3    H164280   0.282   5.820  15.463 -1.5168 -0.3974  0.7115
14263TIP3    H264281   0.220   5.771  15.335  0.0635  0.5999 -0.4741
14264TIP3   OH264282   3.101   3.316   2.869  1.0788 -0.3459  0.1495
14264TIP3    H164283   3.134   3.365   2.794 -0.4026  0.7368  0.1532
14264TIP3    H264284   3.016   3.356   2.888  1.1174 -1.0311  1.9868
14265TIP3   OH264285   3.900   4.983  12.855 -0.2581  0.4901  0.5241
14265TIP3    H164286   3.855   4.932  12.788  1.3927  0.6900 -0.7818
14265TIP3    H264287   3.868   5.073  12.842 -0.0804  0.4964  0.1369
14266TIP3   OH264288   1.934   2.214   3.462  0.5019 -0.1017  0.1088
14266TIP3    H164289   2.023   2.214   3.499  0.6345  0.1730 -0.2019
14266TIP3    H264290   1.917   2.306   3.442  0.1738 -0.1646  0.1038
14267TIP3   OH264291   0.386   2.300  14.681 -0.1517 -0.3751  0.3694
14267TIP3    H164292   0.320   2.367  14.694  0.6948  0.7605 -0.9879
14267TIP3    H264293   0.387   2.284  14.587 -0.2941 -2.2781  0.6476
14268TIP3   OH264294   1.825   0.418   0.883 -0.7219  0.4244 -0.3954
14268TIP3    H164295   1.794   0.442   0.970  1.6298 -1.0109  0.9677
14268TIP3    H264296   1.771   0.344   0.858  1.3676 -2.1297  1.9790
14269TIP3   OH264297   6.060   1.653   5.438  0.2074 -0.0339 -0.6394
14269TIP3    H164298   6.122   1.698   5.495  0.1095  0.0271 -0.5817
14269TIP3    H264299   6.114   1.593   5.386  0.2825 -0.1751 -0.4010
14270TIP3   OH264300   0.119   3.007   1.494 -0.3448  0.4423 -0.3881
14270TIP3    H164301   0.107   3.000   1.589 -1.5612  0.6106 -0.5064
14270TIP3    H264302   0.034   3.036   1.462  0.4709  1.8432 -1.3880
14271TIP3   OH264303   4.448   1.152  12.920  0.0812  0.0282 -0.1505
14271TIP3    H164304   4.466   1.218  12.853 -0.1875  1.2357  0.9354
14271TIP3    H264305   4.535   1.123  12.948  0.2011 -0.0578 -0.5905
14272TIP3   OH264306   1.747   0.757   1.230 -0.2347  0.2909 -0.4120
14272TIP3    H164307   1.653   0.766   1.247 -0.0898 -0.4561  1.0126
14272TIP3    H264308   1.786   0.833   1.272 -0.2309  0.8591 -1.4287
14273TIP3   OH264309   1.960   0.632  11.517 -1.1977  0.1315 -0.0222
14273TIP3    H164310   2.041   0.601  11.476 -0.8781  0.1455  0.5828
14273TIP3    H264311   1.920   0.553  11.553 -0.0378  0.4293  2.1290
14274TIP3   OH264312   6.558   3.873  14.461  0.2131 -1.0121  0.7364
14274TIP3    H164313   6.652   3.886  14.452  0.1725 -0.3138  1.2536
14274TIP3    H264314   6.536   3.912  14.545 -0.9871  1.4650 -0.5952
14275TIP3   OH264315   4.227   2.626  15.039 -0.1719  0.6954  0.1282
14275TIP3    H164316   4.276   2.632  15.121 -1.5778  1.1201  0.9720
14275TIP3    H264317   4.294   2.634  14.971  0.6847  4.3478  1.1833
14276TIP3   OH264318   1.890   2.742  17.068 -0.5510  0.5794 -0.5195
14276TIP3    H164319   1.945   2.819  17.052 -0.3814  0.5800  0.0730
14276TIP3    H264320   1.834   2.736  16.990 -0.0597  0.8728 -0.8966
14277TIP3   OH264321   3.415   4.483   4.789  0.0984  0.1410  0.7288
14277TIP3    H164322   3.425   4.533   4.708  1.0967  1.2607  1.5058
14277TIP3    H264323   3.484   4.417   4.784  0.1013  0.1503  0.6324
14278TIP3   OH264324   0.780   4.783  10.712 -0.7181 -0.0465  0.2059
14278TIP3    H164325   0.709   4.837  10.747 -0.2608  0.7830 -0.1510
14278TIP3    H264326   0.835   4.843  10.662 -0.7842 -1.0283 -1.0841
14279TIP3   OH264327   4.617   2.513  16.594  0.3926  0.1557  0.3524
14279TIP3    H164328   4.598   2.463  16.673  0.3084  0.4128  0.4961
14279TIP3    H264329   4.657   2.450  16.534 -1.7361 -0.6257 -0.3141
14280TIP3   OH264330   6.452   0.019   1.146 -0.1520  0.0693 -0.3637
14280TIP3    H164331   6.505  -0.055   1.176 -2.0913 -1.7289 -1.1003
14280TIP3    H264332   6.394   0.039   1.220  1.3285  1.8870  0.3672
14281TIP3   OH264333   1.498   0.092  15.604  0.3010 -0.5134  0.0385
14281TIP3    H164334   1.480   0.175  15.560 -0.2476 -0.4104  0.4450
14281TIP3    H264335   1.475   0.108  15.695  1.1874 -0.8013  0.3251
14282TIP3   OH264336   0.110   0.705   1.817  0.1682  0.0955 -0.5529
14282TIP3    H164337   0.184   0.666   1.770 -0.7528 -0.5209 -1.5150
14282TIP3    H264338   0.151   0.770   1.874  1.6572 -1.4808  0.2999
14283TIP3   OH264339   1.499   5.665   1.544  0.3493  0.9583  0.2679
14283TIP3    H164340   1.448   5.736   1.583 -0.5197  0.5593 -0.1225
14283TIP3    H264341   1.491   5.593   1.606 -0.3204  0.5999 -0.2371
14284TIP3   OH264342   6.387   3.875  15.478 -0.7395  0.0215 -0.3553
14284TIP3    H164343   6.347   3.858  15.563  0.1004 -0.7525 -0.0836
14284TIP3    H264344   6.450   3.803  15.468 -2.1439 -1.0244 -2.4891
14285TIP3   OH264345   2.511   4.540  12.263 -0.1591 -0.8222  0.0439
14285TIP3    H164346   2.568   4.471  12.297 -0.9746 -2.4382 -1.7060
14285TIP3    H264347   2.526   4.539  12.169 -2.2242 -0.5038 -0.3307
14286TIP3   OH264348   0.856   6.349  11.883 -0.3515  0.1234  0.6661
14286TIP3    H164349   0.809   6.395  11.813  1.7439 -0.4170 -1.1956
14286TIP3    H264350   0.948   6.373  11.871  0.3197 -1.5476  2.0212
14287TIP3   OH264351   1.899   5.179  12.834  0.1677 -0.2513 -0.5653
14287TIP3    H164352   1.841   5.115  12.877  1.4199 -1.7639 -1.0158
14287TIP3    H264353   1.981   5.174  12.884 -0.1107  2.0314  0.2162
14288TIP3   OH264354   3.406   3.268  10.989  0.3730 -0.3186 -0.0370
14288TIP3    H164355   3.385   3.175  10.981  1.8083 -0.5206 -3.2597
14288TIP3    H264356   3.459   3.275  11.068  0.5903 -2.3272  0.0381
14289TIP3   OH264357   4.366   5.968   2.175 -0.0156  0.0271  0.0793
14289TIP3    H164358   4.393   6.044   2.122 -1.5049  1.2105  0.9495
14289TIP3    H264359   4.412   5.980   2.258 -0.1432 -0.1044  0.1675
14290TIP3   OH264360   2.916   1.527  15.919  0.3548 -0.5509  0.2331
14290TIP3    H164361   2.962   1.489  15.994  3.3852 -2.1316 -2.2012
14290TIP3    H264362   2.941   1.619  15.921 -1.3777 -0.0555  2.2883
14291TIP3   OH264363   5.360   6.021   0.763 -0.4145 -0.1517  0.2132
14291TIP3    H164364   5.298   5.954   0.794  0.4132 -0.3308  1.5608
14291TIP3    H264365   5.396   5.984   0.683  0.9736 -1.9752  1.5975
14292TIP3   OH264366   6.664   3.930  10.965  0.4418 -0.1057  0.2475
14292TIP3    H164367   6.627   3.910  10.879  1.1832  0.0317 -0.1139
14292TIP3    H264368   6.739   3.987  10.946 -0.3439  1.2815  1.0874
14293TIP3   OH264369   6.171   3.438   5.014  0.5176 -0.2131  0.0999
14293TIP3    H164370   6.183   3.395   5.099  0.2319 -0.7908 -0.1442
14293TIP3    H264371   6.152   3.529   5.036 -0.0740 -0.4643  0.6923
14294TIP3   OH264372   6.443   0.772  15.898  0.0153 -0.1713  0.8453
14294TIP3    H164373   6.373   0.831  15.870 -0.0297 -0.2795  0.7300
14294TIP3    H264374   6.427   0.759  15.992 -1.1743 -1.6003  0.4785
14295TIP3   OH264375   4.499   5.122  15.752  0.5362 -0.3529 -0.0200
14295TIP3    H164376   4.460   5.157  15.832 -0.9999  1.2688 -1.3952
14295TIP3    H264377   4.539   5.040  15.778 -1.6339 -0.8500  2.0286
14296TIP3   OH264378   2.710   4.278   6.304  0.0939  0.3484  0.2778
14296TIP3    H164379   2.716   4.300   6.397 -1.2416 -0.5148  0.5973
14296TIP3    H264380   2.791   4.229   6.286 -0.1111 -0.3917  1.2691
14297TIP3   OH264381   0.574   1.766   5.749 -0.3005 -0.0704 -0.1901
14297TIP3    H164382   0.546   1.849   5.709 -1.4378 -0.4153 -0.1666
14297TIP3    H264383   0.493   1.715   5.757  0.3738 -1.1788 -0.1800
14298TIP3   OH264384   4.408   6.533   5.802 -0.5596  0.1968 -0.0327
14298TIP3    H164385   4.388   6.445   5.834 -2.9550  0.4367 -0.6523
14298TIP3    H264386   4.484   6.560   5.853  0.5706 -2.3909 -0.1686
14299TIP3   OH264387   0.442   2.014  14.308  0.0224 -0.3114 -0.6864
14299TIP3    H164388   0.415   1.927  14.339 -0.7849  0.4580  0.8999
14299TIP3    H264389   0.538   2.012  14.313 -0.0464 -0.4842  1.2522
14300TIP3   OH264390   3.735   0.914  13.438  0.3590 -0.7924 -0.0477
14300TIP3    H164391   3.774   0.829  13.456  2.7363 -0.1071 -1.5503
14300TIP3    H264392   3.667   0.897  13.374  0.7137 -1.5768 -0.2187
14301TIP3   OH264393   3.669   0.527  13.622 -0.4631 -0.0933  0.0709
14301TIP3    H164394   3.624   0.601  13.580  1.8345  1.9174  0.9289
14301TIP3    H264395   3.598   0.474  13.659 -2.2581  0.9502 -1.6772
14302TIP3   OH264396   0.105   4.635  11.305  0.2940 -0.9018  0.2092
14302TIP3    H164397   0.157   4.586  11.241  0.5063 -2.0382  1.2218
14302TIP3    H264398   0.119   4.726  11.282 -0.0319 -1.2829 -1.6754
14303TIP3   OH264399   0.743   0.423   2.461 -0.0962 -0.0020 -0.2534
14303TIP3    H164400   0.681   0.458   2.396  0.1641 -1.8232 -1.5418
14303TIP3    H264401   0.713   0.460   2.544 -0.7396  2.0145 -1.2948
14304TIP3   OH264402   1.449   6.416  15.691 -0.0659  0.3416 -0.2644
14304TIP3    H164403   1.402   6.494  15.722 -0.4245  0.3546 -0.8415
14304TIP3    H264404   1.521   6.406  15.754 -0.7450  0.4032  0.5532
14305TIP3   OH264405   6.393   4.896   2.467 -0.1073 -0.2443  0.1778
14305TIP3    H164406   6.451   4.949   2.522 -0.2430 -1.0890  1.1862
14305TIP3    H264407   6.333   4.959   2.426  0.4066  0.4683  0.5108
14306TIP3   OH264408   2.989   4.985  10.579 -0.4575  0.2870  0.3924
14306TIP3    H164409   2.986   4.944  10.492 -0.6941 -0.0543  0.5603
14306TIP3    H264410   2.947   4.922  10.637  0.8364 -0.0625  0.9939
14307TIP3   OH264411   6.713   6.334  11.865 -0.4270 -0.5620 -0.2014
14307TIP3    H164412   6.694   6.368  11.777 -0.2000 -1.2860 -0.5366
14307TIP3    H264413   6.809   6.326  11.867 -0.5109 -1.6479 -0.3065
14308TIP3   OH264414   5.099   4.614   2.412  0.2544 -0.2667 -1.0440
14308TIP3    H164415   5.096   4.526   2.375  2.8892 -0.0221 -2.0338
14308TIP3    H264416   5.116   4.671   2.337  0.0183  0.9157 -0.2195
14309TIP3   OH264417   1.134   0.055   5.910 -0.2104 -0.4429 -0.5169
14309TIP3    H164418   1.193   0.077   5.838 -0.4902 -0.6590 -0.8201
14309TIP3    H264419   1.054   0.104   5.892  0.5426  1.4188  0.9656
14310TIP3   OH264420   3.974   1.881   4.588  0.1576 -0.0084  0.1036
14310TIP3    H164421   3.979   1.977   4.587 -1.1164  0.0679  0.2040
14310TIP3    H264422   3.977   1.858   4.681 -1.6104  0.0842  0.2208
14311TIP3   OH264423   1.983   3.570  14.547 -0.2535 -0.6931 -0.2574
14311TIP3    H164424   2.063   3.561  14.497  0.0057 -2.0936  0.3650
14311TIP3    H264425   1.995   3.512  14.622 -0.5413  1.4604  1.5562
14312TIP3   OH264426   6.321   4.055  16.620  0.0401  0.7453  0.1705
14312TIP3    H164427   6.261   4.130  16.629 -2.0205 -0.7148 -0.4745
14312TIP3    H264428   6.396   4.090  16.573 -3.1919  1.4746 -5.3473
14313TIP3   OH264429   0.772   4.295   3.550 -0.4772  0.6823 -0.1876
14313TIP3    H164430   0.747   4.213   3.594  1.5126 -0.0453 -0.2943
14313TIP3    H264431   0.799   4.353   3.620  1.9053 -0.1912 -0.2993
14314TIP3   OH264432   3.689   4.763   4.412  0.3526 -0.3015  0.1204
14314TIP3    H164433   3.604   4.721   4.416  0.2239  0.0300  1.7655
14314TIP3    H264434   3.743   4.706   4.357 -0.6565 -0.9861 -0.1735
14315TIP3   OH264435   3.543   6.006  16.854  0.1552  0.1970  0.3482
14315TIP3    H164436   3.502   6.088  16.826  2.2698  1.2453  0.1621
14315TIP3    H264437   3.477   5.938  16.834 -1.4290  1.7581  0.0285
14316TIP3   OH264438   0.110   0.446  15.156 -0.2395  0.2890 -0.1645
14316TIP3    H164439   0.125   0.411  15.243  0.1635 -1.5475 -0.9363
14316TIP3    H264440   0.197   0.448  15.116 -0.7849 -2.1817 -1.6738
14317TIP3   OH264441   3.803   5.114   0.604 -0.4509 -0.0287  0.3702
14317TIP3    H164442   3.803   5.147   0.514 -0.4067 -0.0185  0.3741
14317TIP3    H264443   3.765   5.026   0.597 -0.6365  0.0510  0.3704
14318TIP3   OH264444   4.871   6.401  11.451 -0.3529  0.1217 -0.7048
14318TIP3    H164445   4.911   6.453  11.383 -0.2563  1.8805  0.6270
14318TIP3    H264446   4.906   6.436  11.533 -0.5248 -1.8472  0.2745
14319TIP3   OH264447   0.430   3.427   0.099  0.0251  0.4134  0.4534
14319TIP3    H164448   0.435   3.503   0.156 -0.2027  2.3806 -1.9805
14319TIP3    H264449   0.347   3.436   0.053  1.3696  0.4845 -2.1595
14320TIP3   OH264450   3.856   0.027   0.392 -0.4717 -0.1387  0.2283
14320TIP3    H164451   3.837  -0.040   0.326 -1.0334 -0.7219  0.9687
14320TIP3    H264452   3.926   0.079   0.353 -1.8753  0.5391 -1.5129
14321TIP3   OH264453   2.106   0.880  16.102  0.4381  0.4857 -0.6273
14321TIP3    H164454   2.113   0.786  16.115  2.1896  0.7087  0.2838
14321TIP3    H264455   2.114   0.891  16.007 -0.5328 -0.3121 -0.8208
14322TIP3   OH264456   4.902   2.292  11.560  0.0857  0.6380 -0.2765
14322TIP3    H164457   4.979   2.276  11.505 -0.0752 -1.7016  0.0765
14322TIP3    H264458   4.931   2.356  11.625  1.6580  0.0022 -0.3243
14323TIP3   OH264459   2.112   2.174  15.177  0.0087  0.2980 -0.3937
14323TIP3    H164460   2.205   2.184  15.195  0.0414  1.5801 -1.1732
14323TIP3    H264461   2.093   2.239  15.110 -1.2718 -0.5417 -0.8966
14324TIP3   OH264462   4.079   1.058  12.916  0.1992  0.0163 -0.8472
14324TIP3    H164463   4.021   1.042  12.991 -0.7329 -0.8632 -1.7190
14324TIP3    H264464   4.029   1.117  12.860  0.0645 -0.8501 -1.6693
14325TIP3   OH264465   0.042   2.842  12.918  0.4046  0.1675  0.3858
14325TIP3    H164466   0.011   2.927  12.887  1.1934  0.1730 -0.4375
14325TIP3    H264467   0.029   2.845  13.013  0.1180  1.0836  0.3261
14326TIP3   OH264468   5.688   4.554  12.749 -0.6622  0.0088  0.2713
14326TIP3    H164469   5.675   4.603  12.667 -1.3701  1.5736  1.2722
14326TIP3    H264470   5.608   4.502  12.759  0.7030 -2.6741 -1.5663
14327TIP3   OH264471   5.839   5.752  16.381  0.1128  0.0154 -0.8015
14327TIP3    H164472   5.920   5.730  16.335  1.0939  0.8251  0.4890
14327TIP3    H264473   5.843   5.847  16.392 -0.1142 -0.1408  0.9036
14328TIP3   OH264474   6.298   4.569  13.343  0.6132 -0.4369  0.2005
14328TIP3    H164475   6.338   4.654  13.324 -1.9681  0.6801 -0.6780
14328TIP3    H264476   6.232   4.557  13.274  1.4999 -3.6464 -0.2735
14329TIP3   OH264477   1.621   3.171   2.038  0.4758  0.3077 -0.6698
14329TIP3    H164478   1.582   3.224   1.969  0.4614  0.3328 -0.6427
14329TIP3    H264479   1.552   3.111   2.066 -0.0292  1.3382  0.3987
14330TIP3   OH264480   5.466   5.488  15.893 -0.0743  0.2383 -1.0984
14330TIP3    H164481   5.556   5.456  15.893 -0.2228 -0.2469  0.6536
14330TIP3    H264482   5.424   5.439  15.822 -0.0196 -2.8425  0.8013
14331TIP3   OH264483   2.389   6.524   6.367  0.3281 -0.0706 -0.5426
14331TIP3    H164484   2.338   6.603   6.386 -0.4698 -0.5731 -0.5386
14331TIP3    H264485   2.430   6.502   6.451  0.3189  0.1766 -0.4720
14332TIP3   OH264486   4.350   4.988  12.087 -0.5994 -0.2004  0.3796
14332TIP3    H164487   4.400   4.906  12.087 -0.2939 -0.0141 -0.2300
14332TIP3    H264488   4.408   5.052  12.046 -0.9335  0.2659  0.6272
14333TIP3   OH264489   6.256   3.975   6.295  0.7702  0.4149 -0.4404
14333TIP3    H164490   6.166   4.008   6.297  0.0796 -1.4183  0.4264
14333TIP3    H264491   6.309   4.049   6.326 -0.5232  1.2370 -0.1253
14334TIP3   OH264492   3.824   6.653   2.918  0.2931 -0.0365  0.4156
14334TIP3    H164493   3.848   6.561   2.916  1.9505  0.3792 -0.6282
14334TIP3    H264494   3.800   6.670   3.009  1.5472 -1.1066  0.9725
14335TIP3   OH264495   4.426   2.152   1.864 -0.2829  0.2992  0.3620
14335TIP3    H164496   4.337   2.142   1.897  0.0077  0.9927  1.4194
14335TIP3    H264497   4.479   2.164   1.943  0.6194  0.7356 -0.2956
14336TIP3   OH264498   2.494   6.014  12.678 -0.7335 -0.2745  0.3468
14336TIP3    H164499   2.491   6.103  12.714  0.0136 -0.7413  1.6098
14336TIP3    H264500   2.408   5.976  12.700 -1.0245  0.0953 -0.1273
14337TIP3   OH264501   6.826   3.177  11.822 -0.6129 -0.1792  0.4236
14337TIP3    H164502   6.887   3.132  11.881  0.1427 -0.8701 -0.8534
14337TIP3    H264503   6.755   3.114  11.810  0.4503 -1.1110 -1.3728
14338TIP3   OH264504   1.598   3.634  11.250  0.6702  0.4046 -0.5545
14338TIP3    H164505   1.585   3.650  11.344  0.3723  0.1068 -0.5405
14338TIP3    H264506   1.534   3.566  11.229  0.8518  0.3512 -0.9388
14339TIP3   OH264507   0.294   4.000   0.292 -0.5112  0.3373  0.3380
14339TIP3    H164508   0.322   3.933   0.354  1.5069 -2.4450 -3.2326
14339TIP3    H264509   0.214   3.965   0.253 -0.2030  0.6505 -0.6047
14340TIP3   OH264510   4.209   4.266  12.206 -0.0586 -0.1932 -0.5934
14340TIP3    H164511   4.185   4.224  12.123  0.0349  0.9978 -1.2466
14340TIP3    H264512   4.205   4.360  12.187 -1.7317  0.1748  1.2078
14341TIP3   OH264513   6.825   5.931   6.548 -0.2848 -0.0352  0.0577
14341TIP3    H164514   6.868   5.859   6.594 -0.0126  0.8555  1.2687
14341TIP3    H264515   6.732   5.913   6.556 -0.1965 -0.7588 -0.5166
14342TIP3   OH264516   4.056   4.301  13.364 -0.0771  0.3239 -0.2413
14342TIP3    H164517   4.014   4.229  13.411 -0.4145  0.1456 -0.8049
14342TIP3    H264518   4.032   4.380  13.414  0.2032  0.0642  0.3128
14343TIP3   OH264519   1.896   6.560  12.840  0.7508  0.5785 -0.2318
14343TIP3    H164520   1.842   6.635  12.816  0.4659  0.2562 -0.6039
14343TIP3    H264521   1.851   6.520  12.914 -1.3153 -1.5388 -2.4174
14344TIP3   OH264522   1.599   5.974   1.450  0.4561 -0.1465 -0.2502
14344TIP3    H164523   1.669   6.015   1.501 -1.0158  0.4424  1.3951
14344TIP3    H264524   1.625   5.986   1.359  2.0260  0.8818  0.2972
14345TIP3   OH264525   3.313   1.238  14.549  0.0369 -0.2551  0.2084
14345TIP3    H164526   3.401   1.274  14.555 -0.5811  1.3962 -0.2288
14345TIP3    H264527   3.271   1.260  14.632 -0.1411 -0.5478  0.1993
14346TIP3   OH264528   6.209   1.320  13.907  0.2309 -0.5086  0.0970
14346TIP3    H164529   6.199   1.415  13.917 -2.0474 -0.8373  1.5800
14346TIP3    H264530   6.222   1.308  13.813  2.4274  1.3488  0.0619
14347TIP3   OH264531   6.735   0.838  16.086  0.5575 -0.1603 -0.3540
14347TIP3    H164532   6.670   0.900  16.052 -0.2576 -0.8211 -0.0362
14347TIP3    H264533   6.707   0.820  16.176 -0.1374 -2.1427 -0.9085
14348TIP3   OH264534   5.269   5.900  16.675 -0.3970  0.5015 -0.0747
14348TIP3    H164535   5.334   5.862  16.735 -0.4721  0.8958  0.2574
14348TIP3    H264536   5.321   5.950  16.613 -0.4763  2.4806  1.3730
14349TIP3   OH264537   4.499   4.284  10.839 -0.5667 -0.1888 -0.4474
14349TIP3    H164538   4.594   4.271  10.831 -0.3660  1.7845 -2.4929
14349TIP3    H264539   4.486   4.377  10.819 -3.0124 -0.5604 -0.9409
14350TIP3   OH264540   2.039   1.453  11.676  0.3013  0.5153 -0.1968
14350TIP3    H164541   2.066   1.451  11.584  0.3166 -0.2185 -0.1790
14350TIP3    H264542   2.120   1.474  11.724  0.6661 -0.7517 -0.2211
14351TIP3   OH264543   4.415   6.690  11.647  0.1211  0.1832  0.3639
14351TIP3    H164544   4.478   6.758  11.621 -1.3407  1.5068  0.0889
14351TIP3    H264545   4.370   6.666  11.566  0.8986 -1.4722  0.3816
14352TIP3   OH264546   4.855   5.187   1.371  0.0384  0.7412  0.1042
14352TIP3    H164547   4.806   5.122   1.321 -1.1651 -0.1832  2.3363
14352TIP3    H264548   4.825   5.175   1.461  2.0355  2.3554  1.0594
14353TIP3   OH264549   0.945   2.662   1.901 -0.5605 -0.1595  0.8988
14353TIP3    H164550   0.967   2.676   1.993  1.3022  1.0295  0.3403
14353TIP3    H264551   1.008   2.716   1.853 -0.8881 -1.4443 -1.1073
14354TIP3   OH264552   2.080   3.364   4.370 -0.2510 -0.2330 -0.2673
14354TIP3    H164553   2.061   3.428   4.302 -0.7796  0.4800  0.5462
14354TIP3    H264554   2.155   3.401   4.417 -0.7270 -0.0745  0.3722
14355TIP3   OH264555   0.325   2.524  13.828  0.4068  0.3511  0.1661
14355TIP3    H164556   0.337   2.433  13.856 -0.3909  0.0401 -0.4681
14355TIP3    H264557   0.351   2.576  13.904  1.5144 -0.3789  0.3220
14356TIP3   OH264558   1.969   6.696  13.385  0.3350 -0.2035 -0.4921
14356TIP3    H164559   1.944   6.760  13.318  0.5833  0.6860  0.2394
14356TIP3    H264560   2.063   6.709  13.396 -0.0105  1.0418  1.3976
14357TIP3   OH264561   2.473   1.655  14.373  0.4709  0.3441 -0.4076
14357TIP3    H164562   2.540   1.670  14.440  1.4409 -0.7893 -1.0861
14357TIP3    H264563   2.468   1.738  14.326  1.0667  0.5899 -0.0534
14358TIP3   OH264564   5.274   1.099   2.250 -0.7838 -0.4627 -0.1636
14358TIP3    H164565   5.200   1.080   2.193 -1.2797 -1.4745  0.7775
14358TIP3    H264566   5.262   1.042   2.326 -0.5530  1.3448  1.3174
14359TIP3   OH264567   2.938   0.724  14.635 -0.7074  0.1524  0.4624
14359TIP3    H164568   2.869   0.663  14.610 -0.5126 -0.1136  0.5602
14359TIP3    H264569   2.926   0.736  14.730  0.4945 -1.3509  0.8521
14360TIP3   OH264570   3.343   6.137   4.866 -0.2652  0.2110  0.3867
14360TIP3    H164571   3.396   6.073   4.819 -1.8519 -1.6395  0.9883
14360TIP3    H264572   3.329   6.099   4.952 -2.6314  0.5338  0.2155
14361TIP3   OH264573   4.084   1.998  12.505 -0.0661  0.7519 -0.7246
14361TIP3    H164574   4.000   1.951  12.505  0.2671  0.0794 -2.5818
14361TIP3    H264575   4.133   1.958  12.433  1.0450  2.5542 -1.0085
14362TIP3   OH264576   3.120   3.024   3.138  0.1959 -0.1254 -0.3004
14362TIP3    H164577   3.205   3.023   3.096  0.6294 -2.6508  0.4857
14362TIP3    H264578   3.127   3.094   3.204  1.3913  0.1571 -0.6980
14363TIP3   OH264579   5.429   6.319   3.359 -0.6726  0.2129  0.5410
14363TIP3    H164580   5.493   6.293   3.293 -1.4675  1.4326 -0.7776
14363TIP3    H264581   5.478   6.375   3.419 -0.2136  0.1113  0.2651
14364TIP3   OH264582   1.228   0.493   5.620 -0.3225  0.2994  0.1980
14364TIP3    H164583   1.207   0.400   5.628 -1.1841  0.4985  0.3215
14364TIP3    H264584   1.321   0.498   5.643 -0.5638 -0.3631  1.4318
14365TIP3   OH264585   0.599   3.584   5.729  0.4742  0.1675 -0.1608
14365TIP3    H164586   0.585   3.635   5.810 -0.9702 -1.4734  0.6892
14365TIP3    H264587   0.685   3.543   5.741  0.3710  0.1185  0.4316
14366TIP3   OH264588   2.654   2.619  12.283 -0.5467 -0.0004 -0.1149
14366TIP3    H164589   2.613   2.704  12.268 -1.2984 -0.2282  0.5378
14366TIP3    H264590   2.630   2.567  12.205 -1.4292 -0.0967  0.2104
14367TIP3   OH264591   0.307   4.648  12.927  0.0605 -0.1703 -0.5210
14367TIP3    H164592   0.223   4.674  12.965  0.2053  0.1374 -0.4074
14367TIP3    H264593   0.333   4.571  12.976  0.1927  0.1606 -0.0714
14368TIP3   OH264594   4.205   3.546   2.165 -0.0467 -0.3744  0.2225
14368TIP3    H164595   4.269   3.570   2.232 -0.1294  1.8599 -0.4449
14368TIP3    H264596   4.248   3.567   2.082 -0.8941 -0.7341 -0.3196
14369TIP3   OH264597   6.093   1.778  17.202 -0.4829 -0.0141  0.0875
14369TIP3    H164598   6.063   1.784  17.292  0.4557 -0.2995  0.4264
14369TIP3    H264599   6.080   1.866  17.167  0.6779  0.5448  1.0043
14370TIP3   OH264600   4.937   4.833   1.814  0.1132 -0.3710  0.7536
14370TIP3    H164601   4.846   4.855   1.794 -0.1261 -0.7953  1.3322
14370TIP3    H264602   4.931   4.775   1.890  0.7868 -1.5460 -0.0700
14371TIP3   OH264603   0.672   4.024   3.159  0.0192  0.6425  0.1736
14371TIP3    H164604   0.745   3.973   3.195 -0.1864 -0.9282 -1.4818
14371TIP3    H264605   0.687   4.023   3.064 -1.6401  1.1063 -0.1270
14372TIP3   OH264606   1.940   4.138  16.606  0.6780 -0.1942 -0.2351
14372TIP3    H164607   1.932   4.123  16.512  0.7099 -3.6222  0.1774
14372TIP3    H264608   2.033   4.121  16.625  1.1484  2.4663  0.2035
14373TIP3   OH264609   4.295   5.547   5.212  0.2082  0.3560 -0.7705
14373TIP3    H164610   4.323   5.608   5.281  0.1572  0.9996 -1.3096
14373TIP3    H264611   4.313   5.460   5.248  2.1449  0.7143 -0.7400
14374TIP3   OH264612   1.727   3.556   5.195  0.3869 -0.0214  0.7665
14374TIP3    H164613   1.737   3.548   5.290  1.3820 -0.5848  0.6312
14374TIP3    H264614   1.679   3.638   5.183  1.6786  0.9226  1.7078
14375TIP3   OH264615   4.253   2.303  16.020  0.2668  0.6378  0.1629
14375TIP3    H164616   4.298   2.288  15.937  2.1376 -1.0122  1.3727
14375TIP3    H264617   4.187   2.370  16.001  1.5076  1.2436 -2.3179
14376TIP3   OH264618   0.879   2.672  11.066  0.5205  0.5214 -1.0155
14376TIP3    H164619   0.884   2.595  11.008 -0.0810  0.7150 -1.3402
14376TIP3    H264620   0.901   2.638  11.153  0.2175 -0.0291 -1.1494
14377TIP3   OH264621   5.631   0.100   1.481  0.5973  0.4117  0.4095
14377TIP3    H164622   5.582   0.019   1.464  2.7112 -0.3628 -3.0886
14377TIP3    H264623   5.591   0.136   1.560 -4.3399 -1.0211 -1.0793
14378TIP3   OH264624   6.055   5.112   5.045  0.1446  0.3097 -0.1164
14378TIP3    H164625   6.123   5.111   5.113  0.3556 -0.3079 -0.3315
14378TIP3    H264626   6.104   5.115   4.963 -0.1125  1.6658 -0.2433
14379TIP3   OH264627   1.369   3.759  16.315  0.5985  0.2879  0.1053
14379TIP3    H164628   1.325   3.727  16.236 -0.9357  2.2747  0.0730
14379TIP3    H264629   1.435   3.819  16.282  0.7155  0.2585  0.2876
14380TIP3   OH264630   4.952   1.905   4.259  0.2042  0.1483  0.5093
14380TIP3    H164631   4.865   1.876   4.231 -0.4062  1.4593  0.9523
14380TIP3    H264632   4.969   1.984   4.207  0.0022  1.3601  2.1932
14381TIP3   OH264633   5.191   4.015   6.226 -0.3845 -0.6606  0.3767
14381TIP3    H164634   5.097   4.002   6.240 -0.2561 -1.6450  0.3642
14381TIP3    H264635   5.220   4.065   6.302 -1.2983  1.5240 -0.6393
14382TIP3   OH264636   0.944   0.573  12.562  0.1210  0.1109 -0.1330
14382TIP3    H164637   0.998   0.648  12.587  0.0919  0.1118 -0.0715
14382TIP3    H264638   0.977   0.547  12.476 -0.4440  0.7393 -0.5535
14383TIP3   OH264639   0.119   5.683  13.017 -0.3237 -0.2866 -0.0756
14383TIP3    H164640   0.161   5.617  13.072  0.7220  0.1436 -0.3349
14383TIP3    H264641   0.090   5.635  12.940 -0.8841 -0.7031  0.3856
14384TIP3   OH264642   1.501   5.987   3.461  0.4099  0.2856  0.3559
14384TIP3    H164643   1.422   5.998   3.515  0.7721 -1.0239  1.1846
14384TIP3    H264644   1.509   5.893   3.448  0.5732  0.5346 -1.6935
14385TIP3   OH264645   5.783   2.999   2.524  0.0567  0.2839 -0.1492
14385TIP3    H164646   5.727   3.041   2.459 -0.8548 -0.1599  0.3243
14385TIP3    H264647   5.724   2.941   2.572 -0.0589  2.8929  3.1795
14386TIP3   OH264648   1.707   3.969  12.363  0.1811 -0.2024 -0.1915
14386TIP3    H164649   1.683   3.929  12.279 -0.8417 -0.1419  0.0568
14386TIP3    H264650   1.792   3.932  12.383 -0.3187 -1.5400 -0.4343
14387TIP3   OH264651   0.844   5.643  13.814 -0.0074 -0.1728  0.5489
14387TIP3    H164652   0.908   5.689  13.868 -0.3976 -0.0371  0.9033
14387TIP3    H264653   0.804   5.579  13.873 -0.4723  0.0109  0.4388
14388TIP3   OH264654   4.797   0.261  12.755  0.3932 -0.2506  0.5048
14388TIP3    H164655   4.770   0.353  12.755 -0.0906 -0.3857  0.8748
14388TIP3    H264656   4.888   0.263  12.784  0.6395  0.1727 -0.2698
14389TIP3   OH264657   4.409   0.206  11.388 -0.1790  0.0543 -0.2126
14389TIP3    H164658   4.382   0.282  11.337  1.1368 -1.2017 -3.0634
14389TIP3    H264659   4.501   0.194  11.365  0.5378 -0.6448  2.5995
14390TIP3   OH264660   2.428   5.588  12.594 -0.0306 -0.0467 -0.0083
14390TIP3    H164661   2.379   5.656  12.548 -1.0841  0.0933  1.2587
14390TIP3    H264662   2.393   5.589  12.683  1.9177 -0.3418  0.8047
14391TIP3   OH264663   4.416   5.782  13.574  0.1935 -0.3361 -0.1212
14391TIP3    H164664   4.415   5.733  13.491  0.1959 -1.7416  0.6686
14391TIP3    H264665   4.508   5.786  13.598  0.3736  1.4980 -0.9531
14392TIP3   OH264666   6.806   2.505   1.798  0.5830  0.0523  0.1990
14392TIP3    H164667   6.800   2.489   1.704 -1.4601 -1.9426  0.5661
14392TIP3    H264668   6.794   2.599   1.808 -2.7117 -0.0633 -1.4144
14393TIP3   OH264669   4.842   1.745  11.573  0.1281 -0.1033  0.0737
14393TIP3    H164670   4.794   1.735  11.491 -0.9013 -0.2634  0.6649
14393TIP3    H264671   4.847   1.656  11.609  1.5941 -0.2101 -0.3536
14394TIP3   OH264672   3.073   2.454  13.670 -0.1423 -0.0374  0.7106
14394TIP3    H164673   2.998   2.412  13.713  0.0124 -1.2048 -0.1193
14394TIP3    H264674   3.140   2.458  13.739 -0.4807 -0.2754  1.0601
14395TIP3   OH264675   4.012   5.095  15.104 -0.0880  0.0132 -0.2846
14395TIP3    H164676   4.038   5.008  15.075  2.0006  0.0767  1.1843
14395TIP3    H264677   3.961   5.079  15.184  1.5190  0.1438  0.8050
14396TIP3   OH264678   1.471   1.531   4.317 -0.2420 -0.1810  0.0888
14396TIP3    H164679   1.441   1.606   4.369  0.0820  0.7160 -0.9859
14396TIP3    H264680   1.502   1.468   4.382 -0.7127  0.5256  1.0249
14397TIP3   OH264681   2.770   1.242  11.394 -0.0842  0.7461  0.1025
14397TIP3    H164682   2.858   1.272  11.419  0.0579  0.2828  0.1713
14397TIP3    H264683   2.717   1.256  11.472  0.3779 -0.7842  0.7276
14398TIP3   OH264684   4.008   5.431   0.535 -0.2095  0.4624 -0.7899
14398TIP3    H164685   4.076   5.414   0.469  0.6613 -0.0131  0.1909
14398TIP3    H264686   4.026   5.367   0.605  0.4648  2.5492  1.0705
14399TIP3   OH264687   3.410   3.936  15.613 -0.3410 -0.0336 -0.0096
14399TIP3    H164688   3.379   3.928  15.704 -1.0869 -0.1833 -0.2710
14399TIP3    H264689   3.386   4.025  15.588 -1.9388 -0.6208 -0.6991
14400TIP3   OH264690   4.199   1.077  16.690  0.6688 -0.0992 -0.2323
14400TIP3    H164691   4.154   1.037  16.765  0.1903  0.3252 -0.2881
14400TIP3    H264692   4.209   1.169  16.714  1.1431 -0.1064 -0.3985
14401TIP3   OH264693   0.190   4.455  12.697 -0.1447 -0.2507  0.3627
14401TIP3    H164694   0.155   4.503  12.622 -1.5912 -1.3062  0.3239
14401TIP3    H264695   0.210   4.522  12.762 -1.9949  0.4425  0.2665
14402TIP3   OH264696   3.766   5.904  10.463 -0.0527 -0.1011 -0.0438
14402TIP3    H164697   3.826   5.835  10.492 -2.2993 -1.8254  0.8278
14402TIP3    H264698   3.705   5.859  10.405 -0.9055  1.4156 -0.3598
14403TIP3   OH264699   3.783   5.570  14.505  0.3462 -0.2872  0.6027
14403TIP3    H164700   3.752   5.626  14.576  0.9413  1.4987 -0.4562
14403TIP3    H264701   3.792   5.630  14.430  1.3960 -1.7363 -0.4905
14404TIP3   OH264702   0.314   0.421   1.090  0.1297  0.7616 -0.2602
14404TIP3    H164703   0.370   0.349   1.119 -1.0860  0.1251  0.6042
14404TIP3    H264704   0.332   0.492   1.152 -1.0893  0.0345  1.0049
14405TIP3   OH264705   4.893   5.491   0.164  0.2026 -0.2139  0.4728
14405TIP3    H164706   4.879   5.561   0.099 -0.3392 -0.1812  0.6211
14405TIP3    H264707   4.808   5.480   0.206 -0.6940 -3.2402 -1.7921
14406TIP3   OH264708   1.624   5.766   6.211 -0.4486 -1.0004  0.3228
14406TIP3    H164709   1.573   5.687   6.228  0.4152 -1.1921  2.3747
14406TIP3    H264710   1.606   5.822   6.287 -0.2421  0.3402 -0.5924
14407TIP3   OH264711   5.779   6.391  15.963 -0.0712 -0.1571 -0.2466
14407TIP3    H164712   5.816   6.319  15.911  1.8030  1.9949 -2.1059
14407TIP3    H264713   5.804   6.371  16.053  2.5036 -0.6605 -1.0155
14408TIP3   OH264714   2.742   2.538   3.276  0.0192  0.2748 -0.0847
14408TIP3    H164715   2.714   2.624   3.243 -0.3771 -0.1693 -0.9323
14408TIP3    H264716   2.714   2.537   3.367 -0.0385  1.0160 -0.0860
14409TIP3   OH264717   3.494   1.610   2.139 -0.5369  0.2633 -0.0522
14409TIP3    H164718   3.540   1.602   2.223 -0.6345  1.9550  0.1879
14409TIP3    H264719   3.414   1.559   2.151  0.4358 -1.3268  0.0936
14410TIP3   OH264720   1.811   2.999   2.199  0.7200  0.4676  0.4717
14410TIP3    H164721   1.765   3.079   2.173 -1.0192 -0.4031  0.6795
14410TIP3    H264722   1.741   2.940   2.225  2.0772 -0.5268  2.0049
14411TIP3   OH264723   1.269   2.274  10.157  0.1738 -0.3293 -0.1891
14411TIP3    H164724   1.334   2.208  10.133  0.9764  0.9176 -1.5872
14411TIP3    H264725   1.314   2.331  10.219  0.2203  0.1726 -0.6796
14412TIP3   OH264726   1.275   1.289   4.345  0.3874 -0.0178 -0.1216
14412TIP3    H164727   1.293   1.208   4.394 -0.1780  0.2014  0.4700
14412TIP3    H264728   1.301   1.269   4.256 -1.9291 -1.7038 -0.5128
14413TIP3   OH264729   5.083   5.868   0.269  0.2095  0.0558 -0.1395
14413TIP3    H164730   5.131   5.950   0.258 -0.1668  0.3130  0.1033
14413TIP3    H264731   5.079   5.856   0.364  1.8904 -1.2127 -0.1833
14414TIP3   OH264732   6.682   2.617   4.100  0.0245  0.1714  0.1539
14414TIP3    H164733   6.678   2.676   4.024  1.3923 -0.6833 -0.6206
14414TIP3    H264734   6.591   2.593   4.116 -0.1986 -0.7131 -2.1025
14415TIP3   OH264735   5.622   0.863   3.341 -0.1895  0.3331  0.5328
14415TIP3    H164736   5.604   0.786   3.287  0.3576 -0.2493  1.1678
14415TIP3    H264737   5.714   0.882   3.324 -0.4558  1.1694 -0.0165
14416TIP3   OH264738   4.700   6.776  11.812  0.0605  0.3679 -0.0422
14416TIP3    H164739   4.771   6.773  11.748  1.1907  2.1425  1.0450
14416TIP3    H264740   4.646   6.849  11.783 -0.0446  0.4663  0.3953
14417TIP3   OH264741   2.828   5.189  16.846  0.3277 -0.6519 -0.1746
14417TIP3    H164742   2.824   5.107  16.796 -1.1420 -0.5414 -0.2785
14417TIP3    H264743   2.848   5.161  16.936 -1.1318 -1.2271 -0.0106
14418TIP3   OH264744   0.554   3.036  11.682  0.0974 -0.0832 -0.0181
14418TIP3    H164745   0.466   3.073  11.676  0.0286 -0.1637  0.4494
14418TIP3    H264746   0.587   3.038  11.592 -0.5195 -0.3923 -0.2601
14419TIP3   OH264747   3.387   0.370   1.345  0.0352  0.0201  0.8101
14419TIP3    H164748   3.330   0.414   1.408 -0.4078 -0.3925  0.7074
14419TIP3    H264749   3.348   0.283   1.335 -0.4344  0.3886 -0.7280
14420TIP3   OH264750   5.759   1.532  14.793  0.0103  0.1577 -0.4145
14420TIP3    H164751   5.797   1.472  14.857  2.1926 -0.5807 -2.2755
14420TIP3    H264752   5.742   1.612  14.844 -0.1876 -1.0088  1.4675
14421TIP3   OH264753   4.158   3.534  12.261  0.0498  0.1936  0.2160
14421TIP3    H164754   4.098   3.554  12.333  0.8118  0.8240  0.6801
14421TIP3    H264755   4.245   3.530  12.302  0.3146 -0.9304 -0.4098
14422TIP3   OH264756   0.696   3.405  11.331 -0.2032 -0.3573 -0.1443
14422TIP3    H164757   0.602   3.398  11.350  0.2145 -1.9239  1.6955
14422TIP3    H264758   0.717   3.322  11.288  0.3816 -0.1168 -0.3218
14423TIP3   OH264759   1.678   5.833  15.975  0.0013 -0.1054 -0.1024
14423TIP3    H164760   1.763   5.789  15.983 -0.5302 -1.3593 -1.0130
14423TIP3    H264761   1.695   5.908  15.917  0.6410  0.1381  0.3871
14424TIP3   OH264762   1.152   4.575   4.760  0.1414 -0.5512 -0.6235
14424TIP3    H164763   1.154   4.602   4.668  2.4398 -0.1964 -0.5387
14424TIP3    H264764   1.156   4.480   4.757 -1.8668 -0.6686 -0.8637
14425TIP3   OH264765   3.641   4.903  15.068  0.0965  0.1607 -0.4163
14425TIP3    H164766   3.667   4.991  15.096 -0.2095 -0.0950  0.7531
14425TIP3    H264767   3.722   4.853  15.065  0.2125  0.3614 -0.6022
14426TIP3   OH264768   6.367   4.738  15.058  0.4671 -0.2881 -0.1874
14426TIP3    H164769   6.326   4.653  15.075  1.5756 -0.6468  0.7783
14426TIP3    H264770   6.426   4.722  14.985  1.8064 -0.7482  0.9550
14427TIP3   OH264771   2.572   0.489   0.871 -0.3870 -0.0983 -0.3121
14427TIP3    H164772   2.578   0.406   0.919  0.0349  0.4148  0.5531
14427TIP3    H264773   2.663   0.514   0.855 -0.3800  1.3510  1.5419
14428TIP3   OH264774   3.841   4.757  11.272 -0.4841 -0.1764 -0.0090
14428TIP3    H164775   3.750   4.736  11.250 -0.3920  0.1025 -0.7078
14428TIP3    H264776   3.892   4.684  11.235 -0.3578  0.0846 -0.3546
14429TIP3   OH264777   0.994   5.510  16.536  0.5075  0.4397 -0.2377
14429TIP3    H164778   0.926   5.451  16.569  0.8326  1.0568  1.6220
14429TIP3    H264779   0.953   5.553  16.461 -0.5984 -0.3445 -0.1164
14430TIP3   OH264780   0.978   2.925   4.991  0.0745 -0.7018  0.4320
14430TIP3    H164781   1.021   2.992   5.044  0.2993 -1.7160  1.5897
14430TIP3    H264782   1.050   2.876   4.951 -0.1000  0.6485 -1.6415
14431TIP3   OH264783   1.293   1.234  12.038 -0.2471 -0.6531 -0.2726
14431TIP3    H164784   1.243   1.304  12.079  0.7797 -0.6788  1.1162
14431TIP3    H264785   1.267   1.155  12.085  0.9483 -0.6846  0.3869
14432TIP3   OH264786   6.355   0.417   4.947 -0.5221 -0.3017  0.1345
14432TIP3    H164787   6.447   0.389   4.942 -0.5924 -0.3589 -1.1162
14432TIP3    H264788   6.354   0.484   5.016  0.6460  0.3521 -0.4523
14433TIP3   OH264789   5.716   1.671   1.765 -0.1883 -0.1160 -0.5164
14433TIP3    H164790   5.803   1.706   1.786 -0.0504 -0.8998  0.2763
14433TIP3    H264791   5.667   1.680   1.847 -0.2952 -1.3211 -0.4335
14434TIP3   OH264792   1.458   0.642   2.589  0.2111  0.0886  0.4492
14434TIP3    H164793   1.450   0.611   2.498  1.0517  0.5966  0.1981
14434TIP3    H264794   1.501   0.727   2.582 -0.1842  0.3644  1.2955
14435TIP3   OH264795   5.112   6.020   0.558  0.3775 -0.0144  0.3947
14435TIP3    H164796   5.021   6.051   0.551 -0.5371 -2.4763  0.5533
14435TIP3    H264797   5.131   6.020   0.651 -0.0186 -0.9627  0.4802
14436TIP3   OH264798   2.288   5.150   5.058  0.5203 -0.1508 -0.8573
14436TIP3    H164799   2.369   5.195   5.081  0.3228 -0.5572  0.7818
14436TIP3    H264800   2.240   5.143   5.141 -0.7400 -0.8055 -1.6071
14437TIP3   OH264801   3.076   4.720  14.039 -0.6321 -0.0357  0.0092
14437TIP3    H164802   3.079   4.759  14.126 -1.2572 -3.9586  2.0659
14437TIP3    H264803   2.986   4.690  14.029  0.0636 -2.1312 -0.6639
14438TIP3   OH264804   2.005   5.648  16.274  0.1908 -0.2852 -0.8069
14438TIP3    H164805   1.917   5.610  16.284 -0.4075  1.3780  0.8098
14438TIP3    H264806   2.048   5.631  16.357  0.2099  1.7282 -0.3589
14439TIP3   OH264807   1.968   1.912  12.781 -0.7056 -0.0466  0.0432
14439TIP3    H164808   1.922   1.944  12.703 -1.8279 -2.0355 -0.1789
14439TIP3    H264809   2.034   1.851  12.747 -0.1526  0.2377  0.5755
14440TIP3   OH264810   5.120   3.167   4.586  0.0290  0.3776 -0.2664
14440TIP3    H164811   5.047   3.217   4.622 -0.5047  0.5259 -1.5242
14440TIP3    H264812   5.082   3.116   4.515  1.1354  0.4103 -0.9018
14441TIP3   OH264813   5.902   5.192   4.703 -0.6628 -0.1156 -0.0423
14441TIP3    H164814   5.929   5.255   4.770 -2.5762  0.6281  0.0962
14441TIP3    H264815   5.850   5.244   4.641  1.9927 -0.5175 -2.8303
14442TIP3   OH264816   0.454   0.122   2.585  0.3347 -0.4364  0.4473
14442TIP3    H164817   0.455   0.049   2.648 -0.7993 -1.5353 -0.7498
14442TIP3    H264818   0.381   0.177   2.614  0.0620 -0.7314  0.3291
14443TIP3   OH264819   4.049   6.553   2.585  0.1271 -0.1650  0.0378
14443TIP3    H164820   4.142   6.565   2.604  0.4544 -1.6697 -0.4835
14443TIP3    H264821   4.036   6.458   2.588 -1.4002  0.0244  0.1063
14444TIP3   OH264822   6.118   6.243   1.161 -0.2678  0.4213  0.6496
14444TIP3    H164823   6.050   6.221   1.098  1.7583  0.5903 -1.7652
14444TIP3    H264824   6.078   6.226   1.247 -2.0434 -3.3111 -0.6839
14445TIP3   OH264825   2.399   5.298  15.597 -0.3992  0.0542 -0.5267
14445TIP3    H164826   2.358   5.227  15.548  0.8121  0.3116 -1.9847
14445TIP3    H264827   2.470   5.256  15.645 -2.1299 -0.3530  1.8222
14446TIP3   OH264828   3.276   0.713  17.129 -0.1763  0.2074 -0.5814
14446TIP3    H164829   3.306   0.631  17.090 -0.9081  0.2890 -1.3283
14446TIP3    H264830   3.279   0.777  17.057  0.2280  0.8024 -0.0510
14447TIP3   OH264831   4.821   1.941   4.550  0.4303  0.2842 -0.0244
14447TIP3    H164832   4.899   1.984   4.517 -0.3396  1.3105 -0.5637
14447TIP3    H264833   4.806   1.868   4.489  1.0698 -0.0430  0.2036
14448TIP3   OH264834   0.521   0.776  16.172 -0.2274 -0.4070 -0.5564
14448TIP3    H164835   0.527   0.808  16.082 -0.9031  0.4353 -0.3095
14448TIP3    H264836   0.513   0.681  16.162  0.5918 -0.4083 -1.3422
14449TIP3   OH264837   3.188   6.341   3.191  0.1310  0.2140 -0.4250
14449TIP3    H164838   3.281   6.328   3.168  0.0446 -0.9046 -0.1889
14449TIP3    H264839   3.173   6.281   3.264 -0.6375  0.8260 -0.0720
14450TIP3   OH264840   5.967   3.770  16.200  0.1321 -0.2209  0.1740
14450TIP3    H164841   5.905   3.822  16.251  0.2982 -0.9325  1.1212
14450TIP3    H264842   5.977   3.689  16.249  0.8406 -0.6405 -0.6322
14451TIP3   OH264843   0.704   1.947  15.920  0.4560 -0.0552 -0.0598
14451TIP3    H164844   0.790   1.969  15.883  0.9877 -0.5472  0.8523
14451TIP3    H264845   0.712   1.856  15.947 -0.6925 -0.4257 -0.8747
14452TIP3   OH264846   5.960   4.531   1.059 -0.0942 -0.2031  0.0027
14452TIP3    H164847   5.936   4.501   1.147  0.3815  1.7359  0.8375
14452TIP3    H264848   5.883   4.509   1.005 -0.3623 -1.4820  0.8586
14453TIP3   OH264849   4.822   2.227   2.616 -0.1338 -0.8229  0.5299
14453TIP3    H164850   4.889   2.248   2.681  1.3693  0.1563 -1.2464
14453TIP3    H264851   4.786   2.144   2.646  1.2262 -0.9202  2.0607
14454TIP3   OH264852   5.702   1.450   2.793 -0.5586 -0.1629  0.3237
14454TIP3    H164853   5.766   1.410   2.852 -1.3803 -1.9162  0.0921
14454TIP3    H264854   5.715   1.544   2.804 -0.8418 -0.3868  3.4963
14455TIP3   OH264855   6.112   4.940   3.036 -0.2380  0.5993  0.4790
14455TIP3    H164856   6.076   5.001   2.972 -2.0329 -0.8926 -0.0034
14455TIP3    H264857   6.102   4.985   3.120 -0.3465  1.4771  0.0083
14456TIP3   OH264858   4.016   4.354   1.747 -0.4973 -0.3713  0.0579
14456TIP3    H164859   4.012   4.312   1.661 -1.1239  2.7464 -1.5806
14456TIP3    H264860   3.932   4.333   1.788 -0.9657 -0.3953 -0.8884
14457TIP3   OH264861   0.277   0.620  14.887 -0.4249 -0.1413  0.0682
14457TIP3    H164862   0.285   0.643  14.979 -1.2673 -0.4679  0.2362
14457TIP3    H264863   0.229   0.693  14.848  2.8405  1.7107 -0.8808
14458TIP3   OH264864   4.381   5.024   1.283  0.0884 -0.1123 -0.3245
14458TIP3    H164865   4.340   5.005   1.199  1.2410  0.2144 -0.9718
14458TIP3    H264866   4.350   4.954   1.341  0.6372 -1.3433 -1.4735
14459TIP3   OH264867   0.979   2.839  15.568 -0.1413 -0.1395  0.3768
14459TIP3    H164868   1.068   2.818  15.595  0.3089  1.7053  0.4246
14459TIP3    H264869   0.979   2.827  15.473 -0.2509 -1.4493  0.5199
14460TIP3   OH264870   5.529   5.236  13.111 -0.1443  0.0270  0.3796
14460TIP3    H164871   5.516   5.319  13.156 -0.5153  0.4382 -0.4646
14460TIP3    H264872   5.563   5.260  13.025 -2.3089 -0.5119 -0.7220
14461TIP3   OH264873   4.167   0.339  13.379  0.5916 -0.2171  0.3717
14461TIP3    H164874   4.075   0.312  13.379  0.3110  0.6471 -0.9226
14461TIP3    H264875   4.181   0.376  13.466 -0.9139  1.5479 -0.0536
14462TIP3   OH264876   4.667   0.681   6.386 -0.0597 -0.6505 -0.6172
14462TIP3    H164877   4.702   0.753   6.439  0.4898 -1.0096 -0.4834
14462TIP3    H264878   4.614   0.724   6.319 -1.6338 -0.2357  0.8240
14463TIP3   OH264879   6.649   4.442   5.414  0.1008  0.2258 -0.7417
14463TIP3    H164880   6.688   4.362   5.450 -0.6253  0.3314  0.3354
14463TIP3    H264881   6.562   4.415   5.383  0.0806  0.4738 -0.9077
14464TIP3   OH264882   2.969   2.572  15.075  0.0512  0.4114  0.4665
14464TIP3    H164883   2.983   2.639  15.008  1.7015 -0.6213 -0.2576
14464TIP3    H264884   2.989   2.616  15.157  1.4796  0.7309 -0.0346
14465TIP3   OH264885   1.308   3.089   5.844 -0.3242 -0.0665  0.0537
14465TIP3    H164886   1.247   3.146   5.796  0.3750 -0.1482 -0.9621
14465TIP3    H264887   1.252   3.022   5.884 -0.8693 -0.4683 -1.3179
14466TIP3   OH264888   1.997   6.122  13.339 -0.1670  0.0594  0.0531
14466TIP3    H164889   2.044   6.202  13.361 -0.9913  0.5443  0.0809
14466TIP3    H264890   2.034   6.055  13.397  1.7636 -0.0043 -1.1855
14467TIP3   OH264891   1.131   5.888  14.615 -0.2816  0.3891 -0.3249
14467TIP3    H164892   1.055   5.896  14.557 -1.3837  0.7110  1.1293
14467TIP3    H264893   1.205   5.915  14.560 -1.5379  2.5802 -1.0505
14468TIP3   OH264894   2.401   2.283  14.396 -0.1681  0.5599 -0.5314
14468TIP3    H164895   2.472   2.332  14.355 -1.2450  2.2781 -0.4752
14468TIP3    H264896   2.432   2.263  14.484  0.8443 -0.1491 -1.0350
14469TIP3   OH264897   5.176   4.239   4.526 -0.4288  0.2508 -1.1160
14469TIP3    H164898   5.267   4.227   4.499 -0.3107  1.4645 -1.3074
14469TIP3    H264899   5.175   4.218   4.620 -0.0390 -0.1163 -1.1913
14470TIP3   OH264900   1.757   3.197   0.326 -0.9254  0.2643 -0.4202
14470TIP3    H164901   1.822   3.267   0.326 -1.4008  0.7724 -2.3658
14470TIP3    H264902   1.800   3.124   0.371  0.0040  1.4085  0.6285
14471TIP3   OH264903   1.135   0.778  12.538 -0.2693  0.6421  0.6804
14471TIP3    H164904   1.228   0.755  12.540 -0.0557  1.0739 -1.4675
14471TIP3    H264905   1.133   0.866  12.502 -1.5033  0.6828  0.8054
14472TIP3   OH264906   2.704   6.767  12.835 -0.1527 -0.7685  0.6757
14472TIP3    H164907   2.683   6.757  12.742  2.5401  0.7771 -0.2290
14472TIP3    H264908   2.660   6.694  12.878 -2.1491 -1.0639 -1.6838
14473TIP3   OH264909   1.287   2.688  15.934  0.1265 -0.2424 -0.0046
14473TIP3    H164910   1.356   2.707  15.997  0.8088 -0.9607 -0.5127
14473TIP3    H264911   1.228   2.628  15.980  0.8357 -1.0816 -0.1666
14474TIP3   OH264912   5.633   6.376   0.617 -0.2172  0.3594 -0.3790
14474TIP3    H164913   5.647   6.471   0.609 -0.5157  0.5178  0.7802
14474TIP3    H264914   5.722   6.340   0.626 -0.2006  0.8980  2.4650
14475TIP3   OH264915   2.348   2.556  10.907 -0.4138 -0.1045  0.7624
14475TIP3    H164916   2.269   2.605  10.925 -0.7692  0.0232 -1.0133
14475TIP3    H264917   2.410   2.620  10.872 -0.7473 -0.7821 -1.1998
14476TIP3   OH264918   0.099   3.010   3.558  0.5150  0.4063  0.0193
14476TIP3    H164919   0.185   3.051   3.556  0.9544 -0.3753  1.2903
14476TIP3    H264920   0.100   2.957   3.638 -1.2256  0.5432  0.1719
14477TIP3   OH264921   0.820   3.303  14.885 -0.6187 -0.4747  0.1251
14477TIP3    H164922   0.796   3.287  14.976  0.8620 -1.8218  0.3436
14477TIP3    H264923   0.911   3.333  14.890 -1.1078  1.2444 -0.8197
14478TIP3   OH264924   0.257   4.168  13.972 -0.1827 -0.0221  0.2379
14478TIP3    H164925   0.345   4.132  13.985 -0.6265 -0.3849  2.8057
14478TIP3    H264926   0.271   4.256  13.938  1.1836 -0.0455  0.6969
14479TIP3   OH264927   6.373   4.251   3.517 -0.2780  0.0062  0.2259
14479TIP3    H164928   6.439   4.273   3.583 -0.0794  0.1157 -0.0076
14479TIP3    H264929   6.337   4.336   3.491 -0.8265 -0.0813  0.6730
14480TIP3   OH264930   2.825   4.309   1.601 -0.2938  0.2899 -0.6103
14480TIP3    H164931   2.819   4.220   1.634 -0.0114 -1.4012 -4.6102
14480TIP3    H264932   2.792   4.363   1.673  0.0023 -2.9086  2.1786
14481TIP3   OH264933   6.169   6.660   0.730  0.1508 -0.3431 -0.2236
14481TIP3    H164934   6.138   6.748   0.708 -0.1368 -0.7460 -1.4971
14481TIP3    H264935   6.258   6.674   0.763  0.1972  0.4098 -0.6489
14482TIP3   OH264936   2.955   6.508   2.001 -0.3922 -0.6330  0.6999
14482TIP3    H164937   2.926   6.598   1.988 -4.0694 -1.6406  0.7034
14482TIP3    H264938   2.970   6.501   2.096 -0.9049 -0.2066  0.8177
14483TIP3   OH264939   4.233   5.501  13.293 -0.0294  0.5161 -0.2429
14483TIP3    H164940   4.211   5.494  13.200  1.3374  0.9043 -0.6183
14483TIP3    H264941   4.161   5.456  13.338 -1.9523  2.3606 -1.3184
14484TIP3   OH264942   3.893   6.375   3.185 -1.0033 -0.0894  0.2565
14484TIP3    H164943   3.839   6.400   3.110 -0.3185  0.8261  0.0490
14484TIP3    H264944   3.983   6.394   3.157 -0.8374  1.9393  1.8826
14485TIP3   OH264945   1.642   0.780   4.042 -0.1062  0.1678  0.2107
14485TIP3    H164946   1.577   0.740   4.100  0.9048  0.5055  1.6264
14485TIP3    H264947   1.690   0.706   4.005 -0.3666 -0.0368  0.2811
14486TIP3   OH264948   2.221   3.116  14.379 -0.5267  0.6333 -0.0704
14486TIP3    H164949   2.265   3.042  14.338  0.3893  1.0268  0.1621
14486TIP3    H264950   2.134   3.084  14.400  0.5164 -1.0933  2.0320
14487TIP3   OH264951   6.672   4.126   4.607  0.0372  0.4219  0.4544
14487TIP3    H164952   6.693   4.218   4.598 -0.8098  0.5576 -0.2974
14487TIP3    H264953   6.753   4.085   4.638  0.7824  1.2231 -0.3697
14488TIP3   OH264954   2.173   2.314  16.681 -0.3329 -0.8531 -0.1926
14488TIP3    H164955   2.093   2.263  16.677 -0.7813 -0.1170 -0.9065
14488TIP3    H264956   2.229   2.276  16.612 -1.1372  0.3680 -1.5620
14489TIP3   OH264957   6.102   3.567  14.482  0.6935  0.2998  0.4395
14489TIP3    H164958   6.077   3.484  14.523 -0.6834 -1.1682 -3.0261
14489TIP3    H264959   6.065   3.634  14.540 -0.0456 -1.5258  2.2120
14490TIP3   OH264960   4.054   0.252  15.380 -0.0388  0.0716 -0.0320
14490TIP3    H164961   4.126   0.232  15.441 -0.5874  0.6166  0.8145
14490TIP3    H264962   3.997   0.176  15.384  0.6336 -0.5135 -0.9638
14491TIP3   OH264963   0.099   6.144  16.493 -0.4697  0.6524  0.0211
14491TIP3    H164964   0.124   6.229  16.456  0.9042  0.0858 -0.4315
14491TIP3    H264965   0.123   6.080  16.425 -3.1668 -0.0043 -0.4135
14492TIP3   OH264966   3.170   0.124   3.295 -0.0796 -0.1958  0.2073
14492TIP3    H164967   3.124   0.046   3.326 -0.2138 -0.5210 -0.7929
14492TIP3    H264968   3.229   0.093   3.227 -0.3053  0.6013 -0.3698
14493TIP3   OH264969   0.216   2.098   2.673 -0.2298 -0.0386 -0.2906
14493TIP3    H164970   0.206   2.138   2.760  0.6105 -0.3041 -0.0557
14493TIP3    H264971   0.168   2.016   2.679 -1.3825  0.5916 -0.5540
14494TIP3   OH264972   0.230   2.989  16.839  0.2201 -0.0914  0.1470
14494TIP3    H164973   0.323   2.972  16.852  0.8112  0.9639 -2.1586
14494TIP3    H264974   0.215   3.073  16.882  0.9233  0.8702 -1.4099
14495TIP3   OH264975   6.240   4.253   2.436  0.2376  0.1542 -0.0277
14495TIP3    H164976   6.314   4.193   2.430 -0.6660 -1.0687  0.7122
14495TIP3    H264977   6.210   4.263   2.346  0.6624 -0.1602 -0.2070
14496TIP3   OH264978   5.269   5.381   1.936  0.0448 -0.2237  0.6901
14496TIP3    H164979   5.208   5.449   1.907 -0.7744 -1.4200 -0.5239
14496TIP3    H264980   5.334   5.377   1.866  2.1465  1.6588  2.3762
14497TIP3   OH264981   2.634   1.496   0.889 -0.1180 -0.4835  1.1462
14497TIP3    H164982   2.618   1.481   0.982  1.0983  2.3677  1.9253
14497TIP3    H264983   2.729   1.501   0.881 -0.1944 -0.8383 -0.2801
14498TIP3   OH264984   5.914   5.594   6.683 -0.1230  0.0094  0.1954
14498TIP3    H164985   5.904   5.556   6.771  0.0792  0.1049  0.2614
14498TIP3    H264986   6.002   5.568   6.656  0.7018  1.8351  0.9384
14499TIP3   OH264987   3.851   4.570   1.267  0.8724 -0.0417  0.2535
14499TIP3    H164988   3.888   4.545   1.351  0.6223  0.0073  0.3792
14499TIP3    H264989   3.757   4.577   1.283  0.8710  0.4012  0.0797
14500TIP3   OH264990   5.633   4.877   4.518 -0.2332 -0.0415  0.1622
14500TIP3    H164991   5.561   4.862   4.580 -2.0745 -0.1779 -1.8935
14500TIP3    H264992   5.669   4.790   4.502  0.8318  0.0858  1.6035
14501TIP3   OH264993   1.990   4.392   1.786 -0.2815  0.5972  0.1403
14501TIP3    H164994   2.026   4.306   1.762  0.0308  0.1182  2.0984
14501TIP3    H264995   1.922   4.409   1.721 -0.1167 -0.9855 -0.4937
14502TIP3   OH264996   3.145   0.581  14.486 -0.4974  0.6704  0.4881
14502TIP3    H164997   3.089   0.657  14.504 -2.7706 -0.6309 -0.7123
14502TIP3    H264998   3.110   0.511  14.540  1.3396  0.2802  1.2828
14503TIP3   OH264999   5.814   0.111  11.960 -0.1770  0.2703 -0.0450
14503TIP3    H165000   5.850   0.198  11.978 -0.2174  0.5145 -1.0923
14503TIP3    H265001   5.720   0.126  11.951 -0.0081  0.3985 -1.8021
14504TIP3   OH265002   4.515   2.775  16.568  0.1516  0.0125  0.1638
14504TIP3    H165003   4.545   2.688  16.595  1.4747  1.3423  3.6909
14504TIP3    H265004   4.438   2.759  16.513  0.5835 -3.3604  0.3604
14505TIP3   OH265005   6.307   6.013  15.576 -0.3472  1.0739  0.0238
14505TIP3    H165006   6.323   6.053  15.491  0.5603 -0.1077 -0.3981
14505TIP3    H265007   6.395   5.995  15.611 -0.7172  0.5503  0.7171
14506TIP3   OH265008   4.713   1.577  11.894  0.1153 -0.2953  0.0896
14506TIP3    H165009   4.760   1.555  11.813  1.5230 -0.8634  1.0288
14506TIP3    H265010   4.706   1.494  11.941  0.0638  0.1789  0.9339
14507TIP3   OH265011   2.097   2.711  14.636  0.0624  0.5409 -0.2454
14507TIP3    H165012   2.064   2.722  14.547 -0.2759 -0.0006 -0.1937
14507TIP3    H265013   2.186   2.746  14.634 -0.5058  2.0294 -0.3912
14508TIP3   OH265014   5.195   2.268  16.675 -0.3111  0.0281  0.4131
14508TIP3    H165015   5.283   2.268  16.635 -1.5906 -0.2734 -2.7105
14508TIP3    H265016   5.183   2.358  16.705  0.3977  0.5759 -0.8395
14509TIP3   OH265017   3.667   5.544  10.554  0.8316  0.9108  0.4005
14509TIP3    H165018   3.636   5.606  10.488 -0.5327 -1.1860 -1.0412
14509TIP3    H265019   3.754   5.575  10.577  1.7752  1.2481 -3.1197
14510TIP3   OH265020   3.021   1.896   6.636  0.4435 -0.0118 -0.4356
14510TIP3    H165021   2.958   1.933   6.698  0.6099  0.4957 -0.5575
14510TIP3    H265022   2.968   1.861   6.565  0.1417 -2.1700  0.7698
14511TIP3   OH265023   2.856   2.452   3.596 -0.6167 -0.0476 -0.8308
14511TIP3    H165024   2.809   2.440   3.679 -2.3897  0.2299 -1.7624
14511TIP3    H265025   2.801   2.410   3.530  0.3787  0.4131 -1.9992
14512TIP3   OH265026   6.035   2.934  17.020 -0.1634  0.0826 -0.3155
14512TIP3    H165027   6.066   3.009  17.070  0.1601  0.3918 -0.9620
14512TIP3    H265028   6.114   2.881  17.005 -0.5562 -0.9308  1.0138
14513TIP3   OH265029   3.848   0.013   3.978 -0.4639  0.0688  0.2121
14513TIP3    H165030   3.838  -0.051   4.048 -2.1719  1.1256  0.9947
14513TIP3    H265031   3.759   0.038   3.955  0.0974  0.4538 -1.7063
14514TIP3   OH265032   1.305   2.902   5.270  0.1606  0.0824 -0.0339
14514TIP3    H165033   1.290   2.845   5.195 -1.5826 -0.0952  0.3858
14514TIP3    H265034   1.351   2.978   5.235 -1.6855  0.5664 -1.5559
14515TIP3   OH265035   1.256   1.503   6.037 -0.0036 -0.9256 -0.2247
14515TIP3    H165036   1.304   1.584   6.019 -0.6250 -0.7413 -1.1698
14515TIP3    H265037   1.298   1.466   6.114 -0.4074  0.8589  0.9211
14516TIP3   OH265038   4.934   0.521   0.472 -0.4134  0.1041 -0.7513
14516TIP3    H165039   4.892   0.608   0.472 -0.1558  0.2273 -0.9354
14516TIP3    H265040   4.865   0.462   0.440 -0.9013  0.0873  0.2691
14517TIP3   OH265041   3.361   5.649   2.364 -0.3498 -0.0322  0.6445
14517TIP3    H165042   3.277   5.604   2.358 -0.9466  1.0544  0.5087
14517TIP3    H265043   3.365   5.705   2.287  0.9753 -0.8061  0.1110
14518TIP3   OH265044   1.884   4.655   3.143 -0.1418  0.0554  0.3956
14518TIP3    H165045   1.930   4.683   3.222 -0.2360 -0.2057  0.5410
14518TIP3    H265046   1.947   4.600   3.097  0.6259  1.7171 -0.6585
14519TIP3   OH265047   2.019   0.046   5.804  0.6766  0.8133 -0.6762
14519TIP3    H165048   2.058   0.133   5.806  1.8467  0.2978 -0.1379
14519TIP3    H265049   1.940   0.053   5.857  3.5041  0.3275  4.1135
14520TIP3   OH265050   2.216   4.745   5.929  0.2571  0.1862 -0.2270
14520TIP3    H165051   2.270   4.818   5.897 -1.6485  1.2013 -1.2771
14520TIP3    H265052   2.162   4.720   5.854  0.6449 -2.1576  0.1952
14521TIP3   OH265053   6.476   3.972  13.332  1.0122 -0.2611  0.2971
14521TIP3    H165054   6.419   3.923  13.391  1.2466 -1.4086 -0.4048
14521TIP3    H265055   6.419   4.038  13.294  0.0175 -1.6249 -0.6715
14522TIP3   OH265056   1.010   0.027   3.921 -0.2424  0.2951 -0.6123
14522TIP3    H165057   0.995   0.057   3.832 -1.4101 -2.0863 -1.3099
14522TIP3    H265058   1.100  -0.005   3.921  0.5145  2.2774 -0.2563
14523TIP3   OH265059   2.495   3.394   4.387 -0.3570  0.5864 -0.5077
14523TIP3    H165060   2.458   3.477   4.356  1.7804  1.0453 -2.0595
14523TIP3    H265061   2.585   3.416   4.412 -0.3469 -0.9166  0.9252
14524TIP3   OH265062   2.875   0.395  13.971  0.0383 -0.3665  0.4361
14524TIP3    H165063   2.831   0.346  13.902 -0.7269  1.4395 -0.4332
14524TIP3    H265064   2.891   0.331  14.040 -0.5711 -1.8876 -0.7827
14525TIP3   OH265065   1.810   3.172  15.832  0.0419 -0.4659 -0.0479
14525TIP3    H165066   1.867   3.138  15.763  0.2948  0.5235 -0.3336
14525TIP3    H265067   1.866   3.178  15.909 -0.5206 -2.7263  0.6400
14526TIP3   OH265068   5.518   4.441   4.017 -0.3632  0.0267 -0.1023
14526TIP3    H165069   5.474   4.518   3.982 -0.1600 -0.2749 -1.0754
14526TIP3    H265070   5.568   4.473   4.091 -1.7842  0.4772  0.7128
14527TIP3   OH265071   4.267   2.631   3.729 -0.0151 -0.4020  0.0766
14527TIP3    H165072   4.345   2.632   3.784  1.4789 -0.6199 -1.9114
14527TIP3    H265073   4.293   2.677   3.649 -2.3747  0.7619 -0.1349
14528TIP3   OH265074   2.488   1.308  12.656 -0.3191 -0.0116 -0.0123
14528TIP3    H165075   2.406   1.300  12.606 -0.4828 -1.5559  0.4515
14528TIP3    H265076   2.467   1.270  12.741 -0.1596  2.8968  1.4646
14529TIP3   OH265077   3.969   1.059  16.448 -0.3947  0.3643  0.4678
14529TIP3    H165078   3.954   1.089  16.538 -0.8702  1.7081 -0.0362
14529TIP3    H265079   3.891   1.008  16.426 -0.7139  0.8381  0.4952
14530TIP3   OH265080   4.998   4.422   1.473  0.0607 -0.7333  0.3250
14530TIP3    H165081   5.081   4.374   1.477  1.6956  1.8429 -0.4009
14530TIP3    H265082   4.994   4.469   1.556  0.5001  0.8907 -0.5400
14531TIP3   OH265083   5.715   0.693   0.784  0.1651 -0.0125  0.0720
14531TIP3    H165084   5.712   0.753   0.858  0.4617  0.4292 -0.2654
14531TIP3    H265085   5.808   0.682   0.766  0.0899  0.5538 -0.7581
14532TIP3   OH265086   4.091   5.835   6.008  0.2772 -0.7600  0.5215
14532TIP3    H165087   4.149   5.823   5.932 -1.5426  0.7004 -1.2006
14532TIP3    H265088   4.003   5.823   5.973 -0.7112  1.4255  2.0433
14533TIP3   OH265089   2.026   0.166   2.239  0.5668  0.1670  0.0962
14533TIP3    H165090   2.065   0.123   2.315 -1.8818 -1.1432  0.7313
14533TIP3    H265091   2.085   0.146   2.166  1.0615 -1.7193  0.9739
14534TIP3   OH265092   4.591   1.481  11.376  0.5624 -0.1635  0.2232
14534TIP3    H165093   4.518   1.426  11.351 -0.5661  1.0026  0.8327
14534TIP3    H265094   4.569   1.511  11.465  2.7600 -1.4127  1.2753
14535TIP3   OH265095   5.681   1.092   3.734  0.3013 -0.2425  0.3079
14535TIP3    H165096   5.624   1.128   3.801 -0.9262 -0.5365 -0.5454
14535TIP3    H265097   5.623   1.071   3.661  0.8943 -3.6967  0.6172
14536TIP3   OH265098   0.634   4.822  15.006 -0.4177  0.6176 -0.6479
14536TIP3    H165099   0.628   4.747  14.947  2.2320  0.0061 -0.2782
14536TIP3    H265100   0.625   4.785  15.093  0.7429  0.6914 -0.4730
14537TIP3   OH265101   5.930   3.381   4.801  0.0511  0.0407  0.4737
14537TIP3    H165102   5.992   3.383   4.727 -0.3630  0.4552  0.1293
14537TIP3    H265103   5.985   3.371   4.878  0.4712 -0.6688  0.0840
14538TIP3   OH265104   6.605   5.829  11.509 -0.4470  0.0816 -0.1919
14538TIP3    H165105   6.603   5.905  11.568  2.7625 -0.8164  1.2697
14538TIP3    H265106   6.650   5.861  11.431  2.9605 -0.6699  1.2914
14539TIP3   OH265107   3.848   5.591  14.832 -0.3192 -0.2100 -0.0121
14539TIP3    H165108   3.834   5.533  14.907 -0.8341 -1.0385 -0.7416
14539TIP3    H265109   3.770   5.646  14.830 -0.7921 -0.8885 -0.5559
14540TIP3   OH265110   3.646   1.229  12.196 -1.0755  0.3594 -0.4828
14540TIP3    H165111   3.610   1.203  12.281 -1.1786  1.9381 -0.0126
14540TIP3    H265112   3.736   1.255  12.215  0.3992 -3.2727 -1.6092
14541TIP3   OH265113   2.167   1.777   4.382  0.4596  0.6476 -0.9340
14541TIP3    H165114   2.095   1.730   4.341  1.0440  0.2755 -1.5427
14541TIP3    H265115   2.187   1.849   4.323 -0.1807  1.4586 -0.1907
14542TIP3   OH265116   5.348   3.624  13.594  0.4249  0.6181  0.0245
14542TIP3    H165117   5.255   3.631  13.572 -0.0269 -1.2392  1.1623
14542TIP3    H265118   5.364   3.530  13.604  2.9462  0.6543 -2.2020
14543TIP3   OH265119   0.638   5.872  16.563  0.3466 -0.6648  0.5000
14543TIP3    H165120   0.566   5.910  16.512  0.7792  1.9961  1.7114
14543TIP3    H265121   0.643   5.926  16.642  2.6508 -1.7939  1.2210
14544TIP3   OH265122   4.250   6.813   2.826 -0.1813 -0.4306  0.1718
14544TIP3    H165123   4.279   6.783   2.740 -2.7146 -1.4310 -0.4159
14544TIP3    H265124   4.198   6.892   2.808 -2.7246 -1.9513  0.4078
14545TIP3   OH265125   1.485   0.795   4.951 -0.1548  0.6558 -0.1616
14545TIP3    H165126   1.392   0.816   4.948 -0.4315 -0.5180 -0.2181
14545TIP3    H265127   1.514   0.822   5.038 -0.4162  1.5060 -0.3281
14546TIP3   OH265128   3.379   1.393  11.584  0.2776  0.2687  0.0117
14546TIP3    H165129   3.410   1.410  11.495  0.8441 -1.5214 -0.1738
14546TIP3    H265130   3.283   1.401  11.578  0.2645 -0.4140 -0.9135
14547TIP3   OH265131   0.409   4.917   3.441 -0.1875  0.4292  0.5457
14547TIP3    H165132   0.382   4.837   3.395  2.7010 -0.1967 -0.2116
14547TIP3    H265133   0.361   4.987   3.397 -1.6231 -0.6816  0.2284
14548TIP3   OH265134   1.442   2.588  16.186 -0.3420  0.6387 -0.4339
14548TIP3    H165135   1.346   2.581  16.181 -0.3124  0.1121 -0.3069
14548TIP3    H265136   1.458   2.643  16.263 -0.5307  0.2393 -0.1030
14549TIP3   OH265137   4.667   4.592  12.390 -0.1162 -0.4468 -0.0157
14549TIP3    H165138   4.623   4.547  12.463  0.5767 -0.1695  0.5829
14549TIP3    H265139   4.759   4.595  12.416  0.0412  0.1873 -0.6361
14550TIP3   OH265140   2.177   5.982   0.191 -0.0498  0.4317 -0.0370
14550TIP3    H165141   2.199   6.071   0.220  2.0442 -0.3092  0.8180
14550TIP3    H265142   2.148   5.937   0.270 -0.5895  0.1921 -0.3651
14551TIP3   OH265143   0.255   0.296  16.964  0.9428  0.1734 -0.0021
14551TIP3    H165144   0.337   0.313  17.011  1.1565  0.2143 -0.3842
14551TIP3    H265145   0.248   0.200  16.962  1.0755  0.1648 -0.1233
14552TIP3   OH265146   0.202   1.517  11.285 -0.2386  0.6401  0.0033
14552TIP3    H165147   0.246   1.443  11.328 -2.4141 -0.7629 -0.0752
14552TIP3    H265148   0.181   1.576  11.357  0.7710  0.8256  0.1689
14553TIP3   OH265149   2.848   1.177   4.716  0.2256  0.0391  0.3349
14553TIP3    H165150   2.805   1.253   4.756  0.5774 -0.1115  1.0124
14553TIP3    H265151   2.832   1.188   4.622  1.0854  1.4731  0.3278
14554TIP3   OH265152   1.518   5.811   5.529 -0.1351 -0.3966 -0.0465
14554TIP3    H165153   1.551   5.873   5.593  1.7423  1.5315 -2.6802
14554TIP3    H265154   1.595   5.783   5.480 -1.6725  0.1764 -3.0554
14555TIP3   OH265155   0.236   5.013   0.698  0.7449  0.6015  0.2535
14555TIP3    H165156   0.141   5.018   0.710  0.7386 -1.0037  1.2283
14555TIP3    H265157   0.272   5.080   0.757  0.2502  0.5398  0.6302
14556TIP3   OH265158   1.739   5.785   0.724 -0.1362 -0.1011  0.0006
14556TIP3    H165159   1.757   5.704   0.770 -0.2745  0.0365  0.2991
14556TIP3    H265160   1.709   5.757   0.637  0.9597 -0.3424 -0.3183
14557TIP3   OH265161   3.551   0.329  11.001 -0.0569 -0.2401 -0.3472
14557TIP3    H165162   3.486   0.275  10.956 -0.2520  0.9134 -1.5171
14557TIP3    H265163   3.597   0.374  10.930  2.4800 -1.4863  0.3971
14558TIP3   OH265164   1.569   4.463  16.589  0.6602  0.3880 -0.1192
14558TIP3    H165165   1.524   4.463  16.674 -0.6502  1.1818 -0.7841
14558TIP3    H265166   1.581   4.371  16.568 -2.3200  0.0385 -0.7233
14559TIP3   OH265167   5.845   1.885   0.771 -0.0156  0.5432 -0.2431
14559TIP3    H165168   5.752   1.887   0.796 -0.0812 -0.0263 -0.4353
14559TIP3    H265169   5.850   1.941   0.693 -0.0973  1.0065  0.0755
14560TIP3   OH265170   4.884   2.971   2.932 -0.2890  0.2024 -0.1760
14560TIP3    H165171   4.937   3.045   2.903  0.4759 -1.3196 -2.9506
14560TIP3    H265172   4.866   2.921   2.853 -2.6091 -1.4675  1.2727
14561TIP3   OH265173   3.953   0.695  12.570 -0.1501 -0.6519 -0.1826
14561TIP3    H165174   3.966   0.600  12.561  0.1504 -0.5399 -1.0234
14561TIP3    H265175   3.867   0.711  12.533 -0.1425 -0.5825 -0.1696
14562TIP3   OH265176   1.400   6.546   2.649  0.0545 -0.6875  0.5872
14562TIP3    H165177   1.477   6.563   2.595  0.6437 -0.6239  1.4206
14562TIP3    H265178   1.336   6.509   2.589 -0.4947  2.2762 -0.8717
14563TIP3   OH265179   1.393   6.440  12.717 -0.4842 -0.1979  0.1122
14563TIP3    H165180   1.358   6.493  12.788 -0.3570 -0.4518  0.3665
14563TIP3    H265181   1.406   6.502  12.645 -1.5066 -0.1209 -0.0076
14564TIP3   OH265182   1.251   6.669   3.080  0.4364 -0.6730  0.0468
14564TIP3    H165183   1.291   6.683   3.165  1.5250 -3.1035 -0.0083
14564TIP3    H265184   1.324   6.660   3.019 -0.3051  0.0738 -1.0007
14565TIP3   OH265185   4.575   4.664   1.565  0.5382  0.2800 -0.4242
14565TIP3    H165186   4.645   4.728   1.554 -0.2318  1.2591  0.1223
14565TIP3    H265187   4.574   4.644   1.658  0.6517 -0.3905 -0.5644
14566TIP3   OH265188   6.581   2.153   4.851  0.6194  0.0722 -0.8354
14566TIP3    H165189   6.648   2.221   4.843  2.0671 -1.2101 -0.3095
14566TIP3    H265190   6.620   2.077   4.807  0.9502 -1.6686  2.1987
14567TIP3   OH265191   5.341   0.002   2.145  0.6027  0.1963 -0.1946
14567TIP3    H165192   5.351  -0.022   2.237 -1.5682 -0.4247 -0.0696
14567TIP3    H265193   5.331  -0.081   2.099  1.8220  0.4948 -1.0325
14568TIP3   OH265194   2.876   3.425   2.969  0.5403  0.1136 -0.0306
14568TIP3    H165195   2.786   3.394   2.973  0.6631 -0.2891 -0.3825
14568TIP3    H265196   2.869   3.520   2.975  0.2117  0.0185  2.0519
14569TIP3   OH265197   2.356   1.576   0.119  0.2088 -0.0108 -0.1550
14569TIP3    H165198   2.360   1.654   0.173 -0.9353 -0.6050  0.8245
14569TIP3    H265199   2.310   1.511   0.172  0.2603 -1.0499 -1.3151
14570TIP3   OH265200   0.482   4.105  15.725  0.0958  0.6420  0.0469
14570TIP3    H165201   0.400   4.125  15.679 -0.3048 -0.9032  0.0238
14570TIP3    H265202   0.454   4.089  15.815  0.2245 -0.8144 -0.1583
14571TIP3   OH265203   2.838   6.066   0.605 -0.0610 -0.2146  0.0729
14571TIP3    H165204   2.901   6.053   0.534 -2.6446 -0.9270 -2.3004
14571TIP3    H265205   2.842   6.160   0.624  1.0776 -0.0976 -0.6534
14572TIP3   OH265206   6.188   4.348  15.566  0.7403  0.6255 -0.0168
14572TIP3    H165207   6.166   4.434  15.602 -0.2032  0.6210 -0.5509
14572TIP3    H265208   6.267   4.363  15.514 -0.8778  1.7992 -2.3329
14573TIP3   OH265209   3.016   1.180  13.854  0.6671 -0.4360 -0.0829
14573TIP3    H165210   3.016   1.216  13.943  0.2184 -0.3199 -0.1240
14573TIP3    H265211   3.052   1.092  13.863  1.7222  0.0009  0.0312
14574TIP3   OH265212   4.957   2.882  11.069 -0.2972 -0.6147  0.0986
14574TIP3    H165213   5.047   2.894  11.039  0.6707  0.4719  3.0912
14574TIP3    H265214   4.916   2.826  11.002  2.0074  0.3716 -2.3058
14575TIP3   OH265215   5.809   2.222  13.129 -0.5509 -0.5119  0.1226
14575TIP3    H165216   5.803   2.301  13.075  1.4559  0.1814  0.8252
14575TIP3    H265217   5.721   2.185  13.127 -0.7293 -0.1604 -3.0392
14576TIP3   OH265218   5.059   5.966  11.746  0.0023  0.6151  0.1384
14576TIP3    H165219   5.031   6.008  11.828 -1.8041  0.5122 -0.3712
14576TIP3    H265220   5.089   6.039  11.691  0.4547  0.7822  0.6016
14577TIP3   OH265221   0.638   1.641  17.170  0.2274  0.5199  0.5636
14577TIP3    H165222   0.612   1.646  17.078 -1.5376  1.4636  1.0691
14577TIP3    H265223   0.720   1.592  17.169 -1.8562 -3.3253 -1.0971
14578TIP3   OH265224   0.500   3.962   3.352 -0.4592 -0.0520 -0.0196
14578TIP3    H165225   0.565   3.967   3.282 -0.5463 -0.7145 -0.1544
14578TIP3    H265226   0.552   3.964   3.433 -0.2248 -1.0325 -0.1319
14579TIP3   OH265227   1.245   6.199  11.514 -0.0492  0.2088  0.2812
14579TIP3    H165228   1.203   6.278  11.547 -0.8091 -0.2630  0.4703
14579TIP3    H265229   1.338   6.222  11.506 -0.3297  1.2426 -0.0749
14580TIP3   OH265230   5.054   6.398   3.505  0.3183  0.3367  0.0079
14580TIP3    H165231   5.097   6.426   3.424  0.2084  1.3079  0.2770
14580TIP3    H265232   4.962   6.388   3.481 -0.0287  2.2999  0.3933
14581TIP3   OH265233   1.209   4.752  11.572  0.5327  0.2405 -0.2018
14581TIP3    H165234   1.259   4.721  11.648 -1.8323 -0.5691  1.1201
14581TIP3    H265235   1.128   4.701  11.574 -1.9854  3.8286 -0.0850
14582TIP3   OH265236   1.860   6.522  11.437 -0.2232  0.3481  0.1935
14582TIP3    H165237   1.873   6.587  11.368 -1.2991 -0.0568 -0.4120
14582TIP3    H265238   1.892   6.440  11.399  1.0101  0.4702  0.9093
14583TIP3   OH265239   2.035   0.153  11.676 -0.0468 -0.1423 -1.0218
14583TIP3    H165240   1.961   0.116  11.724  1.3621  0.6139  1.9788
14583TIP3    H265241   2.102   0.085  11.681  0.8010  0.7227 -0.0134
14584TIP3   OH265242   2.190   3.697  13.629 -0.0639  0.0081  0.9047
14584TIP3    H165243   2.116   3.738  13.584 -0.6036  0.9580  2.5872
14584TIP3    H265244   2.266   3.751  13.606 -0.2294  0.1452  0.6798
14585TIP3   OH265245   2.844   1.982  16.846  0.0624 -0.3633 -0.0809
14585TIP3    H165246   2.749   1.980  16.839 -0.0849 -1.2017  1.7514
14585TIP3    H265247   2.873   1.899  16.807 -0.0637 -0.6967  0.5233
14586TIP3   OH265248   4.318   5.088  13.775 -0.1637 -0.3472  0.1262
14586TIP3    H165249   4.264   5.091  13.854 -0.8794  2.3235 -0.3562
14586TIP3    H265250   4.257   5.107  13.703  0.9157 -0.1531 -0.7650
14587TIP3   OH265251   3.899   4.133   4.750  0.2561  0.2019  0.5057
14587TIP3    H165252   3.916   4.110   4.658  0.0736 -0.4262  0.6220
14587TIP3    H265253   3.985   4.152   4.787  0.2668  1.1355  0.0333
14588TIP3   OH265254   0.410   2.730   0.301 -0.0108  0.0876 -0.4433
14588TIP3    H165255   0.440   2.686   0.381  1.1303  1.2181 -0.2151
14588TIP3    H265256   0.346   2.794   0.333 -3.3980 -2.6947 -0.9738
14589TIP3   OH265257   6.683   0.871   5.329 -0.1148 -0.2672  0.5145
14589TIP3    H165258   6.764   0.824   5.348 -0.0984  0.4741  2.5323
14589TIP3    H265259   6.707   0.932   5.259  0.4388 -1.6091 -0.5214
14590TIP3   OH265260   0.646   6.364   3.428  0.8066  0.0121 -0.1774
14590TIP3    H165261   0.718   6.366   3.491  0.8973 -1.0066 -0.2395
14590TIP3    H265262   0.679   6.312   3.355  0.0419 -0.3723 -0.2544
14591TIP3   OH265263   6.342   1.157   0.944  0.4758 -0.5313 -0.1714
14591TIP3    H165264   6.264   1.103   0.953  0.3219 -0.1733  0.7799
14591TIP3    H265265   6.406   1.119   1.004  0.5530  0.0052  0.0967
14592TIP3   OH265266   4.572   2.751  12.103 -0.4256 -0.3094  0.5459
14592TIP3    H165267   4.649   2.795  12.137 -1.0363  1.3168 -0.0624
14592TIP3    H265268   4.563   2.672  12.156  1.3734 -0.2896  0.9172
14593TIP3   OH265269   5.860   0.371  14.122  0.3075  0.6232  0.4595
14593TIP3    H165270   5.768   0.354  14.142  0.2988  0.3707  0.2053
14593TIP3    H265271   5.860   0.461  14.088  0.0090  0.2769 -0.4881
14594TIP3   OH265272   3.985   1.183  15.828  0.1266  0.1109  0.2689
14594TIP3    H165273   4.073   1.197  15.861  0.1691 -0.5142  0.4249
14594TIP3    H265274   3.932   1.166  15.906  0.0508 -0.4589  0.0957
14595TIP3   OH265275   1.355   0.091   2.821 -0.2822  0.1653 -0.3536
14595TIP3    H165276   1.386   0.137   2.900  0.1719 -1.3717  0.3922
14595TIP3    H265277   1.264   0.070   2.840 -0.4337  0.5650 -0.6182
14596TIP3   OH265278   5.903   5.186   0.281  0.0879  0.4183  0.0292
14596TIP3    H165279   5.856   5.269   0.292 -0.1524  0.3452 -0.4257
14596TIP3    H265280   5.980   5.195   0.337  0.5171  1.2979 -0.6654
14597TIP3   OH265281   6.135   0.857   3.110 -0.0853  0.1622  0.2020
14597TIP3    H165282   6.170   0.814   3.188 -0.3805  1.1548  0.9061
14597TIP3    H265283   6.186   0.938   3.103  0.1412 -0.0557 -0.8193
14598TIP3   OH265284   3.426   0.104   2.657 -0.1441  0.2594  0.3124
14598TIP3    H165285   3.443   0.050   2.580  0.5764  0.9805 -0.0521
14598TIP3    H265286   3.500   0.164   2.661  1.3721 -1.5320  3.1565
14599TIP3   OH265287   5.911   3.814   3.574  0.3916  0.3410  0.1513
14599TIP3    H165288   5.819   3.831   3.596  0.4201 -0.0898  0.6412
14599TIP3    H265289   5.933   3.880   3.508  0.0392  1.1378  0.8077
14600TIP3   OH265290   0.946   5.643   4.734  0.4206 -0.1050 -0.1302
14600TIP3    H165291   1.015   5.587   4.699  0.6917  0.1394  0.0033
14600TIP3    H265292   0.945   5.719   4.675  2.7018  1.6001  1.8333
14601TIP3   OH265293   1.830   4.492  15.142 -0.2815 -0.0927  0.8176
14601TIP3    H165294   1.786   4.434  15.081 -0.6138  0.1081  0.8655
14601TIP3    H265295   1.823   4.579  15.103  0.2393 -0.0877  0.7306
14602TIP3   OH265296   4.273   3.775   6.450  0.0160  0.0324 -0.5611
14602TIP3    H165297   4.270   3.705   6.515 -2.2351 -1.1238 -1.7636
14602TIP3    H265298   4.366   3.787   6.430  0.5948 -1.0447  1.2988
14603TIP3   OH265299   3.698   4.886   0.464 -0.6360 -0.2558 -0.9247
14603TIP3    H165300   3.749   4.811   0.496  1.7042  1.4793 -0.3593
14603TIP3    H265301   3.713   4.887   0.370 -0.0089 -0.0320 -0.8223
14604TIP3   OH265302   5.626   1.785   6.057 -0.2577 -0.8840  0.4540
14604TIP3    H165303   5.609   1.720   6.126 -1.3966 -1.3421 -0.2314
14604TIP3    H265304   5.665   1.859   6.103 -1.1788 -1.1027  1.6349
14605TIP3   OH265305   0.615   0.850   0.324  0.1557 -0.2561  0.1455
14605TIP3    H165306   0.625   0.933   0.370 -0.9300 -0.4679  0.7954
14605TIP3    H265307   0.550   0.802   0.375  0.1171 -1.1472 -0.7157
14606TIP3   OH265308   1.276   1.714  11.893 -0.4592  0.5511 -0.2703
14606TIP3    H165309   1.205   1.775  11.873 -2.9275 -1.7712  0.8159
14606TIP3    H265310   1.281   1.713  11.988  0.6219  0.1975 -0.3188
14607TIP3   OH265311   0.889   2.049  12.943 -0.1170 -0.4838 -0.1934
14607TIP3    H165312   0.964   2.015  12.893 -0.2507  0.5932 -1.1872
14607TIP3    H265313   0.909   2.027  13.034  1.5707  0.0371 -0.4025
14608TIP3   OH265314   6.106   0.640  11.888  0.0739  0.1863 -0.0767
14608TIP3    H165315   6.129   0.647  11.795  1.5336  0.0082  0.2486
14608TIP3    H265316   6.012   0.620  11.888  0.2562 -0.8518 -1.5403
14609TIP3   OH265317   5.306   0.254   2.108  0.1563 -0.2308 -1.1411
14609TIP3    H165318   5.219   0.270   2.071 -1.0246 -1.0029  1.1627
14609TIP3    H265319   5.315   0.159   2.109  1.3055 -0.1554 -1.8615
14610TIP3   OH265320   4.292   3.908   0.368 -0.2512 -0.1282 -0.0655
14610TIP3    H165321   4.306   3.829   0.421 -1.3919 -0.3592 -0.0952
14610TIP3    H265322   4.315   3.980   0.427 -0.9988 -0.4046  0.5768
14611TIP3   OH265323   5.023   6.664  10.996  0.1508  0.0494 -0.3090
14611TIP3    H165324   4.981   6.595  10.945  2.0435 -1.2296 -0.2227
14611TIP3    H265325   5.047   6.731  10.932 -0.8431  0.2083 -0.5268
14612TIP3   OH265326   1.697   1.317   2.934 -0.1525 -0.5415  0.4435
14612TIP3    H165327   1.709   1.265   3.014  3.1384 -1.3884 -0.4201
14612TIP3    H265328   1.699   1.252   2.863 -0.0839  0.4292 -0.4665
14613TIP3   OH265329   0.792   5.364  12.611 -0.5782 -0.2765 -0.0779
14613TIP3    H165330   0.860   5.316  12.564  0.3031  1.2338 -0.4295
14613TIP3    H265331   0.778   5.314  12.691  0.4488 -0.9984 -0.3381
14614TIP3   OH265332   2.627   2.030  14.404 -0.2230 -0.3628  0.3904
14614TIP3    H165333   2.687   2.096  14.367 -0.7019 -0.3621 -0.4136
14614TIP3    H265334   2.574   2.078  14.467 -0.5510  0.0286 -0.1708
14615TIP3   OH265335   1.959   1.696   0.797 -0.4112 -0.6381  0.2698
14615TIP3    H165336   2.029   1.640   0.830  0.5267  0.9448  1.0807
14615TIP3    H265337   1.987   1.719   0.708  0.0471 -0.1012  0.5503
14616TIP3   OH265338   1.872   2.161  15.536  0.0004  0.8158 -0.1863
14616TIP3    H165339   1.856   2.212  15.615  0.1012 -0.1434  0.4680
14616TIP3    H265340   1.878   2.071  15.566  1.7688  0.5986 -1.0414
14617TIP3   OH265341   0.947   1.341   3.742 -0.0217  0.6052 -0.0035
14617TIP3    H165342   0.924   1.316   3.652 -0.4118  1.4777 -0.1559
14617TIP3    H265343   0.999   1.268   3.775 -1.1316 -0.4044 -0.4354
14618TIP3   OH265344   3.607   4.276  16.464  1.0711  0.2064  0.1412
14618TIP3    H165345   3.655   4.342  16.414 -0.8532 -0.3188 -2.6340
14618TIP3    H265346   3.531   4.322  16.499 -0.1454 -0.3577 -1.5954
14619TIP3   OH265347   1.190   5.998   6.192 -0.0389 -0.1242  0.4434
14619TIP3    H165348   1.100   6.020   6.215 -0.0953  1.0172 -0.7663
14619TIP3    H265349   1.200   6.028   6.102  2.2786  2.1170  1.3235
14620TIP3   OH265350   1.351   6.535  12.051 -0.1391 -0.7521  0.1114
14620TIP3    H165351   1.363   6.562  11.960 -0.2728  0.2212  0.3815
14620TIP3    H265352   1.256   6.531  12.063 -0.1314 -1.8262 -0.0574
14621TIP3   OH265353   5.526   0.839  13.261  0.5293  0.3437  0.2325
14621TIP3    H165354   5.477   0.799  13.334 -0.1981  0.9962  0.1193
14621TIP3    H265355   5.470   0.826  13.185  1.6607 -1.0771 -0.4154
14622TIP3   OH265356   1.686   5.351   1.659 -0.0824  0.1523  0.8011
14622TIP3    H165357   1.622   5.422   1.670  0.8241  0.8430  1.8609
14622TIP3    H265358   1.690   5.309   1.745  0.5236 -0.2010  0.6061
14623TIP3   OH265359   5.089   3.615  13.529  0.1195 -0.4906 -0.4542
14623TIP3    H165360   5.016   3.560  13.559 -0.4944  0.6360  0.2076
14623TIP3    H265361   5.047   3.695  13.498  1.1030  0.8332  1.3981
14624TIP3   OH265362   6.342   2.818  17.022  0.0256 -0.3197 -0.1018
14624TIP3    H165363   6.322   2.725  17.036  4.3019 -1.3213  0.6696
14624TIP3    H265364   6.360   2.824  16.928  1.5471 -0.7570  0.1404
14625TIP3   OH265365   1.901   3.715  12.387  0.0286  0.2626 -0.2691
14625TIP3    H165366   1.832   3.693  12.450  1.3182 -0.4566  0.9650
14625TIP3    H265367   1.873   3.674  12.306 -0.0653 -1.7698  0.7180
14626TIP3   OH265368   4.516   3.452   4.736 -0.1982  0.0387 -0.0732
14626TIP3    H165369   4.599   3.498   4.727  0.1134 -0.3519  0.6961
14626TIP3    H265370   4.497   3.455   4.830 -0.0841 -1.5156  0.0401
14627TIP3   OH265371   4.646   5.298   4.066 -0.0203  0.3908 -0.4106
14627TIP3    H165372   4.740   5.313   4.067  0.1764 -0.6040 -1.4549
14627TIP3    H265373   4.611   5.366   4.008  0.6428 -1.7847 -3.6318
14628TIP3   OH265374   6.551   1.391   2.116 -0.0402 -0.5317 -0.3053
14628TIP3    H165375   6.585   1.478   2.136 -2.2297  0.0116  1.5456
14628TIP3    H265376   6.579   1.374   2.026 -0.8219  2.7860 -1.3160
14629TIP3   OH265377   6.737   1.357  14.770  1.1887 -0.1886  0.0393
14629TIP3    H165378   6.790   1.434  14.791  1.4139  0.1988 -1.7599
14629TIP3    H265379   6.778   1.320  14.692  0.3762 -1.4604  0.1758
14630TIP3   OH265380   4.816   5.894   0.856 -0.0891 -0.1487 -0.5231
14630TIP3    H165381   4.737   5.872   0.905  1.1666  0.0507  1.7320
14630TIP3    H265382   4.826   5.822   0.793 -2.4332  0.2267 -1.4323
14631TIP3   OH265383   4.628   3.116  16.184  0.3117 -0.5131  0.4458
14631TIP3    H165384   4.533   3.112  16.196  0.1837 -0.5627 -0.5315
14631TIP3    H265385   4.645   3.056  16.112  0.8002  1.2281 -0.9345
14632TIP3   OH265386   1.197   6.344   1.982  0.2987  0.3168 -0.2473
14632TIP3    H165387   1.243   6.260   1.977 -0.3216 -0.1631  1.4455
14632TIP3    H265388   1.224   6.382   2.066 -0.0843  1.4284 -0.6009
14633TIP3   OH265389   2.435   1.241  14.789 -0.6465 -0.1299 -0.2231
14633TIP3    H165390   2.528   1.218  14.792 -0.5183  0.3028 -0.6966
14633TIP3    H265391   2.427   1.299  14.713 -1.1304  0.6194  0.3884
14634TIP3   OH265392   6.023   2.188   6.693  0.0484  0.3530  0.1744
14634TIP3    H165393   6.044   2.100   6.661 -0.2030  0.5972 -0.6935
14634TIP3    H265394   5.958   2.221   6.630 -0.1284  1.0206  0.6998
14635TIP3   OH265395   4.620   5.863  12.931 -0.2369  0.5118  0.5874
14635TIP3    H165396   4.596   5.800  12.862  1.2243  0.9109 -0.3355
14635TIP3    H265397   4.712   5.844  12.950 -0.3598  1.0191  1.7955
14636TIP3   OH265398   0.588   4.416  13.133 -0.6874  0.2753  0.1055
14636TIP3    H165399   0.602   4.405  13.038 -1.3407 -0.2744  0.0561
14636TIP3    H265400   0.668   4.456  13.165 -0.4454  0.4462 -0.6832
14637TIP3   OH265401   1.490   5.268   2.893  0.0100 -0.2156 -0.1879
14637TIP3    H165402   1.456   5.207   2.827  0.3479 -1.1099  0.4330
14637TIP3    H265403   1.582   5.242   2.903 -0.1834 -0.5045  1.0515
14638TIP3   OH265404   0.118   2.869  16.006  0.4667  0.2882  0.0245
14638TIP3    H165405   0.120   2.956  15.966  1.1380  1.0233  1.5828
14638TIP3    H265406   0.196   2.825  15.971  1.3355  1.1046  0.8761
14639TIP3   OH265407   0.346   3.240   2.406  0.0822 -0.2284 -0.5131
14639TIP3    H165408   0.371   3.166   2.351  0.2811 -0.2994 -0.3309
14639TIP3    H265409   0.420   3.251   2.466 -0.6839 -0.9818  0.5958
14640TIP3   OH265410   1.558   3.805   3.018  0.0841  0.0987 -0.2556
14640TIP3    H165411   1.616   3.782   2.945 -0.1775 -1.7525  0.0771
14640TIP3    H265412   1.478   3.837   2.975 -0.1320 -1.1226 -0.8062
14641TIP3   OH265413   1.231   6.270   3.159  0.1925  0.6258 -0.3415
14641TIP3    H165414   1.160   6.208   3.141 -0.3539  0.9086  0.7515
14641TIP3    H265415   1.309   6.229   3.121 -0.3715 -0.1725 -0.6622
14642TIP3   OH265416   0.079   1.503   1.041 -0.2241 -1.1076  0.3456
14642TIP3    H165417   0.023   1.500   1.119 -1.4639 -0.8530 -0.5044
14642TIP3    H265418   0.019   1.486   0.968  0.7387 -0.4043 -0.6369
14643TIP3   OH265419   0.263   5.545   1.256  0.3157  0.0622  0.1361
14643TIP3    H165420   0.335   5.590   1.301  0.2580 -0.1252  0.4187
14643TIP3    H265421   0.219   5.495   1.325  0.6781 -0.8228 -0.2450
14644TIP3   OH265422   5.762   3.058   5.082 -0.5073  0.2091  0.0236
14644TIP3    H165423   5.739   3.074   4.990 -0.2004 -0.4004 -0.1621
14644TIP3    H265424   5.856   3.076   5.086 -0.7824  1.6845  0.5532
14645TIP3   OH265425   1.295   1.007  14.344 -0.2245  0.1641 -0.0023
14645TIP3    H165426   1.228   1.025  14.278 -0.5253  1.1594  0.5629
14645TIP3    H265427   1.247   0.977  14.421  0.2210 -3.0272 -0.7840
14646TIP3   OH265428   0.298   4.734  11.795  0.2467  0.0570  0.3559
14646TIP3    H165429   0.214   4.693  11.817 -0.2255 -0.1854 -1.6795
14646TIP3    H265430   0.357   4.707  11.865 -1.3041  0.0660  1.7332
14647TIP3   OH265431   2.814   3.650  16.015 -0.7501 -0.3903 -0.0075
14647TIP3    H165432   2.906   3.633  15.995 -0.8280 -1.6023  0.5343
14647TIP3    H265433   2.795   3.592  16.089 -2.0437 -0.4255 -0.3390
14648TIP3   OH265434   1.414   2.371   4.980  0.0139  0.0251 -0.6254
14648TIP3    H165435   1.334   2.323   5.002  0.7585 -1.1339 -0.3267
14648TIP3    H265436   1.459   2.381   5.064  0.5387 -0.0304 -0.8958
14649TIP3   OH265437   1.215   4.818  15.813 -0.3173 -0.6271  0.4622
14649TIP3    H165438   1.256   4.903  15.824  1.5105 -1.0063 -2.3618
14649TIP3    H265439   1.122   4.833  15.830  0.0696  1.7658  0.7161
14650TIP3   OH265440   2.108   5.972   0.836 -0.2166 -0.1076  0.3308
14650TIP3    H165441   2.024   6.017   0.840 -0.2393 -0.2381  1.8841
14650TIP3    H265442   2.144   5.980   0.925  2.3001  1.5754 -0.7305
14651TIP3   OH265443   5.457   2.845  14.971 -0.1251  0.1874 -0.0827
14651TIP3    H165444   5.538   2.879  14.935 -0.1120 -0.6552 -0.8740
14651TIP3    H265445   5.458   2.752  14.951 -1.9138  0.3738 -1.3618
14652TIP3   OH265446   6.450   4.774   1.575 -0.6791 -0.3383  0.0781
14652TIP3    H165447   6.470   4.807   1.663 -1.3694 -0.0028  0.1191
14652TIP3    H265448   6.356   4.789   1.565 -0.3339  1.2166 -1.3702
14653TIP3   OH265449   4.996   1.431  11.924 -0.9009 -0.3749 -0.0001
14653TIP3    H165450   5.016   1.514  11.967  0.7300  0.8707 -2.8277
14653TIP3    H265451   4.905   1.412  11.947 -1.4862  2.4753  0.3179
14654TIP3   OH265452   1.490   1.311   0.041  0.6700 -0.0316  0.2165
14654TIP3    H165453   1.455   1.254   0.109  0.5434  1.5564  1.5202
14654TIP3    H265454   1.413   1.343  -0.006  0.7600 -1.1825 -0.7789
14655TIP3   OH265455   5.826   6.015  16.291 -0.1223  0.0984  0.4859
14655TIP3    H165456   5.862   5.987  16.207  0.7707 -0.5412  1.0632
14655TIP3    H265457   5.782   6.098  16.272  2.1789  1.2485 -0.1564
14656TIP3   OH265458   0.328   3.436  14.159 -0.3743 -0.1533 -0.1637
14656TIP3    H165459   0.248   3.452  14.208 -1.3761  0.7783 -1.9878
14656TIP3    H265460   0.398   3.471  14.213 -1.0447 -1.7161  1.8452
14657TIP3   OH265461   3.736   0.853  17.106 -0.2097  0.1295  0.3141
14657TIP3    H165462   3.735   0.894  17.020  0.6673  0.3562  0.4044
14657TIP3    H265463   3.695   0.917  17.164 -0.7763 -0.0135  0.0736
14658TIP3   OH265464   0.459   5.316  16.219  0.4044  0.3925 -0.8593
14658TIP3    H165465   0.440   5.362  16.301  1.4510 -2.3703  1.0942
14658TIP3    H265466   0.373   5.299  16.181 -0.2399  0.1314  0.6436
14659TIP3   OH265467   6.747   1.275  13.455  0.1871 -0.0508  0.4485
14659TIP3    H165468   6.752   1.368  13.432  0.0202 -0.0208  0.5257
14659TIP3    H265469   6.688   1.273  13.531  0.2311 -0.2142  0.4777
14660TIP3   OH265470   3.193   0.852   3.371  0.2020  0.2298  0.0204
14660TIP3    H165471   3.198   0.758   3.392 -1.8047  0.6133  2.9382
14660TIP3    H265472   3.132   0.857   3.297  1.2133 -0.7957 -0.9175
14661TIP3   OH265473   5.784   0.113  16.390  0.4596  0.0070 -0.2056
14661TIP3    H165474   5.764   0.049  16.321 -0.3249 -1.2602  1.1405
14661TIP3    H265475   5.874   0.094  16.415 -0.2677 -1.7539  1.3118
14662TIP3   OH265476   4.749   0.312  12.289  0.0493  0.0198 -0.0755
14662TIP3    H165477   4.670   0.362  12.264  0.8174  1.0171 -0.6093
14662TIP3    H265478   4.735   0.225  12.252 -0.5616  0.3533 -0.6517
14663TIP3   OH265479   5.415   2.348  13.515 -0.6369 -0.3358 -0.6269
14663TIP3    H165480   5.369   2.431  13.530 -0.9067 -0.5722 -0.1544
14663TIP3    H265481   5.506   2.374  13.497 -0.6694  0.0494 -0.2416
14664TIP3   OH265482   6.356   1.896   6.548  0.3181 -0.2002  0.3301
14664TIP3    H165483   6.402   1.833   6.493  0.2259 -0.9370  1.0677
14664TIP3    H265484   6.422   1.960   6.574  1.4084 -2.1248  2.6957
14665TIP3   OH265485   5.533   1.303   6.316 -0.2384  0.4561 -0.1546
14665TIP3    H165486   5.601   1.370   6.307 -0.9559  1.1020 -1.0013
14665TIP3    H265487   5.453   1.353   6.336 -0.5881 -0.2331  0.2066
14666TIP3   OH265488   3.783   1.402  10.412 -0.9388 -0.5733  0.4911
14666TIP3    H165489   3.766   1.372  10.323 -0.2566  0.1207  0.1094
14666TIP3    H265490   3.750   1.332  10.468 -1.6179 -0.8991 -0.2978
14667TIP3   OH265491   5.835   1.814  13.662  0.1602 -0.1782 -0.2130
14667TIP3    H165492   5.748   1.828  13.699  0.3145  1.4364 -0.3992
14667TIP3    H265493   5.823   1.745  13.597 -0.6279 -1.1940  0.9602
14668TIP3   OH265494   4.918   4.244   5.120 -0.2233  0.4047 -0.7868
14668TIP3    H165495   4.851   4.258   5.187  0.3983  0.1002 -0.0856
14668TIP3    H265496   4.906   4.316   5.059 -0.6642  0.8138 -0.2347
14669TIP3   OH265497   6.348   3.746  15.720  1.3389  0.5746 -0.1578
14669TIP3    H165498   6.397   3.665  15.731 -1.1610 -0.9283  0.7285
14669TIP3    H265499   6.293   3.752  15.799  0.1133  2.1435 -1.0672
14670TIP3   OH265500   0.056   6.179  17.097  0.5710 -0.5110  0.0006
14670TIP3    H165501   0.080   6.264  17.060  2.4319 -0.7089  0.6199
14670TIP3    H265502  -0.038   6.170  17.079  0.9128  0.3524 -2.6775
14671TIP3   OH265503   0.509   4.624  14.810 -0.2245  0.2328 -0.1556
14671TIP3    H165504   0.530   4.633  14.717  1.7646 -0.3761  0.1893
14671TIP3    H265505   0.493   4.531  14.823 -2.4643  0.5578 -0.2172
14672TIP3   OH265506   5.861   1.341  13.552 -0.2954 -0.5029 -0.3198
14672TIP3    H165507   5.852   1.345  13.648 -0.0190  1.9163 -0.3264
14672TIP3    H265508   5.772   1.329  13.520 -0.6298  0.4850  0.2080
14673TIP3   OH265509   5.847   5.735   3.240 -0.1398  0.8125  0.1471
14673TIP3    H165510   5.759   5.699   3.251  0.1975 -0.1271 -0.1036
14673TIP3    H265511   5.852   5.806   3.303  0.0430 -1.2319  2.6027
14674TIP3   OH265512   3.566   5.093   1.542  0.7922 -0.1468  0.2832
14674TIP3    H165513   3.569   5.082   1.637 -1.0783 -1.9653  0.1935
14674TIP3    H265514   3.577   5.005   1.507  1.3646  0.4804 -1.2221
14675TIP3   OH265515   4.763   5.888   2.483 -0.0350 -0.2049 -0.3822
14675TIP3    H165516   4.815   5.952   2.532  0.2003  0.1129 -1.0453
14675TIP3    H265517   4.743   5.820   2.548 -0.3328  0.5573  0.3298
14676TIP3   OH265518   1.558   1.143   3.704 -0.1807 -0.4673  0.2199
14676TIP3    H165519   1.471   1.177   3.682 -0.0999 -0.4012  0.0019
14676TIP3    H265520   1.607   1.220   3.733 -0.7981 -0.7979  2.3091
14677TIP3   OH265521   4.797   1.504   3.713  0.6728  0.1068 -0.4493
14677TIP3    H165522   4.707   1.534   3.702  0.9185  1.6459  1.3265
14677TIP3    H265523   4.847   1.583   3.731  1.7634 -1.0702  2.1224
14678TIP3   OH265524   4.162   6.588  16.444 -0.3495  0.2978  0.1407
14678TIP3    H165525   4.162   6.512  16.502 -0.6794  0.5368  0.4606
14678TIP3    H265526   4.122   6.556  16.363 -0.2384  0.0621  0.1778
14679TIP3   OH265527   0.271   1.297   2.905  0.3453  0.1331 -0.5961
14679TIP3    H165528   0.223   1.276   2.825 -0.4701  0.7777 -0.2876
14679TIP3    H265529   0.351   1.341   2.875  0.0612  0.3399 -1.0503
14680TIP3   OH265530   4.271   1.438   5.315  0.1566 -0.4013  0.3841
14680TIP3    H165531   4.290   1.375   5.246 -0.0194 -0.8155  0.7129
14680TIP3    H265532   4.180   1.420   5.340 -0.2804  0.7297 -0.3005
14681TIP3   OH265533   3.895   5.985  10.801  0.1304  0.3022 -0.3587
14681TIP3    H165534   3.860   5.928  10.732 -0.5798 -0.2053  0.4074
14681TIP3    H265535   3.987   5.962  10.806  0.1678  0.2662 -1.0573
14682TIP3   OH265536   3.941   5.953   3.365 -0.0821  0.2478 -0.1519
14682TIP3    H165537   3.901   5.998   3.291 -1.1619 -0.6996 -0.1718
14682TIP3    H265538   4.018   5.908   3.328 -0.5764 -0.1666 -0.6944
14683TIP3   OH265539   3.648   2.097  13.733 -0.1133  0.6040 -0.6155
14683TIP3    H165540   3.638   2.109  13.828  1.0758  0.7809 -0.5075
14683TIP3    H265541   3.711   2.163  13.707  1.0203 -0.6663 -1.2065
14684TIP3   OH265542   3.557   1.862  13.590  0.5506 -0.4516  0.4334
14684TIP3    H165543   3.567   1.945  13.636 -1.2143  0.5419 -0.8387
14684TIP3    H265544   3.645   1.837  13.565  1.1142  1.1293  0.7271
14685TIP3   OH265545   1.381   5.872   1.161 -0.5113 -0.7747 -0.5470
14685TIP3    H165546   1.354   5.815   1.233 -0.9361 -1.5701 -1.3259
14685TIP3    H265547   1.395   5.813   1.088  2.6066 -0.3513 -0.4339
14686TIP3   OH265548   6.487   4.508  16.424 -0.0089  0.0783 -0.7615
14686TIP3    H165549   6.543   4.511  16.346  1.2047 -1.3944  0.0144
14686TIP3    H265550   6.544   4.539  16.495 -1.5152  2.8361 -0.6032
14687TIP3   OH265551   4.878   1.632  13.374  0.1288  0.2600 -0.2065
14687TIP3    H165552   4.906   1.668  13.458 -0.8027  2.2661 -0.6984
14687TIP3    H265553   4.960   1.619  13.326  0.5930  0.1955  0.5825
14688TIP3   OH265554   2.076   0.821   2.110  0.4305  0.3030  0.4827
14688TIP3    H165555   2.168   0.803   2.092 -0.3489 -3.7940 -0.4822
14688TIP3    H265556   2.042   0.856   2.027  1.1444  2.3818  1.0183
14689TIP3   OH265557   2.549   1.373   2.863  0.2456  0.2956  0.8309
14689TIP3    H165558   2.607   1.433   2.816 -0.5762  0.6162  0.1841
14689TIP3    H265559   2.571   1.287   2.829 -0.4338  0.5387 -0.2793
14690TIP3   OH265560   0.385   0.377  13.001  0.0600  0.1144 -0.0537
14690TIP3    H165561   0.291   0.379  12.985 -0.0377 -1.3883  0.2396
14690TIP3    H265562   0.398   0.435  13.076 -0.3974  1.5797 -1.0540
14691TIP3   OH265563   4.386   3.066   1.140 -0.3613 -0.1267 -0.0432
14691TIP3    H165564   4.478   3.087   1.120  0.1420 -1.1997  1.0317
14691TIP3    H265565   4.346   3.052   1.054  0.4682  0.3644 -0.5325
14692TIP3   OH265566   2.410   2.970  10.736 -0.3206 -0.0788  0.1183
14692TIP3    H165567   2.412   2.878  10.708  1.9742 -0.5567  1.5669
14692TIP3    H265568   2.501   2.999  10.731 -1.1522  2.6332 -1.6752
14693TIP3   OH265569   3.851   4.769  11.543  0.2672 -0.0508  0.3732
14693TIP3    H165570   3.850   4.763  11.447 -0.8058  1.4060  0.2465
14693TIP3    H265571   3.942   4.750  11.567  0.4166 -1.0716 -0.8661
14694TIP3   OH265572   6.760   0.981  17.160 -0.4567  0.4477 -0.4372
14694TIP3    H165573   6.754   1.061  17.211 -1.1144 -0.2115  0.5730
14694TIP3    H265574   6.844   0.987  17.114  1.0206  0.3533  2.0295
14695TIP3   OH265575   2.857   3.450   2.381 -0.3076  0.1265 -0.1103
14695TIP3    H165576   2.777   3.407   2.351  1.8343 -2.5885 -2.4412
14695TIP3    H265577   2.870   3.415   2.470 -2.3916  1.8224  0.9626
14696TIP3   OH265578   1.482   0.372  16.848  0.1271 -0.1735 -0.2364
14696TIP3    H165579   1.407   0.314  16.836  0.5649 -1.1765  1.5137
14696TIP3    H265580   1.550   0.316  16.885 -0.0693  1.7277  3.4667
14697TIP3   OH265581   6.634   3.710   1.847  0.4857 -0.0007  0.6108
14697TIP3    H165582   6.710   3.766   1.833 -0.2113  1.0779  1.0409
14697TIP3    H265583   6.578   3.724   1.771  0.2852 -0.0755  0.7418
14698TIP3   OH265584   2.359   4.472  16.969  0.0119  0.0140  0.2336
14698TIP3    H165585   2.374   4.409  16.898  0.3606 -0.5179  0.7666
14698TIP3    H265586   2.403   4.433  17.044 -0.6430  0.4118  0.8286
14699TIP3   OH265587   3.968   6.284   3.843  0.1091  0.3869 -0.1157
14699TIP3    H165588   3.899   6.319   3.787 -0.2070  0.2904  0.2067
14699TIP3    H265589   4.045   6.280   3.787 -0.0174  0.9797 -0.3327
14700TIP3   OH265590   5.018   3.880  15.207  0.4140  0.2402  0.4656
14700TIP3    H165591   4.955   3.818  15.169 -0.4172  0.3622  1.6127
14700TIP3    H265592   5.088   3.824  15.241  0.7856  0.0847 -0.5094
14701TIP3   OH265593   3.884   5.521  12.155  0.0426 -0.2289  0.0245
14701TIP3    H165594   3.934   5.522  12.236  0.1558 -0.2812 -0.0441
14701TIP3    H265595   3.873   5.428  12.135 -0.5898 -0.2295  0.3509
14702TIP3   OH265596   6.029   1.369  11.908 -0.5544  0.0835  0.2588
14702TIP3    H165597   6.004   1.427  11.836 -0.4982 -0.5515 -0.2820
14702TIP3    H265598   5.967   1.296  11.902  1.1083 -1.3156 -0.8399
14703TIP3   OH265599   1.347   4.210   0.840  0.4548 -0.4274 -0.4839
14703TIP3    H165600   1.354   4.272   0.767  0.2110  0.3911  0.1676
14703TIP3    H265601   1.437   4.202   0.872  0.5646 -0.7975 -0.8765
14704TIP3   OH265602   3.924   1.285  12.212 -0.3857  0.4336  0.1938
14704TIP3    H165603   3.991   1.220  12.191  1.2235  1.1155  2.7142
14704TIP3    H265604   3.896   1.320  12.127  1.5666 -0.7637 -1.0101
14705TIP3   OH265605   6.687   6.070   2.650  0.3825  0.1978  0.1609
14705TIP3    H165606   6.702   5.994   2.595  0.7623 -0.7639  1.5465
14705TIP3    H265607   6.704   6.040   2.739  1.3464  2.1136  0.6883
14706TIP3   OH265608   3.634   5.784   6.080  0.0149  0.3139 -0.0692
14706TIP3    H165609   3.703   5.767   6.144  0.5233 -0.4243 -0.8045
14706TIP3    H265610   3.561   5.816   6.133  0.0713 -1.2452  1.0293
14707TIP3   OH265611   5.330   3.679  16.535  0.5076 -0.2468  0.2671
14707TIP3    H165612   5.314   3.600  16.483  1.6825 -0.6146  0.4355
14707TIP3    H265613   5.356   3.646  16.621  0.6950  0.3233  0.4312
14708TIP3   OH265614   2.954   4.194  15.137 -0.3800  0.2390  0.4313
14708TIP3    H165615   2.873   4.212  15.090  1.1501  1.9115 -1.8001
14708TIP3    H265616   2.965   4.099  15.132 -1.7868  0.0816  0.0599
14709TIP3   OH265617   1.735   2.800   3.742  0.4950  0.4428 -0.3260
14709TIP3    H165618   1.676   2.872   3.765  0.0906 -0.0288  0.1408
14709TIP3    H265619   1.765   2.766   3.826  1.1783  0.4694 -0.5560
14710TIP3   OH265620   3.939   5.395   2.932 -0.1151  0.2841  0.3064
14710TIP3    H165621   3.847   5.418   2.916 -0.4021 -1.7634 -1.6073
14710TIP3    H265622   3.972   5.369   2.845  1.3637 -1.9006  1.4147
14711TIP3   OH265623   6.338   0.753   6.196 -0.3638 -0.0223  0.2016
14711TIP3    H165624   6.254   0.798   6.207 -0.8667 -1.0682  0.7977
14711TIP3    H265625   6.401   0.808   6.243 -0.9292  0.1872  0.7354
14712TIP3   OH265626   1.450   1.022   0.247  0.5341  0.0460 -0.5147
14712TIP3    H165627   1.422   1.107   0.280 -0.1968  0.6759 -2.5663
14712TIP3    H265628   1.397   1.009   0.168  0.0714 -2.6653  0.1305
14713TIP3   OH265629   0.745   2.340   2.755  0.0417  0.8499 -0.5232
14713TIP3    H165630   0.650   2.335   2.754 -0.0351  1.0221  1.2864
14713TIP3    H265631   0.771   2.275   2.821  1.0534  1.9119  0.1560
14714TIP3   OH265632   5.182   5.650   0.499 -0.2435  0.0488 -0.4605
14714TIP3    H165633   5.182   5.634   0.405 -1.8313 -1.6775 -0.2221
14714TIP3    H265634   5.182   5.563   0.539 -0.2118  0.7351  1.1398
14715TIP3   OH265635   4.182   6.708  13.144  0.9074 -0.3135  0.1009
14715TIP3    H165636   4.172   6.626  13.193  0.2543 -1.7672 -2.3085
14715TIP3    H265637   4.100   6.716  13.095  1.0862  1.6703  0.0701
14716TIP3   OH265638   5.301   0.915   2.478  0.1061 -0.1078 -0.2959
14716TIP3    H165639   5.293   0.832   2.525  2.3960  0.5537  1.3910
14716TIP3    H265640   5.279   0.981   2.543 -1.5622  0.6839 -1.5877
14717TIP3   OH265641   3.905   5.043  16.657 -0.0461  0.0706  0.6836
14717TIP3    H165642   3.987   4.993  16.651  0.4610  0.5563  2.7542
14717TIP3    H265643   3.920   5.103  16.730 -1.7265  1.2018  0.1277
14718TIP3   OH265644   1.594   6.754  13.094  0.3052 -0.5532 -0.3430
14718TIP3    H165645   1.676   6.783  13.136  0.8983 -1.0917 -1.1005
14718TIP3    H265646   1.613   6.756  13.001 -0.8410  0.1421 -0.5843
14719TIP3   OH265647   0.310   1.527  12.477 -0.0120  0.5533 -0.0729
14719TIP3    H165648   0.268   1.601  12.521 -0.8626 -0.0847  0.2017
14719TIP3    H265649   0.368   1.568  12.412 -0.8161  1.4631 -0.2425
14720TIP3   OH265650   2.908   6.557   5.714 -0.2001  0.3359 -0.0434
14720TIP3    H165651   2.868   6.529   5.796  1.1341  0.2089  0.5890
14720TIP3    H265652   2.856   6.514   5.646 -0.3254 -0.8797  0.7849
14721TIP3   OH265653   2.270   3.563  16.155  0.2807  0.1243 -0.5429
14721TIP3    H165654   2.269   3.558  16.250  0.5608  0.9465 -0.4883
14721TIP3    H265655   2.319   3.485  16.127 -0.0030 -0.2412 -0.0319
14722TIP3   OH265656   4.419   5.513  11.756 -0.3236 -0.5568  0.2817
14722TIP3    H165657   4.334   5.501  11.714 -0.7850 -0.4668  1.1787
14722TIP3    H265658   4.426   5.440  11.818 -0.6777  0.6007  1.7252
14723TIP3   OH265659   2.039   1.008   4.610  0.0478  0.1421  0.2591
14723TIP3    H165660   2.080   0.925   4.586  1.8814  0.9371  0.5304
14723TIP3    H265661   1.992   0.988   4.691 -0.0010 -0.7627  0.0172
14724TIP3   OH265662   5.071   6.154  14.239  0.2939  0.0141  0.3019
14724TIP3    H165663   5.066   6.128  14.331  0.2629 -0.5824  0.1343
14724TIP3    H265664   5.165   6.161  14.221  0.3576 -1.4123 -0.0364
14725TIP3   OH265665   4.175   5.526   0.888 -0.7111 -0.2763 -0.6789
14725TIP3    H165666   4.191   5.472   0.810 -1.9586 -0.3351 -0.9268
14725TIP3    H265667   4.141   5.465   0.953  0.1807 -0.1977 -0.1299
14726TIP3   OH265668   3.286   4.098   1.434  0.1581  1.2617 -0.7577
14726TIP3    H165669   3.203   4.104   1.385 -0.3379 -0.6963 -0.2413
14726TIP3    H265670   3.299   4.004   1.448 -0.0348  1.6484  3.3163
14727TIP3   OH265671   4.068   3.766  14.562  0.3257  0.2362  0.1862
14727TIP3    H165672   4.050   3.841  14.620  1.6598  0.7838 -0.0967
14727TIP3    H265673   4.120   3.802  14.491  2.0595 -1.1639  0.6737
14728TIP3   OH265674   1.933   3.779  16.390 -0.3778  0.3256  0.3047
14728TIP3    H165675   1.887   3.736  16.462 -1.7954 -0.7681 -1.1648
14728TIP3    H265676   1.896   3.739  16.311  1.3621  1.2208 -1.0337
14729TIP3   OH265677   1.700   1.144  14.156  0.6474  0.3782  0.0371
14729TIP3    H165678   1.651   1.093  14.221 -2.6275  1.1804 -1.5866
14729TIP3    H265679   1.789   1.109  14.161 -0.3619 -2.2906  2.1804
14730TIP3   OH265680   2.766   2.502   5.761 -0.1011  0.5483 -0.1765
14730TIP3    H165681   2.712   2.423   5.761  0.5577  0.0088 -2.6718
14730TIP3    H265682   2.836   2.484   5.824 -1.5422  0.3808  1.4442
14731TIP3   OH265683   4.749   0.518  12.704  0.4009 -0.5719  0.3478
14731TIP3    H165684   4.690   0.571  12.758  0.2413 -0.8455  0.4401
14731TIP3    H265685   4.719   0.535  12.614  0.6316 -0.1616  0.3439
14732TIP3   OH265686   1.120   6.437  14.565  0.5171  0.4555 -0.0828
14732TIP3    H165687   1.214   6.419  14.555  0.2473 -0.6640 -0.8319
14732TIP3    H265688   1.082   6.414  14.480 -0.5947 -0.1721  0.5551
14733TIP3   OH265689   4.169   0.769  14.849 -0.3802 -0.7204 -0.2747
14733TIP3    H165690   4.075   0.756  14.838 -0.4463 -1.7471  1.2387
14733TIP3    H265691   4.184   0.862  14.828 -2.1264  0.0991  1.7954
14734TIP3   OH265692   6.817   3.821  15.483  0.2667 -0.2955 -0.4354
14734TIP3    H165693   6.814   3.726  15.486  1.7180 -0.3540 -0.3038
14734TIP3    H265694   6.898   3.842  15.436 -0.5136  0.8749 -1.3271
14735TIP3   OH265695   4.381   3.369  12.368  0.0308  0.0496  0.0244
14735TIP3    H165696   4.442   3.334  12.304  1.8646  0.3667  1.5081
14735TIP3    H265697   4.343   3.292  12.410  0.3888 -0.1591 -0.0351
14736TIP3   OH265698   2.761   0.371  16.095 -0.0607 -0.0191 -0.5897
14736TIP3    H165699   2.666   0.379  16.104  0.1607  0.7023  1.6642
14736TIP3    H265700   2.786   0.305  16.159  1.1553  1.3779  0.4493
14737TIP3   OH265701   3.072   3.412   0.370  0.1588  0.0263 -0.0994
14737TIP3    H165702   3.144   3.470   0.347  1.8187 -1.8955  0.0510
14737TIP3    H265703   3.049   3.367   0.289  0.5706 -0.8940  0.2811
14738TIP3   OH265704   3.195   0.845  13.092  0.2071 -0.5706 -0.0159
14738TIP3    H165705   3.227   0.917  13.146  0.9066  0.1874 -1.3931
14738TIP3    H265706   3.105   0.832  13.120  0.6685 -0.4989  1.6156
14739TIP3   OH265707   3.166   6.551  12.134  0.5198 -0.4002  0.2159
14739TIP3    H165708   3.168   6.615  12.063 -0.8432  0.0834  0.5894
14739TIP3    H265709   3.134   6.600  12.210  0.0547 -1.3719  0.6664
14740TIP3   OH265710   2.369   6.823   4.482 -0.3324 -0.2338 -0.3881
14740TIP3    H165711   2.410   6.743   4.515  2.0352  1.6282  1.5837
14740TIP3    H265712   2.402   6.832   4.393  1.4606 -0.2108  0.2382
14741TIP3   OH265713   4.544   5.857  11.223  0.0642  0.2336 -0.3736
14741TIP3    H165714   4.492   5.930  11.257  1.0139  1.2282 -0.9967
14741TIP3    H265715   4.635   5.882  11.240  0.5294  0.2753 -2.5948
14742TIP3   OH265716   4.516   3.763  15.986 -0.7001  0.3533  0.5244
14742TIP3    H165717   4.500   3.857  15.990 -1.3002  0.5085 -2.7004
14742TIP3    H265718   4.601   3.755  15.941  0.2010 -0.6828  2.2844
14743TIP3   OH265719   1.232   6.122  16.858  0.3576  0.2594 -0.7185
14743TIP3    H165720   1.185   6.045  16.827  2.6844 -0.4857 -2.6697
14743TIP3    H265721   1.301   6.088  16.914  0.8575  0.9928 -0.8647
14744TIP3   OH265722   1.954   0.951   4.919  0.2321  0.3575 -0.0665
14744TIP3    H165723   1.909   1.033   4.941 -0.7352 -0.9635  3.6230
14744TIP3    H265724   1.886   0.896   4.882 -0.7796 -0.7182  3.0661
14745TIP3   OH265725   4.394   4.490   3.767 -0.7878  0.4259  0.2512
14745TIP3    H165726   4.387   4.584   3.786 -0.7281  0.0837  2.1386
14745TIP3    H265727   4.453   4.486   3.691 -0.7871  1.9013  0.1345
14746TIP3   OH265728   5.119   0.228   5.192  0.1194  0.4146  0.0693
14746TIP3    H165729   5.203   0.273   5.193  0.3146  0.0640 -0.3098
14746TIP3    H265730   5.141   0.135   5.192 -0.2956  0.2925  1.9126
14747TIP3   OH265731   1.502   0.873  13.859 -0.6968 -0.6020 -0.4410
14747TIP3    H165732   1.458   0.844  13.779  0.4297  1.6731 -2.0227
14747TIP3    H265733   1.458   0.955  13.882  1.4704  0.8534 -1.1031
14748TIP3   OH265734   3.579   4.444  15.148  0.0400 -0.0049 -0.5123
14748TIP3    H165735   3.528   4.524  15.143  1.0693  0.6020 -1.7655
14748TIP3    H265736   3.618   4.434  15.061  2.1851 -0.3349  0.4110
14749TIP3   OH265737   0.054   5.422  13.686 -0.6223 -0.4005  0.2173
14749TIP3    H165738   0.055   5.402  13.780 -1.9042 -1.8274 -0.0346
14749TIP3    H265739  -0.040   5.428  13.665 -0.3460 -0.2557 -1.0014
14750TIP3   OH265740   5.561   3.346  12.948  0.1840  0.1516  0.1243
14750TIP3    H165741   5.571   3.422  13.006  0.2459 -0.7347  1.3128
14750TIP3    H265742   5.499   3.375  12.881  0.4511  1.3476  0.3671
14751TIP3   OH265743   3.525   1.696   4.036  0.1454 -0.0578  0.0903
14751TIP3    H165744   3.433   1.719   4.034  0.5815  1.8542  0.2061
14751TIP3    H265745   3.568   1.770   4.079  1.9515  0.0314 -1.6927
14752TIP3   OH265746   5.596   0.701   5.513 -0.1281 -0.0086  0.4741
14752TIP3    H165747   5.684   0.679   5.543  0.2982  0.6592 -0.2323
14752TIP3    H265748   5.602   0.793   5.487 -1.5882  0.7150  2.4485
14753TIP3   OH265749   6.491   3.664   4.344 -0.6273 -0.4701  0.1171
14753TIP3    H165750   6.541   3.652   4.263  0.0122 -1.7907  0.6807
14753TIP3    H265751   6.542   3.619   4.411 -3.2094 -3.1736  0.4666
14754TIP3   OH265752   4.232   3.371  13.671 -0.1500 -0.0705  0.0090
14754TIP3    H165753   4.225   3.298  13.609 -0.2605 -1.6801  1.8301
14754TIP3    H265754   4.141   3.389  13.695  0.0003 -0.8672  1.2379
14755TIP3   OH265755   5.158   6.271   2.555 -0.0414 -0.0424 -0.1279
14755TIP3    H165756   5.224   6.274   2.624  0.2625 -0.2627 -0.4076
14755TIP3    H265757   5.099   6.344   2.575 -0.2662 -0.4289  0.6726
14756TIP3   OH265758   3.860   5.076   3.553 -0.0056 -0.3423  0.1484
14756TIP3    H165759   3.906   5.132   3.615  0.1841  0.2131 -0.4812
14756TIP3    H265760   3.929   5.020   3.516  0.0804  0.0859 -0.3603
14757TIP3   OH265761   0.032   0.422  14.711 -0.7579  0.2240  0.3369
14757TIP3    H165762   0.117   0.466  14.713 -0.3727 -0.3929 -1.1040
14757TIP3    H265763   0.004   0.428  14.620 -0.8705 -2.1123  0.1427
14758TIP3   OH265764   5.259   2.692  11.763 -0.2227 -0.3482 -0.0905
14758TIP3    H165765   5.223   2.644  11.838  1.0306 -1.2651 -0.0419
14758TIP3    H265766   5.183   2.710  11.707 -1.0640 -0.2765  1.0530
14759TIP3   OH265767   4.468   3.216  14.822  0.0877 -0.5878  0.6109
14759TIP3    H165768   4.477   3.152  14.893  0.3129 -0.9437  0.2681
14759TIP3    H265769   4.391   3.268  14.846 -0.2789 -1.1830  0.7454
14760TIP3   OH265770   4.765   3.660   2.307 -0.3187 -0.2473  0.7225
14760TIP3    H165771   4.852   3.697   2.319 -0.0790 -0.9264  1.1089
14760TIP3    H265772   4.717   3.684   2.386 -0.0585 -1.0321  1.1314
14761TIP3   OH265773   1.791   3.777   2.525  0.7797  0.2711  0.1171
14761TIP3    H165774   1.802   3.703   2.465 -0.1584 -2.6185  3.2071
14761TIP3    H265775   1.697   3.795   2.524  0.9279  1.0655 -0.1791
14762TIP3   OH265776   5.538   3.558   4.568  0.4198 -0.2286 -0.5737
14762TIP3    H165777   5.628   3.528   4.563  0.2095 -0.7572 -1.5033
14762TIP3    H265778   5.509   3.535   4.656  2.2003  2.9850  1.0211
14763TIP3   OH265779   6.555   1.536   1.782 -0.4851  0.2640 -0.5535
14763TIP3    H165780   6.461   1.547   1.795 -0.2248  0.3480  1.7505
14763TIP3    H265781   6.592   1.622   1.801  0.2041 -0.3225  0.9240
14764TIP3   OH265782   4.276   3.234   0.650 -0.1768  0.2460  0.2024
14764TIP3    H165783   4.302   3.322   0.678 -0.5492  1.0637 -1.8182
14764TIP3    H265784   4.353   3.199   0.605 -0.1971 -0.2741  0.5618
14765TIP3   OH265785   6.150   5.080  12.487  0.1074  0.2024  0.2748
14765TIP3    H165786   6.233   5.082  12.535 -0.0629  0.3605  0.5632
14765TIP3    H265787   6.143   4.990  12.455 -0.2830 -0.1827  1.4200
14766TIP3   OH265788   6.749   3.338   0.749  0.1696 -0.1872  0.1758
14766TIP3    H165789   6.776   3.262   0.801 -1.1505  0.6404  2.1825
14766TIP3    H265790   6.707   3.300   0.672  1.6179 -1.4576 -0.0524
14767TIP3   OH265791   5.591   4.500  11.947  0.5819 -0.3184  0.5911
14767TIP3    H165792   5.656   4.469  11.883  0.2756 -1.1214  0.6675
14767TIP3    H265793   5.644   4.543  12.014  0.8493  1.6473 -0.7717
14768TIP3   OH265794   1.605   0.911   5.199  0.6553  0.5382 -0.1253
14768TIP3    H165795   1.586   0.904   5.293  3.1987  1.2331  0.5301
14768TIP3    H265796   1.611   1.005   5.182 -0.7730  0.4552 -1.2555
14769TIP3   OH265797   6.293   1.597  11.114  0.3348 -0.1712  0.2353
14769TIP3    H165798   6.377   1.552  11.117  0.8099  0.6356 -0.3484
14769TIP3    H265799   6.289   1.634  11.026 -1.2212 -1.2722 -0.1992
14770TIP3   OH265800   0.179   1.838   0.863 -0.2743 -0.1616  0.1262
14770TIP3    H165801   0.142   1.851   0.951  0.4918  0.1453  0.4156
14770TIP3    H265802   0.155   1.749   0.840  1.0616 -0.8925  1.4256
14771TIP3   OH265803   0.921   4.392  15.089  0.0375  0.1529 -0.1154
14771TIP3    H165804   0.958   4.375  15.176 -0.1969 -0.7015 -0.1794
14771TIP3    H265805   0.978   4.461  15.053 -0.3133  1.0596  0.9933
14772TIP3   OH265806   5.409   2.569  14.936  0.1941 -0.4030  0.4147
14772TIP3    H165807   5.478   2.515  14.973 -0.8951 -1.1564  1.4360
14772TIP3    H265808   5.337   2.507  14.918 -0.3022  0.3851 -0.3947
14773TIP3   OH265809   2.114   5.893   3.861 -0.1345  0.1896  0.0165
14773TIP3    H165810   2.126   5.907   3.767  0.1199 -0.9443 -0.1377
14773TIP3    H265811   2.196   5.920   3.900  0.2959 -0.6740 -0.2573
14774TIP3   OH265812   3.029   0.071  14.329 -0.3220 -0.5166 -0.1264
14774TIP3    H165813   2.968   0.116  14.271 -1.0095  0.4178  1.2733
14774TIP3    H265814   2.982   0.062  14.412  0.9939 -0.8989  0.6176
14775TIP3   OH265815   5.474   2.312  11.320  0.0418  0.0442 -0.5860
14775TIP3    H165816   5.422   2.294  11.242 -3.0040  0.9560  1.1030
14775TIP3    H265817   5.448   2.244  11.382  1.8317 -0.1907 -0.0384
14776TIP3   OH265818   4.093   2.386  15.172 -0.2688  0.2584 -0.2900
14776TIP3    H165819   4.135   2.471  15.158 -1.2544  0.7191 -0.5504
14776TIP3    H265820   4.150   2.323  15.126 -0.6320  1.0609 -1.9211
14777TIP3   OH265821   0.958   4.613   6.062  0.1317 -0.3701  0.2463
14777TIP3    H165822   0.972   4.522   6.088 -0.4640 -0.5432 -0.0141
14777TIP3    H265823   1.010   4.624   5.983 -1.1998 -1.0311 -0.7636
14778TIP3   OH265824   1.232   4.486   1.651 -0.2844 -0.2912 -0.0273
14778TIP3    H165825   1.239   4.401   1.608  0.7484  0.3329 -1.1624
14778TIP3    H265826   1.283   4.477   1.731 -0.4465 -0.8281  0.0223
14779TIP3   OH265827   1.078   1.490   3.951  0.1893 -0.1230 -0.3082
14779TIP3    H165828   1.097   1.440   3.871 -0.0958 -1.0055  0.1661
14779TIP3    H265829   1.007   1.442   3.993 -0.0815  0.6783  0.1773
14780TIP3   OH265830   5.008   3.449   4.575  0.4113  0.0435  0.1900
14780TIP3    H165831   5.091   3.443   4.527  0.3007 -0.4015  0.0535
14780TIP3    H265832   4.952   3.503   4.519 -0.4479 -2.2204 -1.2607
14781TIP3   OH265833   1.025   2.435  12.352 -0.0166  0.2635  0.4939
14781TIP3    H165834   1.091   2.387  12.403 -0.2404 -3.7439 -2.5219
14781TIP3    H265835   1.068   2.454  12.269 -1.5950  0.7708 -0.2416
14782TIP3   OH265836   5.148   2.976  16.296 -0.6320  0.0332 -0.6174
14782TIP3    H165837   5.151   2.982  16.392 -1.6001  0.7162 -0.6236
14782TIP3    H265838   5.234   3.007  16.268  0.1920 -1.5158  0.0807
14783TIP3   OH265839   4.184   1.471  12.099 -0.2693 -0.4960 -0.0018
14783TIP3    H165840   4.089   1.484  12.094 -0.0463  0.8986 -1.5537
14783TIP3    H265841   4.195   1.392  12.152 -2.4071 -2.1029 -1.7736
14784TIP3   OH265842   5.615   2.742  12.556  0.1050 -0.5315 -0.4070
14784TIP3    H165843   5.618   2.658  12.603  0.0492 -0.5148 -0.3742
14784TIP3    H265844   5.687   2.793  12.593  0.4130 -0.7239 -0.7272
14785TIP3   OH265845   2.672   3.176   0.159 -0.0975  0.0444 -0.1263
14785TIP3    H165846   2.731   3.210   0.092  0.0999 -0.9758 -0.4865
14785TIP3    H265847   2.584   3.195   0.125 -0.0308 -1.4927 -1.2708
14786TIP3   OH265848   3.370   1.037   3.849 -0.1093  0.2792 -0.1281
14786TIP3    H165849   3.465   1.040   3.860 -0.0690  1.6694 -0.6886
14786TIP3    H265850   3.358   0.989   3.767  0.1037  0.0167 -0.0084
14787TIP3   OH265851   6.509   2.284   1.434  0.5696  0.1880 -0.5598
14787TIP3    H165852   6.530   2.278   1.341  0.9169 -0.1465 -0.4636
14787TIP3    H265853   6.466   2.201   1.454 -0.4771  0.6866 -0.6558
14788TIP3   OH265854   1.185   0.429  13.820 -0.4306  0.6010 -0.3318
14788TIP3    H165855   1.143   0.397  13.740 -2.0546 -1.1983  1.1413
14788TIP3    H265856   1.115   0.433  13.884  1.0884  0.4654  1.4326
14789TIP3   OH265857   2.451   5.539  15.114 -0.3954  0.2540  0.0313
14789TIP3    H165858   2.395   5.616  15.109 -1.3161 -0.3374  0.9396
14789TIP3    H265859   2.439   5.506  15.203  2.0829  0.6081  0.5725
14790TIP3   OH265860   0.804   4.176   3.822 -0.2601 -0.3738 -0.1844
14790TIP3    H165861   0.854   4.256   3.807 -2.4972  0.7492 -2.5690
14790TIP3    H265862   0.798   4.169   3.917  3.5556 -0.1501  0.2144
14791TIP3   OH265863   1.245   4.533   6.058 -0.2283 -0.4930 -0.4290
14791TIP3    H165864   1.329   4.525   6.103 -0.4190  1.6996  0.4457
14791TIP3    H265865   1.258   4.488   5.974  2.2071  0.7418 -0.8051
14792TIP3   OH265866   1.337   5.827   4.930 -0.2596  0.6767 -0.1733
14792TIP3    H165867   1.374   5.878   4.859  1.4521 -0.4793 -0.1704
14792TIP3    H265868   1.394   5.844   5.005  1.8184 -2.8405 -0.7311
14793TIP3   OH265869   3.943   5.784   4.009  0.0840  0.8051 -0.2075
14793TIP3    H165870   3.890   5.753   4.082 -1.1483 -0.0927 -1.4202
14793TIP3    H265871   4.000   5.851   4.046  0.2480 -0.3710  1.7729
14794TIP3   OH265872   3.957   3.210   1.612  0.7568 -0.3422  0.3716
14794TIP3    H165873   3.914   3.245   1.690 -0.6342  0.5579 -0.7708
14794TIP3    H265874   3.891   3.156   1.570  0.5539  1.2908 -1.5623
14795TIP3   OH265875   5.206   5.362  11.559 -0.2017 -0.1332  0.0984
14795TIP3    H165876   5.198   5.445  11.512 -0.4653 -0.4530 -0.4320
14795TIP3    H265877   5.288   5.324  11.527 -1.0427 -0.9857 -1.1637
14796TIP3   OH265878   3.070   3.741  12.221 -0.6897  0.1099 -0.0301
14796TIP3    H165879   2.989   3.791  12.237  1.0815  3.0433  0.5982
14796TIP3    H265880   3.132   3.806  12.189  1.4593 -2.0460 -0.5174
14797TIP3   OH265881   4.556   1.672  15.008  0.0160  0.3314  0.3278
14797TIP3    H165882   4.603   1.591  15.027 -0.8418 -0.3357 -0.3269
14797TIP3    H265883   4.467   1.644  14.987 -1.6051  1.7323  4.3608
14798TIP3   OH265884   0.791   3.617  16.788  0.6598  0.2676  0.2746
14798TIP3    H165885   0.744   3.579  16.714  2.2260  2.0047 -1.7394
14798TIP3    H265886   0.814   3.542  16.843 -2.0116 -0.9068 -0.0512
14799TIP3   OH265887   2.378   1.554   5.587 -0.3364 -0.3030 -0.2447
14799TIP3    H165888   2.336   1.534   5.503  0.3441 -0.7257 -0.5019
14799TIP3    H265889   2.341   1.491   5.649 -2.3718  1.3254  0.2855
14800TIP3   OH265890   3.239   1.488  10.457 -0.6485  0.1197  0.1036
14800TIP3    H165891   3.317   1.483  10.511 -1.8424  0.7366  1.9631
14800TIP3    H265892   3.244   1.575  10.416 -0.2429  0.0552  0.0145
14801TIP3   OH265893   0.069   0.509  16.206 -0.6024  0.4693 -0.3996
14801TIP3    H165894   0.011   0.460  16.263  0.1300 -1.8183 -1.5162
14801TIP3    H265895   0.129   0.554  16.265 -0.9985 -0.3706  0.6675
14802TIP3   OH265896   6.487   6.546  12.520  0.2434  1.0279  0.8905
14802TIP3    H165897   6.396   6.515  12.524  0.1901  1.3068  1.9981
14802TIP3    H265898   6.505   6.555  12.426 -0.7371  0.5820  0.6476
14803TIP3   OH265899   3.111   1.180   3.784 -0.1351  0.0630  0.8328
14803TIP3    H165900   3.118   1.260   3.836 -1.1193  0.6858  0.0341
14803TIP3    H265901   3.201   1.147   3.779  0.6135  2.1485 -0.4189
14804TIP3   OH265902   3.786   4.580  16.895  0.9044 -0.3189 -0.4613
14804TIP3    H165903   3.873   4.616  16.909  0.5778  0.1137  0.5688
14804TIP3    H265904   3.798   4.485  16.897  0.9072 -0.3796  3.2627
14805TIP3   OH265905   2.380   2.455   4.752 -0.6008  0.0160  0.4620
14805TIP3    H165906   2.386   2.362   4.730 -1.3796 -0.0312  0.4178
14805TIP3    H265907   2.471   2.486   4.752 -0.5234  0.1741 -3.3427
14806TIP3   OH265908   0.256   5.038  16.352 -0.1685 -0.0732 -0.0823
14806TIP3    H165909   0.200   5.115  16.349 -1.2639 -0.8380  0.2917
14806TIP3    H265910   0.314   5.053  16.427 -0.6943  0.1651  0.2790
14807TIP3   OH265911   4.973   5.242  11.447  0.0397  0.7906 -0.4809
14807TIP3    H165912   4.983   5.246  11.352 -0.2477 -1.5396 -0.6660
14807TIP3    H265913   5.046   5.294  11.481  1.4459 -0.0947 -1.9758
14808TIP3   OH265914   2.235   4.669  12.431  0.4220  0.2809 -0.4608
14808TIP3    H165915   2.256   4.678  12.338  1.6837 -0.8902 -0.3304
14808TIP3    H265916   2.284   4.739  12.474 -0.8308  1.3525 -0.7382
14809TIP3   OH265917   0.197   3.277  16.856  0.2986 -0.1740 -0.7293
14809TIP3    H165918   0.128   3.343  16.856 -0.2693 -0.7207  0.7112
14809TIP3    H265919   0.249   3.296  16.778 -0.4585  1.3154 -0.9018
14810TIP3   OH265920   3.291   4.928  14.982  0.1999 -0.1697 -0.4496
14810TIP3    H165921   3.245   4.846  14.997  2.3211 -1.0432  1.9665
14810TIP3    H265922   3.321   4.923  14.891 -0.6942 -1.4794 -0.6963
14811TIP3   OH265923   5.147   0.476   5.009  0.2473  0.1201 -0.2706
14811TIP3    H165924   5.132   0.424   5.088  1.1970  0.9672  0.4845
14811TIP3    H265925   5.129   0.566   5.035  2.6918  0.7027 -0.3618
14812TIP3   OH265926   2.779   0.727  14.884 -0.4793 -0.0136  0.5519
14812TIP3    H165927   2.762   0.811  14.841 -1.1354 -0.0410  0.7446
14812TIP3    H265928   2.692   0.692  14.903 -0.2004 -0.2011  1.5082
14813TIP3   OH265929   3.128   1.274   5.152  0.3127  0.7284  0.2654
14813TIP3    H165930   3.114   1.284   5.058  1.6983  0.8503  0.0453
14813TIP3    H265931   3.058   1.216   5.182  1.1021 -1.0974 -1.2418
14814TIP3   OH265932   1.278   2.015  13.316  0.2011  0.0709 -0.4616
14814TIP3    H165933   1.263   1.945  13.252  1.1515 -0.1878 -0.4075
14814TIP3    H265934   1.190   2.041  13.343 -0.1788 -0.7359 -0.8823
14815TIP3   OH265935   6.722   1.855  16.269  0.6458  0.3017 -0.0078
14815TIP3    H165936   6.636   1.874  16.305  0.6546 -0.1666  0.2586
14815TIP3    H265937   6.719   1.763  16.245 -0.0878  1.0406 -3.1964
14816TIP3   OH265938   3.121   3.244  14.922 -0.1178  0.5231 -0.5718
14816TIP3    H165939   3.056   3.296  14.875  0.6458  0.0876 -2.1705
14816TIP3    H265940   3.180   3.308  14.961 -0.7010  0.8901 -0.2820
14817TIP3   OH265941   5.669   2.174   0.821  0.1144 -0.5543  0.6154
14817TIP3    H165942   5.683   2.265   0.844  0.2953 -0.7142  1.1646
14817TIP3    H265943   5.648   2.175   0.728 -1.1913  0.1769  0.8951
14818TIP3   OH265944   4.560   3.511   2.941 -0.0548 -0.1449 -0.1118
14818TIP3    H165945   4.549   3.601   2.972  0.8899 -0.1743  0.3534
14818TIP3    H265946   4.533   3.514   2.849 -1.9129  0.1703  0.3971
14819TIP3   OH265947   2.671   3.672  12.030  0.5233 -0.2840 -0.7889
14819TIP3    H165948   2.682   3.728  11.953 -1.3798  4.4702  1.9186
14819TIP3    H265949   2.587   3.628  12.016  0.4674  0.0781 -1.6542
14820TIP3   OH265950   3.594   2.065   4.204  0.0564  0.4494 -0.0317
14820TIP3    H165951   3.570   1.988   4.254 -1.7762  1.6820  1.0770
14820TIP3    H265952   3.560   2.139   4.254  1.0932  1.9543 -1.4243
14821TIP3   OH265953   6.101   6.256  12.920 -0.1264  0.0894 -0.0484
14821TIP3    H165954   6.170   6.237  12.857 -0.7349 -0.0072 -0.6894
14821TIP3    H265955   6.079   6.348  12.905 -1.8320 -0.5178 -1.5454
14822TIP3   OH265956   6.463   2.287  14.132 -0.2504  0.2571  0.4070
14822TIP3    H165957   6.393   2.244  14.180  0.3752 -1.3280 -0.0168
14822TIP3    H265958   6.530   2.219  14.121  0.9648  1.4620  0.0261
14823TIP3   OH265959   6.140   4.883  12.827 -0.9341  0.2818  0.1229
14823TIP3    H165960   6.076   4.939  12.783 -0.3976 -0.4639 -1.7315
14823TIP3    H265961   6.169   4.823  12.759 -0.4510 -1.3400  1.6893
14824TIP3   OH265962   1.391   2.232  13.916 -0.4254  0.0011 -0.2897
14824TIP3    H165963   1.350   2.309  13.877 -1.5736 -0.8126 -0.7487
14824TIP3    H265964   1.456   2.267  13.976  2.0198  1.3356 -3.4270
14825TIP3   OH265965   6.205   2.502   2.546 -0.1437  0.0939  0.4536
14825TIP3    H165966   6.259   2.430   2.580  0.5050  1.2693  2.0461
14825TIP3    H265967   6.261   2.547   2.483  0.0096  0.0969  0.5906
14826TIP3   OH265968   3.894   2.768  15.354  0.0345  0.7847 -0.5648
14826TIP3    H165969   3.870   2.746  15.264  0.0772  0.8763 -0.5991
14826TIP3    H265970   3.972   2.823  15.345 -0.5577  1.6573 -0.5323
14827TIP3   OH265971   0.684   0.396   0.394 -0.2056 -0.3881  0.5664
14827TIP3    H165972   0.759   0.376   0.450 -0.8489 -1.1266  1.1809
14827TIP3    H265973   0.710   0.475   0.346  0.9994 -0.7010  0.6895
14828TIP3   OH265974   1.530   6.051   5.952  0.3474 -0.1033  0.4290
14828TIP3    H165975   1.496   6.114   6.015 -0.0283  1.8094 -1.5390
14828TIP3    H265976   1.622   6.040   5.976  0.1277  0.2896  1.5024
14829TIP3   OH265977   6.512   2.063  14.774  0.4042 -0.0362  0.2582
14829TIP3    H165978   6.430   2.020  14.749  0.5624 -1.0247  1.3418
14829TIP3    H265979   6.485   2.134  14.832  0.2757  0.0805  0.0574
14830TIP3   OH265980   5.579   0.417   0.672 -0.0933 -0.1470  0.0970
14830TIP3    H165981   5.504   0.429   0.731 -0.4739  0.4370 -0.4854
14830TIP3    H265982   5.639   0.488   0.695 -0.3711  0.2554 -0.3996
14831TIP3   OH265983   0.751   3.481   3.003  0.1856  0.3037 -0.2601
14831TIP3    H165984   0.835   3.524   3.019 -0.0773  0.5469  0.5112
14831TIP3    H265985   0.731   3.435   3.084 -0.9588  1.1742 -0.0239
14832TIP3   OH265986   1.605   1.217   1.385 -0.1420  0.0904  0.0319
14832TIP3    H165987   1.541   1.288   1.388 -0.1878  0.0155  1.0921
14832TIP3    H265988   1.638   1.211   1.475 -0.0167 -1.1151 -0.0837
14833TIP3   OH265989   6.491   1.045  11.983  0.3020  0.2549 -0.9251
14833TIP3    H165990   6.462   1.123  11.934 -2.6461 -0.8426 -1.1182
14833TIP3    H265991   6.469   1.065  12.074 -0.3772 -0.3101 -0.9644
14834TIP3   OH265992   5.188   6.428  14.831 -0.1450  0.8851 -0.1459
14834TIP3    H165993   5.110   6.483  14.840  0.5460  1.7685  0.7833
14834TIP3    H265994   5.211   6.434  14.738 -1.0234  0.8250 -0.3772
14835TIP3   OH265995   0.546   2.212  15.120 -0.5400  0.1463  0.4933
14835TIP3    H165996   0.542   2.129  15.166  0.2144  0.0807  0.4598
14835TIP3    H265997   0.634   2.246  15.139 -1.1392  1.3502  1.2231
14836TIP3   OH265998   3.817   2.791  15.636 -0.2646 -0.0248 -0.5125
14836TIP3    H165999   3.866   2.870  15.659  1.4390 -0.6335 -1.7825
14836TIP3    H266000   3.810   2.794  15.541  0.2661 -1.6246 -0.6283
14837TIP3   OH266001   1.093   1.947   4.483 -0.6953 -0.6498 -0.2028
14837TIP3    H166002   1.107   1.908   4.569 -0.9707 -2.5136 -0.9475
14837TIP3    H266003   1.181   1.961   4.448 -0.5844 -0.9770 -0.0604
14838TIP3   OH266004   0.957   5.282   4.795 -0.3567  0.4694  0.0235
14838TIP3    H166005   0.977   5.188   4.803 -0.7402  0.2419 -1.4224
14838TIP3    H266006   0.984   5.304   4.706 -2.2186  1.2249 -0.3895
14839TIP3   OH266007   6.674   3.055   3.772  0.8065  0.0942 -0.0291
14839TIP3    H166008   6.681   3.140   3.727 -0.7166  0.2855  0.0661
14839TIP3    H266009   6.758   3.046   3.818  0.9376  1.6343  0.0902
14840TIP3   OH266010   3.049   4.082   5.981  0.1357  0.4159 -0.0225
14840TIP3    H166011   3.074   4.024   5.909 -1.4386  0.3704 -0.5586
14840TIP3    H266012   2.959   4.108   5.962 -0.7481 -0.4888  2.4783
14841TIP3   OH266013   2.027   5.595  14.469  0.0744 -0.6145  0.2684
14841TIP3    H166014   1.947   5.604  14.416 -0.3572  1.2034  1.1532
14841TIP3    H266015   2.031   5.502  14.491 -0.5022 -1.1681 -1.7341
14842TIP3   OH266016   5.373   5.128   0.608  0.1157  0.1243  0.3733
14842TIP3    H166017   5.298   5.135   0.667 -1.0758 -0.3165 -1.0348
14842TIP3    H266018   5.427   5.059   0.646 -0.7935 -0.3785  0.7776
14843TIP3   OH266019   0.403   6.017   2.103 -0.1943  0.0386 -0.0211
14843TIP3    H166020   0.380   5.924   2.093 -0.6064 -0.0477  1.5034
14843TIP3    H266021   0.482   6.016   2.157 -0.8116  0.5939  0.9231
14844TIP3   OH266022   1.266   4.026  16.055 -0.2665  0.3156  0.0111
14844TIP3    H166023   1.191   3.981  16.016  0.8505  0.1638 -2.1078
14844TIP3    H266024   1.248   4.119  16.042  0.9788  0.2612 -2.8787
14845TIP3   OH266025   4.484   6.751  12.104  0.1017  0.2232 -0.0199
14845TIP3    H166026   4.392   6.740  12.079 -0.9360 -1.0860  3.6733
14845TIP3    H266027   4.533   6.702  12.038 -2.0620 -1.0665 -0.7835
14846TIP3   OH266028   4.882   1.835  15.503 -0.1245  0.2786 -0.5241
14846TIP3    H166029   4.808   1.863  15.557  0.8467 -1.1427  1.6895
14846TIP3    H266030   4.943   1.794  15.565  0.9433 -1.7333 -2.7642
14847TIP3   OH266031   5.969   2.251  13.704 -0.5821 -0.3628  0.3114
14847TIP3    H166032   6.007   2.280  13.787 -0.4136 -1.1355  0.5181
14847TIP3    H266033   5.876   2.271  13.712 -0.4238  0.3898  0.3157
14848TIP3   OH266034   3.939   6.508   0.729  0.2896  0.0596 -0.2716
14848TIP3    H166035   3.871   6.567   0.694  0.2871 -0.1813 -0.6826
14848TIP3    H266036   3.975   6.555   0.804 -0.8013 -0.1066  0.3826
14849TIP3   OH266037   4.699   2.544  15.408 -0.6516 -0.0605 -0.3789
14849TIP3    H166038   4.683   2.513  15.498  0.0165  1.2309  0.2093
14849TIP3    H266039   4.701   2.639  15.416 -1.6205  0.1199 -1.9601
14850TIP3   OH266040   2.245   6.668  11.395  0.5004 -0.0803  0.3354
14850TIP3    H166041   2.329   6.713  11.407  0.8724 -0.3759 -0.9714
14850TIP3    H266042   2.265   6.596  11.335 -0.7723  0.1031 -0.3503
14851TIP3   OH266043   1.023   1.674  11.664 -0.2753  0.0255  0.5174
14851TIP3    H166044   0.967   1.692  11.588  0.9921  1.0053 -0.2347
14851TIP3    H266045   0.982   1.723  11.736 -0.3076  0.8734 -0.0601
14852TIP3   OH266046   6.307   5.307  16.626  0.0669  0.0574  0.0834
14852TIP3    H166047   6.246   5.322  16.699 -1.5424 -2.0661 -0.6925
14852TIP3    H266048   6.263   5.345  16.550 -0.4523 -1.6361 -0.5168
14853TIP3   OH266049   0.322   6.258   2.552 -0.0495 -0.0674 -0.6792
14853TIP3    H166050   0.293   6.304   2.631 -0.3810  0.8633 -1.3232
14853TIP3    H266051   0.411   6.289   2.538  1.4126 -2.9173  1.2902
14854TIP3   OH266052   4.780   4.243   3.380  0.2799  0.6465  0.2767
14854TIP3    H166053   4.830   4.301   3.323 -0.8838  2.2231  0.7772
14854TIP3    H266054   4.774   4.291   3.463  0.1183 -0.6454  1.0414
14855TIP3   OH266055   0.779   2.179   0.947  0.3807 -0.6507 -1.2853
14855TIP3    H166056   0.778   2.164   0.853 -1.5532 -2.0682 -1.1196
14855TIP3    H266057   0.702   2.234   0.963  1.9791  1.5264 -0.7399
14856TIP3   OH266058   6.112   0.236  12.011  0.1135  0.3646 -0.6223
14856TIP3    H166059   6.178   0.275  11.955 -0.2126  1.0660 -0.5308
14856TIP3    H266060   6.031   0.283  11.990  0.3869  2.1810  1.9385
14857TIP3   OH266061   4.674   6.311  14.322 -0.0219  0.4303 -0.0598
14857TIP3    H166062   4.732   6.289  14.248  0.1792 -0.2274  0.2830
14857TIP3    H266063   4.592   6.265  14.301  1.1980 -3.0173  1.9148
14858TIP3   OH266064   0.819   2.672  12.232 -0.0210 -0.2797  0.0437
14858TIP3    H166065   0.882   2.639  12.297  0.9655  1.5737  0.1101
14858TIP3    H266066   0.736   2.676  12.279  0.2370 -0.9220  0.5626
14859TIP3   OH266067   3.948   2.228   4.821  0.0578 -0.4884  0.2212
14859TIP3    H166068   3.900   2.267   4.893  1.6633  1.0292  0.5524
14859TIP3    H266069   3.925   2.282   4.745 -0.7557 -1.3764 -0.1717
14860TIP3   OH266070   3.272   2.221  15.126 -0.1470  0.2354 -0.6041
14860TIP3    H166071   3.329   2.152  15.160  0.0438  0.5176 -0.3453
14860TIP3    H266072   3.275   2.289  15.193 -0.6594  0.3220 -0.6637
14861TIP3   OH266073   3.815   3.086  13.631  0.1501 -0.4537 -0.1768
14861TIP3    H166074   3.760   3.160  13.658  1.4664  1.7074 -2.8633
14861TIP3    H266075   3.889   3.088  13.692  0.1711  0.5004 -0.2146
14862TIP3   OH266076   1.125   3.578   2.783  0.1445 -0.0737  0.3598
14862TIP3    H166077   1.089   3.490   2.774 -0.0005 -0.0208  0.4200
14862TIP3    H266078   1.056   3.636   2.750  0.2493  0.0165  0.2962
14863TIP3   OH266079   5.071   4.945  14.112 -0.5836  0.3720  0.6527
14863TIP3    H166080   4.992   4.951  14.058  0.6724 -0.0305 -1.3365
14863TIP3    H266081   5.126   5.017  14.082 -0.0611  0.4618  1.8014
14864TIP3   OH266082   4.544   3.457  10.719  0.0784 -0.6104  0.6949
14864TIP3    H166083   4.452   3.466  10.694  0.3529  0.3303 -0.0005
14864TIP3    H266084   4.592   3.456  10.637  0.7300 -0.6931  1.0679
14865TIP3   OH266085   0.642   5.496   3.240 -0.1391 -0.4928  0.0098
14865TIP3    H166086   0.608   5.408   3.229 -1.1528  0.1364 -2.6381
14865TIP3    H266087   0.657   5.528   3.151 -0.5003  2.2547  0.8250
14866TIP3   OH266088   4.488   1.683   2.302 -0.2985 -0.0804  0.2343
14866TIP3    H166089   4.487   1.631   2.221  1.1008 -0.1780  0.2507
14866TIP3    H266090   4.439   1.631   2.365 -2.0314  0.3253 -0.7182
14867TIP3   OH266091   3.464   0.876   4.316  0.5923  0.4605 -0.3252
14867TIP3    H166092   3.386   0.907   4.361  0.5216 -1.4661  1.0292
14867TIP3    H266093   3.534   0.934   4.346 -0.2305  2.0755 -1.3904
14868TIP3   OH266094   6.608   6.537   4.932  0.2330 -0.0497  0.3166
14868TIP3    H166095   6.655   6.557   5.013  0.3015 -0.6962  0.4367
14868TIP3    H266096   6.532   6.486   4.960  0.7552 -1.0848 -0.1075
14869TIP3   OH266097   5.243   1.600   1.607 -0.6036  0.3714 -0.1773
14869TIP3    H166098   5.154   1.566   1.619 -0.3052  0.0504  1.3732
14869TIP3    H266099   5.296   1.548   1.666  0.6409  0.5337 -1.1250
14870TIP3   OH266100   6.218   4.683   4.770 -0.1403 -0.4191 -0.0813
14870TIP3    H166101   6.265   4.766   4.779  0.0874 -0.6366  0.8464
14870TIP3    H266102   6.133   4.699   4.812 -0.2333 -0.5525 -0.2163
14871TIP3   OH266103   4.215   3.562   1.277  0.0004  0.4132 -0.4138
14871TIP3    H166104   4.309   3.559   1.265  0.3830  3.7403  0.7014
14871TIP3    H266105   4.183   3.619   1.206 -0.9548  0.5102  0.0736
14872TIP3   OH266106   1.916   0.654  10.582 -0.0632  0.2053 -0.0114
14872TIP3    H166107   1.860   0.730  10.570 -1.2730 -0.3354  1.9164
14872TIP3    H266108   1.989   0.669  10.520 -0.3395  2.8038  0.1671
14873TIP3   OH266109   6.300   3.820   6.011  0.2396 -0.0352  0.0138
14873TIP3    H166110   6.227   3.851   6.065  1.1638  1.2016  0.6044
14873TIP3    H266111   6.372   3.807   6.072  1.8448  3.0428 -1.0195
14874TIP3   OH266112   1.076   1.625   5.421  0.1961 -0.1500  0.2840
14874TIP3    H166113   1.124   1.553   5.461 -0.9614 -1.3255 -0.3281
14874TIP3    H266114   1.013   1.581   5.363 -0.5666  1.3669 -0.0778
14875TIP3   OH266115   2.813   0.499  11.327 -0.3909 -0.2537  0.1133
14875TIP3    H166116   2.718   0.507  11.329 -0.7039 -3.2080  0.3943
14875TIP3    H266117   2.843   0.588  11.307 -3.0852  1.2293  1.9001
14876TIP3   OH266118   2.417   3.139  15.668  0.4837 -0.0977  0.0980
14876TIP3    H166119   2.493   3.191  15.641  1.9217 -0.3718  3.1419
14876TIP3    H266120   2.356   3.203  15.704 -0.5858  0.0656 -1.8911
14877TIP3   OH266121   1.765   2.817   1.898 -0.1562 -0.1017  0.1436
14877TIP3    H166122   1.840   2.828   1.839  0.5002 -1.0918  0.7594
14877TIP3    H266123   1.734   2.906   1.914  0.2489  0.2474 -0.9243
14878TIP3   OH266124   4.309   4.825   1.768  0.0105  0.2803  0.0571
14878TIP3    H166125   4.333   4.759   1.834 -2.0537  0.0242  0.6223
14878TIP3    H266126   4.234   4.870   1.806 -1.5410 -0.1495 -2.2749
14879TIP3   OH266127   2.881   5.636  11.576 -0.2572  0.4853 -0.0419
14879TIP3    H166128   2.864   5.563  11.635 -1.9116 -0.3492 -1.4900
14879TIP3    H266129   2.811   5.699  11.594  0.4477  1.1801  0.3333
14880TIP3   OH266130   2.717   4.568   1.518  0.4712  0.1375 -0.1972
14880TIP3    H166131   2.738   4.475   1.530 -0.8767 -0.0259  1.0882
14880TIP3    H266132   2.625   4.569   1.492 -0.7682  1.2001  3.5509
14881TIP3   OH266133   2.852   3.200  12.604  0.2760  0.8077 -0.0506
14881TIP3    H166134   2.916   3.206  12.675  0.8812  0.2572 -0.5397
14881TIP3    H266135   2.877   3.270  12.543 -0.2637  1.3019  0.2810
14882TIP3   OH266136   0.435   6.312  14.827  0.5561  0.3331  0.4253
14882TIP3    H166137   0.359   6.256  14.839  0.3787  0.3042 -0.6902
14882TIP3    H266138   0.479   6.276  14.749 -0.2447  2.4458 -1.0931
14883TIP3   OH266139   0.004   3.227   5.305 -0.2937 -0.3349  0.0948
14883TIP3    H166140  -0.076   3.184   5.275 -0.1534  1.4337 -3.2413
14883TIP3    H266141   0.074   3.187   5.254  0.5208  0.3344  0.6470
14884TIP3   OH266142   1.713   0.303  14.591  0.4031  0.1377 -0.0881
14884TIP3    H166143   1.661   0.347  14.658  0.2983  1.3476 -0.9184
14884TIP3    H266144   1.659   0.229  14.564  0.7165 -0.7167  1.5587
14885TIP3   OH266145   0.651   4.700  15.258 -0.0058 -0.1581 -0.3511
14885TIP3    H166146   0.573   4.730  15.306 -0.2301 -0.2074 -0.6803
14885TIP3    H266147   0.703   4.654  15.324  0.2162  0.7101  0.0954
14886TIP3   OH266148   2.598   1.882   6.355 -0.0758  0.1795  0.5294
14886TIP3    H166149   2.617   1.827   6.431 -0.4725 -1.2089 -0.3408
14886TIP3    H266150   2.681   1.889   6.309 -0.3534 -1.0123 -0.1800
14887TIP3   OH266151   5.809   1.759  16.000  0.2423 -0.1697  0.4766
14887TIP3    H166152   5.823   1.725  16.088 -2.2982 -0.8238  0.7177
14887TIP3    H266153   5.760   1.840  16.014  1.8479  0.9808 -0.2922
14888TIP3   OH266154   0.227   0.732   0.936  0.0861  0.0054 -0.6039
14888TIP3    H166155   0.211   0.653   0.987  1.1764 -0.4924 -1.0105
14888TIP3    H266156   0.291   0.781   0.988  1.2362 -0.5234 -1.4805
14889TIP3   OH266157   3.612   6.565   4.323 -0.3009  0.8684 -0.8440
14889TIP3    H166158   3.675   6.526   4.384  0.3952  2.1442 -0.7252
14889TIP3    H266159   3.538   6.590   4.379 -0.8845 -0.4966 -0.9630
14890TIP3   OH266160   4.956   2.440  14.643  0.1983 -0.2407 -0.7965
14890TIP3    H166161   4.885   2.501  14.662  1.3279  0.4790  1.5178
14890TIP3    H266162   4.946   2.370  14.708  0.5917 -1.0614 -1.5863
14891TIP3   OH266163   3.628   5.458  16.226  0.1688  0.3574  0.5236
14891TIP3    H166164   3.684   5.427  16.155 -0.9909 -0.5915 -0.0005
14891TIP3    H266165   3.641   5.395  16.297  0.6346  0.7956  0.8353
14892TIP3   OH266166   4.424   1.999   2.808  0.4936  0.3852  0.0509
14892TIP3    H166167   4.406   1.912   2.844  0.6599  0.3313  0.0049
14892TIP3    H266168   4.364   2.057   2.854 -0.9837 -0.0289 -1.2646
14893TIP3   OH266169   5.718   0.713   3.862 -0.4748 -0.1273  0.3953
14893TIP3    H166170   5.666   0.748   3.790 -1.5416 -0.3859  1.0161
14893TIP3    H266171   5.808   0.739   3.842 -0.7319 -0.3095 -1.0910
14894TIP3   OH266172   2.245   2.928  10.952  0.0882 -0.0383 -0.3539
14894TIP3    H166173   2.236   2.985  11.029  0.7287 -1.2674  0.6602
14894TIP3    H266174   2.312   2.970  10.899  1.0426 -0.1728  0.7148
14895TIP3   OH266175   0.271   4.697   2.261 -0.0594 -0.0092 -0.2469
14895TIP3    H166176   0.343   4.760   2.262 -0.1353  0.1047  1.4480
14895TIP3    H266177   0.238   4.697   2.351 -1.6111 -0.7180 -0.7840
14896TIP3   OH266178   0.132   5.270   3.071  0.0722 -0.0288 -0.0241
14896TIP3    H166179   0.090   5.193   3.109  0.5086  0.1479  0.8326
14896TIP3    H266180   0.065   5.307   3.013 -0.7681 -0.0549  0.9018
14897TIP3   OH266181   1.109   6.262  13.190  0.0892 -0.6651 -0.3242
14897TIP3    H166182   1.069   6.322  13.127 -2.6102  0.1123  1.9469
14897TIP3    H266183   1.072   6.176  13.167  0.8774 -0.8024 -1.1364
14898TIP3   OH266184   4.740   3.900  16.230  0.2987 -0.1562  0.0460
14898TIP3    H166185   4.701   3.826  16.184  1.9699 -0.6602 -0.6355
14898TIP3    H266186   4.773   3.957  16.160  0.8342  0.2042  0.5785
14899TIP3   OH266187   2.531   4.388  16.509 -0.7902  0.0386 -0.8643
14899TIP3    H166188   2.570   4.474  16.500 -0.3100 -0.1371 -0.4798
14899TIP3    H266189   2.604   4.327  16.504 -1.0968 -0.3363 -0.8721
14900TIP3   OH266190   1.585   4.151   0.398  0.1746  0.3992  0.3554
14900TIP3    H166191   1.567   4.181   0.488 -0.4965  0.4070  0.2210
14900TIP3    H266192   1.644   4.218   0.363  2.2308 -0.7085  1.4906
14901TIP3   OH266193   3.222   3.074  16.036  0.7760  0.1806 -0.0908
14901TIP3    H166194   3.317   3.059  16.034  0.7820  0.2859 -0.7686
14901TIP3    H266195   3.212   3.168  16.026  0.5672  0.0430 -1.3110
14902TIP3   OH266196   1.016   6.057  11.439  0.2755 -0.0353  0.0571
14902TIP3    H166197   0.944   6.117  11.461  1.4948  1.9527 -1.0558
14902TIP3    H266198   1.095   6.106  11.462  1.3063 -1.7998  0.3709
14903TIP3   OH266199   4.059   0.391   2.998 -0.6270 -0.4074  0.6785
14903TIP3    H166200   3.993   0.421   2.936  0.8536 -0.3455 -0.9541
14903TIP3    H266201   4.132   0.452   2.987  0.9743 -2.3469  0.0177
14904TIP3   OH266202   3.413   3.139  15.482 -1.2454  0.1901 -0.4709
14904TIP3    H166203   3.414   3.196  15.559 -0.2508 -0.4758  0.0386
14904TIP3    H266204   3.502   3.104  15.478 -1.9857 -1.8161 -0.3981
14905TIP3   OH266205   6.644   6.277  14.176 -0.0984 -0.6627  0.2531
14905TIP3    H166206   6.695   6.358  14.182 -0.0475 -0.6248 -0.5388
14905TIP3    H266207   6.570   6.300  14.119  0.6658 -1.5357 -1.1496
14906TIP3   OH266208   0.774   1.270  16.892 -0.0673  0.2518  0.1699
14906TIP3    H166209   0.692   1.305  16.858  0.9314 -0.1462 -2.9240
14906TIP3    H266210   0.777   1.180  16.861  2.0801  0.6456 -0.9228
14907TIP3   OH266211   5.958   2.962   2.752 -0.1750 -1.0758 -0.6006
14907TIP3    H166212   5.936   2.979   2.660  1.8820 -0.1615 -0.9901
14907TIP3    H266213   5.998   2.875   2.752 -0.3750 -1.1691 -0.5222
14908TIP3   OH266214   1.232   3.743  11.074  0.1408  0.6547 -0.1148
14908TIP3    H166215   1.188   3.828  11.077 -0.2724  0.4059  1.2439
14908TIP3    H266216   1.181   3.687  11.132  2.3484  0.4289  1.7755
14909TIP3   OH266217   0.977   5.042  14.234  0.1943 -0.6521  0.4616
14909TIP3    H166218   1.051   5.010  14.180  1.6404  1.1334  1.2910
14909TIP3    H266219   0.934   4.962  14.264  1.2955 -1.7479 -0.7249
14910TIP3   OH266220   0.571   6.044   5.107  0.2219  0.6061  0.7071
14910TIP3    H166221   0.527   6.127   5.120  0.2418  0.8219 -0.4728
14910TIP3    H266222   0.508   5.978   5.135  0.1378  1.0062  1.4728
14911TIP3   OH266223   0.712   6.658   4.681 -0.1675  0.3782  1.1052
14911TIP3    H166224   0.799   6.634   4.649 -0.5173  1.5976 -0.9834
14911TIP3    H266225   0.659   6.579   4.671  0.0729  0.3636 -0.1821
14912TIP3   OH266226   3.089   6.405  11.700 -0.1023  1.0480  0.0826
14912TIP3    H166227   3.125   6.335  11.646 -0.9307  0.6619  0.0180
14912TIP3    H266228   3.114   6.486  11.654  0.8435  0.8076  0.1538
14913TIP3   OH266229   6.496   2.486  12.273  0.0184  0.1866 -0.2190
14913TIP3    H166230   6.461   2.541  12.203 -1.6529 -1.7170 -0.9886
14913TIP3    H266231   6.419   2.457  12.321  0.7708 -1.8029 -0.1189
14914TIP3   OH266232   0.541   3.802  16.439 -0.2564  0.4200 -0.8821
14914TIP3    H166233   0.526   3.892  16.408 -0.8130  0.3022 -0.9742
14914TIP3    H266234   0.515   3.747  16.365  0.6150  0.1895 -1.0331
14915TIP3   OH266235   6.375   5.026  15.603 -0.4432 -0.5841  0.3488
14915TIP3    H166236   6.330   5.064  15.527  0.7356 -1.2806 -0.7201
14915TIP3    H266237   6.436   5.094  15.631  1.3421 -1.4354 -1.2851
14916TIP3   OH266238   1.683   5.380  16.749  0.1997 -0.0302  0.6390
14916TIP3    H166239   1.758   5.346  16.797  0.4182  2.6801  2.4375
14916TIP3    H266240   1.607   5.351  16.799  0.2763  0.2925  0.9510
14917TIP3   OH266241   6.106   6.415   4.447  0.0519 -0.1886  0.5603
14917TIP3    H166242   6.087   6.328   4.483  0.8148 -0.3140  0.6706
14917TIP3    H266243   6.199   6.429   4.466  0.2598  0.1083 -0.6117
14918TIP3   OH266244   0.049   4.869   0.195  0.1853  0.3184 -0.4555
14918TIP3    H166245   0.102   4.836   0.268  0.1361  0.7402 -0.2260
14918TIP3    H266246   0.008   4.790   0.159  0.4601  0.0650 -0.2307
14919TIP3   OH266247   1.688   6.380  16.146  0.6881 -0.2017 -0.3788
14919TIP3    H166248   1.706   6.307  16.205  0.3122 -1.2476 -1.5290
14919TIP3    H266249   1.657   6.450  16.203 -0.9033 -1.5991  0.5388
14920TIP3   OH266250   3.769   1.328   3.807 -0.1671 -0.7284  0.2035
14920TIP3    H166251   3.807   1.412   3.834 -1.9808  1.7287 -3.9152
14920TIP3    H266252   3.678   1.333   3.836 -1.2404  0.4919 -3.0162
14921TIP3   OH266253   0.947   1.870   0.375  0.0303 -0.1967  0.2968
14921TIP3    H166254   0.855   1.887   0.359 -0.7048 -1.7866  2.3311
14921TIP3    H266255   0.993   1.922   0.310 -2.2309  1.7378  0.0996
14922TIP3   OH266256   0.989   2.433  16.950  0.4396  0.0285 -0.6077
14922TIP3    H166257   1.074   2.470  16.971  0.6587  0.5396 -2.2955
14922TIP3    H266258   1.003   2.383  16.870 -0.5645 -1.0534 -0.1501
14923TIP3   OH266259   1.598   4.070  17.182  0.4876 -0.4071  0.5109
14923TIP3    H166260   1.546   4.026  17.115 -0.8380  0.8299  0.6746
14923TIP3    H266261   1.537   4.133  17.222  2.1520  1.1795  0.6506
14924TIP3   OH266262   0.023   2.378  13.494 -0.3326  0.4240 -0.3742
14924TIP3    H166263  -0.072   2.375  13.486 -0.3349  0.1290 -0.2357
14924TIP3    H266264   0.051   2.437  13.423 -0.6069  0.4115 -0.4929
14925TIP3   OH266265   5.172   1.071  14.951 -0.2749 -0.4333 -0.0471
14925TIP3    H166266   5.103   1.007  14.938 -0.8914  0.4374 -1.2140
14925TIP3    H266267   5.199   1.096  14.863  0.7512  0.0636  0.3910
14926TIP3   OH266268   5.096   2.660   4.846  0.2589  0.0218  0.7110
14926TIP3    H166269   5.085   2.623   4.934  0.1299  0.0713  0.7161
14926TIP3    H266270   5.022   2.719   4.836 -0.5251 -1.0476  0.0289
14927TIP3   OH266271   3.484   0.946   5.516 -0.0291  0.1406  0.0086
14927TIP3    H166272   3.558   0.917   5.462 -0.1135  0.2198 -0.1485
14927TIP3    H266273   3.515   1.027   5.557  0.6792 -0.8028  1.4324
14928TIP3   OH266274   1.297   6.358  14.150 -0.2539 -0.2490 -0.5989
14928TIP3    H166275   1.364   6.415  14.187 -0.4699  0.7174 -1.6767
14928TIP3    H266276   1.308   6.365  14.055  0.3679 -2.7801 -0.7920
14929TIP3   OH266277   0.075   6.213   1.646 -0.1572  0.0002 -0.0693
14929TIP3    H166278   0.065   6.308   1.640  0.3700  0.0775  0.2251
14929TIP3    H266279   0.013   6.178   1.581 -0.1865  0.5475 -0.3426
14930TIP3   OH266280   2.342   4.978   2.082 -0.4394  0.0184 -0.0892
14930TIP3    H166281   2.330   4.909   2.016  0.9359  0.3909 -0.7713
14930TIP3    H266282   2.265   5.033   2.073 -0.2477  0.1075 -1.4658
14931TIP3   OH266283   4.439   4.093   5.336 -0.3562  0.0819 -0.0998
14931TIP3    H166284   4.434   4.138   5.421  2.2911  1.3760 -0.5285
14931TIP3    H266285   4.466   4.004   5.358 -0.8140  0.0787  0.4821
14932TIP3   OH266286   1.665   5.197  15.572 -0.4286 -0.0501 -1.1489
14932TIP3    H166287   1.739   5.200  15.632  0.5726 -0.0286 -2.3312
14932TIP3    H266288   1.588   5.200  15.628  0.4587 -0.4323  0.1365
14933TIP3   OH266289   0.753   5.454  11.072 -0.1549 -0.0371  0.0749
14933TIP3    H166290   0.765   5.543  11.105  1.9031 -0.3074  0.2269
14933TIP3    H266291   0.833   5.408  11.098  0.0859 -1.1856 -2.3646
14934TIP3   OH266292   4.573   5.573   0.584 -0.1375 -0.7693 -0.3793
14934TIP3    H166293   4.487   5.615   0.582  0.3802  0.5914  2.0916
14934TIP3    H266294   4.632   5.640   0.618  1.4626 -2.3352  0.0984
14935TIP3   OH266295   6.128   3.789   1.724 -0.2881  0.6383  0.0899
14935TIP3    H166296   6.171   3.795   1.809  0.7816  1.2391 -0.4730
14935TIP3    H266297   6.096   3.699   1.719 -0.8450  0.7523  1.3401
14936TIP3   OH266298   4.192   5.144   0.311 -0.0645  0.4853  0.5963
14936TIP3    H166299   4.239   5.065   0.287  0.3162 -0.0144  2.7835
14936TIP3    H266300   4.260   5.211   0.321 -0.0817  0.3989  1.3304
14937TIP3   OH266301   2.063   5.593  11.840 -0.0338  0.2378  0.1339
14937TIP3    H166302   2.095   5.654  11.907  0.2626  0.6883 -0.4115
14937TIP3    H266303   2.108   5.511  11.859 -0.3384  0.2131  0.7970
14938TIP3   OH266304   6.490   5.808  12.813 -0.0199  0.5306 -0.1592
14938TIP3    H166305   6.431   5.880  12.834 -1.2441 -0.6084  0.4115
14938TIP3    H266306   6.436   5.729  12.820  1.7206 -0.6185  1.0482
14939TIP3   OH266307   4.667   3.640  12.749  0.0294  0.3386  0.2098
14939TIP3    H166308   4.747   3.592  12.771 -0.3651 -0.9540 -0.9947
14939TIP3    H266309   4.696   3.709  12.689  0.2038 -0.3163 -0.4621
14940TIP3   OH266310   2.064   4.883   5.354  0.3174 -0.2819  0.3946
14940TIP3    H166311   2.030   4.972   5.348 -1.7608 -1.0185  0.1742
14940TIP3    H266312   2.018   4.845   5.429  1.2026 -1.1746  0.5074
14941TIP3   OH266313   2.682   0.618  15.800  0.4760 -0.5059  0.9324
14941TIP3    H166314   2.686   0.523  15.811 -0.5932 -0.4228  2.3005
14941TIP3    H266315   2.597   0.643  15.836  0.3145  0.8754 -0.3140
14942TIP3   OH266316   5.617   5.248   0.172  0.4588  0.3012  1.1071
14942TIP3    H166317   5.679   5.312   0.206  0.9181  1.3883 -1.5230
14942TIP3    H266318   5.589   5.284   0.087 -0.5624 -2.1776  0.2922
14943TIP3   OH266319   3.306   1.375  10.848 -0.6069 -0.2664 -0.4083
14943TIP3    H166320   3.346   1.315  10.911  0.0931 -0.4422 -0.9964
14943TIP3    H266321   3.286   1.319  10.772  1.0750  0.4134 -1.4036
14944TIP3   OH266322   0.011   6.366  13.300 -0.2707 -0.2224 -0.0042
14944TIP3    H166323  -0.066   6.419  13.277 -0.0103 -0.2456 -0.9933
14944TIP3    H266324   0.034   6.393  13.388 -1.9614 -0.8567  0.6640
14945TIP3   OH266325   2.232   0.855  11.972  0.4189 -0.0180 -0.0372
14945TIP3    H166326   2.204   0.916  12.041 -1.1386  0.0053 -0.6552
14945TIP3    H266327   2.270   0.781  12.020  0.1105  0.3591  0.8189
14946TIP3   OH266328   6.508   3.693   0.974 -0.2283 -0.1672  0.3804
14946TIP3    H166329   6.568   3.678   0.901  0.2825 -0.8131  0.9292
14946TIP3    H266330   6.487   3.786   0.969 -0.7486 -0.3240 -1.0084
14947TIP3   OH266331   0.838   0.494   5.233  0.2359  0.2749  0.5205
14947TIP3    H166332   0.854   0.588   5.228  0.5779  0.1824 -0.2947
14947TIP3    H266333   0.918   0.458   5.271  0.8311  0.1389 -0.7918
14948TIP3   OH266334   2.134   1.268  13.806  0.2799 -0.4941 -0.0651
14948TIP3    H166335   2.041   1.260  13.786  0.1392  2.5263 -1.1061
14948TIP3    H266336   2.178   1.219  13.737 -0.4999  1.3800 -1.9961
14949TIP3   OH266337   1.195   0.114  15.462 -0.3091  0.4427 -0.0212
14949TIP3    H166338   1.245   0.195  15.460  0.6457 -0.1350 -0.0585
14949TIP3    H266339   1.255   0.047  15.428 -1.0324 -0.3061  0.1251
14950TIP3   OH266340   3.426   3.477   4.163 -0.0733  0.4146 -0.1299
14950TIP3    H166341   3.350   3.501   4.111 -1.1765 -0.0078  1.2121
14950TIP3    H266342   3.413   3.384   4.184  1.3930  0.0312 -0.7966
14951TIP3   OH266343   2.737   1.372  13.215 -0.5687 -0.5932 -0.0794
14951TIP3    H166344   2.700   1.383  13.128  1.9809 -0.5955 -1.2467
14951TIP3    H266345   2.791   1.293  13.209  1.1091  0.4071  0.9135
14952TIP3   OH266346   1.383   5.029   3.249  0.8180 -0.0094 -0.1882
14952TIP3    H166347   1.404   5.122   3.234 -1.8134  0.3435 -2.4465
14952TIP3    H266348   1.367   4.994   3.162 -0.2132 -2.0873  0.7863
14953TIP3   OH266349   1.552   5.032   0.726  0.0631 -0.0310  0.0897
14953TIP3    H166350   1.614   4.974   0.769 -1.2528 -0.5541  1.3858
14953TIP3    H266351   1.559   5.114   0.775  0.6421  0.3260 -0.5868
14954TIP3   OH266352   3.124   5.947   1.619 -0.2298 -0.5516  0.6640
14954TIP3    H166353   3.149   5.884   1.687  0.1048 -1.3876 -0.2052
14954TIP3    H266354   3.202   6.001   1.606  0.1993 -1.3278 -0.0584
14955TIP3   OH266355   5.189   2.975  14.935  0.2427 -0.2477 -0.2509
14955TIP3    H166356   5.141   3.023  14.867  0.2568  0.1410  0.0140
14955TIP3    H266357   5.216   2.894  14.891 -1.8140 -1.1265 -0.0421
14956TIP3   OH266358   3.571   5.339   2.377 -0.3156  0.4715 -0.0367
14956TIP3    H166359   3.541   5.373   2.462 -2.7094 -0.0424 -0.6111
14956TIP3    H266360   3.546   5.405   2.314 -0.4113 -0.0686 -0.5745
14957TIP3   OH266361   1.211   3.993  13.785  0.6308  0.7848  0.0924
14957TIP3    H166362   1.137   3.949  13.743  2.4190 -0.9623 -1.4391
14957TIP3    H266363   1.193   4.086  13.773 -1.2770  0.4207 -0.2787
14958TIP3   OH266364   5.458   4.161  14.048  0.1119 -0.1705 -0.5727
14958TIP3    H166365   5.421   4.154  13.960 -3.8372 -0.9853  0.9262
14958TIP3    H266366   5.472   4.070  14.075 -0.5316 -0.0429  0.2474
14959TIP3   OH266367   3.217   1.530   5.842  0.8742 -0.0453  0.3950
14959TIP3    H166368   3.277   1.546   5.914  0.0158 -1.2990  1.4299
14959TIP3    H266369   3.135   1.571   5.869  0.0850 -1.8320  0.8919
14960TIP3   OH266370   1.233   4.489   3.497  0.2651  0.2364 -0.5259
14960TIP3    H166371   1.171   4.419   3.476 -0.8184  0.9687  0.0688
14960TIP3    H266372   1.267   4.466   3.584 -1.3648  1.2325  0.4436
14961TIP3   OH266373   5.005   1.047  15.609 -0.1564  0.7286 -0.2921
14961TIP3    H166374   5.026   0.970  15.556 -0.4441  0.2479  0.2844
14961TIP3    H266375   4.997   1.118  15.546 -1.0704  0.0531 -0.9534
14962TIP3   OH266376   2.596   3.678   2.860 -0.4393  0.3004  0.3608
14962TIP3    H166377   2.538   3.687   2.784 -0.2728  1.1064  0.3235
14962TIP3    H266378   2.606   3.767   2.893 -1.7303 -0.1985  2.2406
14963TIP3   OH266379   1.361   3.878   3.677  0.1310  0.0374 -0.2988
14963TIP3    H166380   1.400   3.818   3.613  1.2754  0.3495  0.0802
14963TIP3    H266381   1.435   3.906   3.732 -0.7697  0.0373  0.9511
14964TIP3   OH266382   5.459   3.895  14.556  0.2539  0.3315 -0.1511
14964TIP3    H166383   5.483   3.974  14.605  0.3267  0.5525 -0.5422
14964TIP3    H266384   5.414   3.840  14.621 -2.0404  1.7182 -0.4320
14965TIP3   OH266385   0.532   4.503   4.397  0.3772  0.1468 -0.5977
14965TIP3    H166386   0.505   4.536   4.482 -0.9035 -0.3801 -0.7659
14965TIP3    H266387   0.522   4.408   4.403  1.0706  0.0358 -1.0717
14966TIP3   OH266388   4.359   1.691  13.310  0.6610 -0.8417 -0.7285
14966TIP3    H166389   4.369   1.606  13.353 -2.4425 -1.5232 -1.0741
14966TIP3    H266390   4.342   1.669  13.219  1.8790  0.3166 -1.2652
14967TIP3   OH266391   3.157   5.318  16.400 -0.1679 -0.7446 -0.6342
14967TIP3    H166392   3.174   5.412  16.396 -1.8883 -0.4300 -1.4592
14967TIP3    H266393   3.209   5.280  16.329 -0.5689 -0.2200 -1.2148
14968TIP3   OH266394   5.275   5.559   5.759 -0.0580  0.2184  0.3849
14968TIP3    H166395   5.217   5.484   5.769  0.8787 -0.5832 -0.0859
14968TIP3    H266396   5.238   5.626   5.817 -1.6200 -0.1534 -0.1497
14969TIP3   OH266397   3.530   3.399   5.513 -0.1534  0.6625 -0.0084
14969TIP3    H166398   3.609   3.420   5.462 -0.2247  0.1738 -0.3276
14969TIP3    H266399   3.506   3.311   5.485 -0.4737  0.5754  0.5278
14970TIP3   OH266400   1.736   0.214  12.904 -0.5751  0.2174 -0.0438
14970TIP3    H166401   1.746   0.286  12.966 -0.7746 -0.4181  0.7500
14970TIP3    H266402   1.823   0.203  12.866  0.2906 -1.0947  2.0972
14971TIP3   OH266403   3.868   1.461  11.992  0.1363 -0.0719 -0.3097
14971TIP3    H166404   3.781   1.435  11.962  0.7171 -1.8641 -0.5704
14971TIP3    H266405   3.855   1.547  12.032 -1.1418  1.2428 -3.2814
14972TIP3   OH266406   2.225   2.559  10.384  0.6079 -0.1202  0.7555
14972TIP3    H166407   2.215   2.606  10.467  1.1097  0.4028  0.5201
14972TIP3    H266408   2.279   2.483  10.406 -1.0674 -1.2145  1.3609
14973TIP3   OH266409   0.423   2.970  15.328  0.1690 -0.3010  0.2376
14973TIP3    H166410   0.446   3.040  15.268 -1.5653  0.1846  0.0728
14973TIP3    H266411   0.506   2.928  15.350  0.8153 -1.4991 -3.6644
14974TIP3   OH266412   5.521   2.877   4.955  0.0787 -0.7079 -0.5938
14974TIP3    H166413   5.603   2.831   4.940  0.0552 -0.7664 -0.5420
14974TIP3    H266414   5.459   2.809   4.982 -0.5678 -1.0396 -2.6520
14975TIP3   OH266415   4.092   0.352   2.296  0.5327  0.5229 -0.6467
14975TIP3    H166416   4.137   0.311   2.370 -1.8049 -0.0499  0.5307
14975TIP3    H266417   4.055   0.279   2.247  1.5267  0.9362 -2.1043
14976TIP3   OH266418   3.896   4.766   0.242 -0.6824  0.6096 -0.2060
14976TIP3    H166419   3.888   4.790   0.335  1.5394  2.0988 -0.3208
14976TIP3    H266420   3.981   4.723   0.235 -1.0124  0.1090 -1.4995
14977TIP3   OH266421   5.570   6.358   5.427 -0.1356  0.1185 -0.1968
14977TIP3    H166422   5.651   6.388   5.467 -0.2862  1.8526 -1.0932
14977TIP3    H266423   5.560   6.412   5.349 -1.2826 -1.2408 -1.0387
14978TIP3   OH266424   6.063   5.995   2.532 -0.1949 -0.4946 -0.3089
14978TIP3    H166425   6.132   6.061   2.528  0.3879 -1.0156  0.7011
14978TIP3    H266426   5.989   6.034   2.486  0.7039  0.1552 -1.2348
14979TIP3   OH266427   1.773   5.056  16.578  0.3494 -0.1171 -0.0755
14979TIP3    H166428   1.765   5.114  16.503 -0.7222 -0.4432 -0.2259
14979TIP3    H266429   1.724   4.977  16.553  1.8141 -1.1313  0.0895
14980TIP3   OH266430   4.912   3.553   0.107  0.1705 -0.4822  0.6731
14980TIP3    H166431   4.957   3.543   0.023 -1.7521 -1.1131 -0.3451
14980TIP3    H266432   4.908   3.464   0.143  0.0171 -0.3879  0.8934
14981TIP3   OH266433   6.359   4.973  14.533  1.0118  0.1903  1.2707
14981TIP3    H166434   6.331   5.057  14.497  3.3718 -0.4650 -2.7011
14981TIP3    H266435   6.287   4.913  14.514  0.9177  0.5384  0.5070
14982TIP3   OH266436   6.023   2.693   2.737 -0.0438 -0.5716  0.1078
14982TIP3    H166437   6.043   2.718   2.827 -1.7653 -0.0298  0.3736
14982TIP3    H266438   6.107   2.702   2.691  1.1860 -2.1714  1.8922
14983TIP3   OH266439   2.010   2.112   4.828  0.2534 -0.3165 -0.0058
14983TIP3    H166440   2.077   2.090   4.763  0.0310 -0.1057 -0.3073
14983TIP3    H266441   2.004   2.207   4.826  0.0523 -0.3240  0.1332
14984TIP3   OH266442   0.937   5.985   1.037 -0.3391  0.2854  0.3380
14984TIP3    H166443   0.854   6.033   1.030 -0.1688  0.3819 -1.3160
14984TIP3    H266444   0.996   6.045   1.083 -0.5890  1.0486 -0.3106
14985TIP3   OH266445   6.587   0.857  16.865 -0.0497 -0.5546 -0.0080
14985TIP3    H166446   6.599   0.847  16.960 -1.6583 -1.5223  0.1429
14985TIP3    H266447   6.674   0.843  16.828  0.7085  0.3221  1.3441
14986TIP3   OH266448   5.529   3.843   4.637  0.4049  0.0824 -0.0084
14986TIP3    H166449   5.466   3.862   4.707 -1.5703  0.8191 -1.8747
14986TIP3    H266450   5.520   3.749   4.622  1.1412 -0.1608  0.9496
14987TIP3   OH266451   3.050   5.184   1.581  0.2347  0.0199  0.1486
14987TIP3    H166452   3.029   5.096   1.613  0.0714  0.1951  0.5260
14987TIP3    H266453   2.966   5.219   1.551  0.5417 -0.5124 -1.4115
14988TIP3   OH266454   2.792   4.109   5.937 -0.7736 -0.5503  0.2849
14988TIP3    H166455   2.777   4.074   6.024  0.0568 -0.8674  0.3082
14988TIP3    H266456   2.718   4.077   5.885 -1.1939 -0.4808  0.8305
14989TIP3   OH266457   1.112   3.198  11.220 -0.2995 -0.0118 -0.1446
14989TIP3    H166458   1.144   3.241  11.141 -1.1147  0.6298 -0.1392
14989TIP3    H266459   1.110   3.105  11.198  0.7073  0.0179 -0.4350
14990TIP3   OH266460   3.919   5.846   0.721  0.4221  0.3027  0.3548
14990TIP3    H166461   3.944   5.831   0.812 -0.6567  1.9136  0.9625
14990TIP3    H266462   3.964   5.928   0.697 -1.8640  1.6982  0.5608
14991TIP3   OH266463   4.892   2.155  13.362  0.1982  0.0006  0.4893
14991TIP3    H166464   4.903   2.060  13.365  0.1362  0.0145  1.5749
14991TIP3    H266465   4.887   2.182  13.454  1.7139  1.2323  0.2518
14992TIP3   OH266466   1.776   6.517   0.788  0.4245 -0.0097  0.0136
14992TIP3    H166467   1.841   6.447   0.801  1.7673  1.1690 -0.1301
14992TIP3    H266468   1.701   6.472   0.749  0.7583 -1.5917  1.0978
14993TIP3   OH266469   1.888   5.983   4.984  0.3948  0.8320  0.1451
14993TIP3    H166470   1.861   6.072   5.007  1.8975  1.2558  0.4103
14993TIP3    H266471   1.940   5.994   4.905  0.9971  0.2623  0.4503
14994TIP3   OH266472   3.585   4.552   1.607 -0.2746 -0.1505  0.5478
14994TIP3    H166473   3.522   4.511   1.547 -0.6651 -0.2984  1.0551
14994TIP3    H266474   3.553   4.531   1.694  0.2134  0.1872  0.8158
14995TIP3   OH266475   0.001   6.527   0.715 -0.4617  0.1939  0.8852
14995TIP3    H166476  -0.023   6.489   0.630  1.4320  1.1065 -0.1010
14995TIP3    H266477  -0.013   6.621   0.704 -0.7143  0.2686  1.7811
14996TIP3   OH266478   1.075   5.675  16.949 -0.2762  0.0334  0.5227
14996TIP3    H166479   1.134   5.734  16.902  1.5290 -1.9827  0.0967
14996TIP3    H266480   0.991   5.685  16.904 -0.3139  2.8646  1.0427
14997TIP3   OH266481   3.502   2.697   2.911 -0.3523 -0.4068  0.1103
14997TIP3    H166482   3.415   2.667   2.938 -0.0446 -1.4667 -0.0253
14997TIP3    H266483   3.536   2.626   2.857  1.6052 -1.2050  2.2333
14998TIP3   OH266484   1.259   5.288  15.724 -0.1892 -0.5664 -0.0098
14998TIP3    H166485   1.298   5.316  15.641  0.1311 -2.0437 -0.3731
14998TIP3    H266486   1.277   5.361  15.784  2.2052 -0.7098 -0.4451
14999TIP3   OH266487   2.265   4.405  12.603  0.0225 -0.1312 -0.2679
14999TIP3    H166488   2.267   4.464  12.528  0.5770  2.3339  1.5626
14999TIP3    H266489   2.327   4.336  12.580  1.8449  1.7068 -1.2613
15000TIP3   OH266490   4.140   0.017   3.987 -0.1618 -0.1499  0.4403
15000TIP3    H166491   4.141   0.065   4.070 -0.4363  0.9968 -0.2002
15000TIP3    H266492   4.048   0.013   3.962 -0.3516 -2.5588  1.3202
15001TIP3   OH266493   0.201   6.435   0.086 -0.3823  0.4669 -0.1202
15001TIP3    H166494   0.251   6.368   0.132  1.8326  2.3789  0.4589
15001TIP3    H266495   0.122   6.446   0.139 -0.1593 -0.7373  0.4945
15002TIP3   OH266496   2.098   4.863  13.758  0.0419 -0.0664 -0.1146
15002TIP3    H166497   2.044   4.821  13.825 -1.3504  3.3147  1.0737
15002TIP3    H266498   2.188   4.850  13.788 -0.4594 -0.2901  1.3700
15003TIP3   OH266499   4.751   3.026   0.519 -0.0769 -0.1096  0.4349
15003TIP3    H166500   4.730   2.968   0.592  1.6609 -2.0611 -0.4980
15003TIP3    H266501   4.846   3.039   0.527 -0.0531  0.5783 -0.8311
15004TIP3   OH266502   1.195   3.174   1.387 -0.0011 -0.0345 -0.0095
15004TIP3    H166503   1.139   3.234   1.436 -1.2779 -1.7145  0.6964
15004TIP3    H266504   1.193   3.206   1.297 -0.6321  0.9556  0.3453
15005TIP3   OH266505   2.156   2.656  13.227 -0.0579  0.8103 -0.1749
15005TIP3    H166506   2.141   2.696  13.313 -1.9132  1.1773 -0.6324
15005TIP3    H266507   2.106   2.575  13.228  0.4883  0.4517 -0.6796
15006TIP3   OH266508   6.116   2.022   2.640  0.3017  0.5820  0.4854
15006TIP3    H166509   6.087   1.965   2.711  1.3747  0.2236  0.6570
15006TIP3    H266510   6.047   2.087   2.632 -0.2429  0.1222  1.2801
15007TIP3   OH266511   5.333   5.769  13.765  0.1423  0.1358 -0.4007
15007TIP3    H166512   5.402   5.722  13.813 -0.7385 -0.3555  0.4174
15007TIP3    H266513   5.327   5.723  13.682 -0.6514 -1.2115  0.3571
15008TIP3   OH266514   1.665   0.656   2.364 -0.1645 -0.0250  0.1492
15008TIP3    H166515   1.634   0.603   2.290  1.7040  0.2710 -0.9077
15008TIP3    H266516   1.683   0.742   2.326 -0.0108  0.3949  1.1487
15009TIP3   OH266517   1.151   4.379  11.587  0.1263  0.0878 -0.0993
15009TIP3    H166518   1.171   4.421  11.503 -1.5756  0.4742 -0.3406
15009TIP3    H266519   1.058   4.358  11.582 -0.2614  1.0651  2.0935
15010TIP3   OH266520   6.007   1.015   5.322  0.6187  1.0591  0.6596
15010TIP3    H166521   6.012   0.930   5.278  1.4393  1.7376 -0.6316
15010TIP3    H266522   5.942   1.004   5.390 -1.0703  0.0812 -1.0316
15011TIP3   OH266523   3.400   1.684   3.524  0.4721 -0.3131 -0.0464
15011TIP3    H166524   3.386   1.732   3.443  4.8284 -0.1075 -0.9212
15011TIP3    H266525   3.405   1.751   3.592 -1.7573 -0.3756  0.2486
15012TIP3   OH266526   0.543   6.100  15.577 -0.4218  0.2027  0.4869
15012TIP3    H166527   0.472   6.120  15.516 -0.4826  3.7891  1.5052
15012TIP3    H266528   0.504   6.111  15.664  0.1871 -2.7949  1.2872
15013TIP3   OH266529   4.800   5.068   0.840 -0.4674  0.2525 -0.2428
15013TIP3    H166530   4.827   5.156   0.868  0.6608  0.2952 -1.4200
15013TIP3    H266531   4.704   5.074   0.834 -0.4969  1.0705  0.7342
15014TIP3   OH266532   0.171   2.838   2.650 -0.5849 -0.4921 -0.4703
15014TIP3    H166533   0.154   2.746   2.629 -1.8970  0.1434 -2.4143
15014TIP3    H266534   0.104   2.861   2.714 -0.0696 -0.9255  0.2519
15015TIP3   OH266535   4.151   0.337  11.506  0.1263  0.3250  0.0184
15015TIP3    H166536   4.079   0.396  11.529 -0.1998 -0.4882  1.2283
15015TIP3    H266537   4.128   0.255  11.550  0.9965 -0.4341 -0.9148
15016TIP3   OH266538   0.233   2.028  12.199 -0.6177  0.1606  0.2680
15016TIP3    H166539   0.241   2.044  12.105  3.3440  1.0454  0.5886
15016TIP3    H266540   0.245   2.114  12.239 -0.8735 -0.4067  1.5907
15017TIP3   OH266541   2.153   4.880   5.008  0.6062  0.7193 -0.0609
15017TIP3    H166542   2.065   4.913   4.994  0.0370  0.2923  2.1261
15017TIP3    H266543   2.204   4.957   5.034  0.3513  0.6134  0.7588
15018TIP3   OH266544   2.261   4.029  13.437  0.3204  0.2572  0.0124
15018TIP3    H166545   2.335   4.038  13.376 -0.9201  1.9719 -1.3627
15018TIP3    H266546   2.217   3.949  13.409 -0.3939  1.1713 -1.6188
15019TIP3   OH266547   0.556   1.689  15.147  0.3748  0.1910  0.1287
15019TIP3    H166548   0.593   1.620  15.203 -0.4220  0.7231  1.3543
15019TIP3    H266549   0.632   1.741  15.121  0.5621  1.6165  3.0794
15020TIP3   OH266550   4.400   3.583   3.567 -0.3347 -0.1420  0.0051
15020TIP3    H166551   4.380   3.642   3.639 -1.2763 -0.5300  0.0803
15020TIP3    H266552   4.361   3.499   3.593 -0.6867 -0.2862 -0.9470
15021TIP3   OH266553   3.345   0.389   3.251 -0.4266  0.3610 -0.2951
15021TIP3    H166554   3.281   0.389   3.322 -0.2568  1.2996 -0.1231
15021TIP3    H266555   3.295   0.370   3.172 -0.4511 -1.7783  0.1884
15022TIP3   OH266556   3.395   1.769  14.418 -0.2951 -0.1048  0.1500
15022TIP3    H166557   3.309   1.793  14.454  0.6591 -0.2527  2.7135
15022TIP3    H266558   3.451   1.844  14.440 -0.0823  0.8768 -3.1798
15023TIP3   OH266559   5.161   0.884   2.009 -0.2817  0.2001 -0.0070
15023TIP3    H166560   5.165   0.820   2.080 -0.1856  0.0170 -0.1760
15023TIP3    H266561   5.243   0.932   2.015 -0.7471  0.9274  0.6948
15024TIP3   OH266562   6.239   6.621   3.653 -0.1686  0.1854 -0.2501
15024TIP3    H166563   6.275   6.542   3.613  1.4335  1.0270 -0.5532
15024TIP3    H266564   6.269   6.618   3.744 -0.3177  0.3226 -0.1957
15025TIP3   OH266565   1.025   3.938  14.557 -0.2969 -0.0315 -0.3803
15025TIP3    H166566   1.066   4.024  14.566  1.8059 -0.9223 -0.8599
15025TIP3    H266567   1.080   3.892  14.494 -3.0161 -0.8140 -2.3477
15026TIP3   OH266568   1.536   3.360   1.853  0.4434  0.0758  0.1790
15026TIP3    H166569   1.568   3.390   1.768 -1.5956 -0.0274 -0.6633
15026TIP3    H266570   1.503   3.439   1.896  2.9179  0.4307  1.6329
15027TIP3   OH266571   3.546   0.074   1.043 -0.0552 -0.1959  0.2144
15027TIP3    H166572   3.625   0.107   0.999 -2.3480  0.9581 -3.5481
15027TIP3    H266573   3.520  -0.002   0.990 -1.0679 -1.0794  1.9035
15028TIP3   OH266574   4.253   0.690   3.218  0.3460 -0.5140  0.2256
15028TIP3    H166575   4.304   0.693   3.299 -0.4827 -2.5284  0.9168
15028TIP3    H266576   4.171   0.734   3.240  0.9664  0.9029 -0.2388
15029TIP3   OH266577   3.146   4.129  16.514  0.4558 -0.3531 -0.0268
15029TIP3    H166578   3.215   4.093  16.457  2.3596  0.1779  1.8100
15029TIP3    H266579   3.080   4.163  16.454 -0.2918 -4.4831 -1.9413
15030TIP3   OH266580   1.143   0.755  14.180  0.0420  0.0630  0.1608
15030TIP3    H166581   1.117   0.838  14.141 -0.9568 -1.2117 -2.0743
15030TIP3    H266582   1.082   0.741  14.252 -0.2457  0.9063  0.0839
15031TIP3   OH266583   5.521   1.020  15.013  0.4521 -0.1838  0.4795
15031TIP3    H166584   5.527   1.103  14.967  0.4328 -0.6671 -0.4255
15031TIP3    H266585   5.437   1.023  15.059  0.7397  0.5443  0.9746
15032TIP3   OH266586   5.044   3.046   5.694  0.3284  0.5574 -0.2931
15032TIP3    H166587   5.072   3.136   5.678 -0.4023  0.9215  0.3913
15032TIP3    H266588   5.109   2.992   5.649  0.7210  1.4264 -0.7924
15033TIP3   OH266589   1.927   3.898   5.063  0.1633 -0.1489  0.0656
15033TIP3    H166590   1.895   3.917   4.975 -2.0662  0.4509  0.9390
15033TIP3    H266591   2.022   3.895   5.054 -0.0094 -0.0124 -2.3331
15034TIP3   OH266592   4.330   4.968  12.688 -0.0559 -0.7379  0.0971
15034TIP3    H166593   4.390   5.029  12.644  0.0888 -0.7034  0.3371
15034TIP3    H266594   4.266   5.024  12.732  0.0657 -0.7551  0.3028
15035TIP3   OH266595   6.403   3.035  16.062  0.0951  0.8025  0.5220
15035TIP3    H166596   6.419   3.080  15.979  0.5003 -0.8828 -0.3685
15035TIP3    H266597   6.489   3.026  16.102 -0.1039  1.6464  1.1769
15036TIP3   OH266598   3.957   2.329  13.235 -0.5993 -0.4375  0.0518
15036TIP3    H166599   3.978   2.282  13.316 -2.1536  0.9795  1.3823
15036TIP3    H266600   4.041   2.364  13.205 -0.0687 -0.3910  1.4958
15037TIP3   OH266601   5.032   5.306  15.965 -0.2030  0.1698  0.2072
15037TIP3    H166602   4.944   5.274  15.984 -0.1007 -2.1848 -2.6374
15037TIP3    H266603   5.088   5.229  15.976  1.0596  0.9291 -0.7250
15038TIP3   OH266604   5.937   4.017   0.845  0.3179 -0.9229  0.0244
15038TIP3    H166605   5.868   4.073   0.808  2.3007  0.8970 -1.1387
15038TIP3    H266606   5.962   4.060   0.927  1.4843 -0.3641 -0.6054
15039TIP3   OH266607   2.564   4.150  12.272 -0.6137 -0.5628 -0.2838
15039TIP3    H166608   2.587   4.059  12.253  1.3500 -0.6998  2.2163
15039TIP3    H266609   2.638   4.201  12.239 -1.5709  0.1465 -1.4168
15040TIP3   OH266610   1.395   4.231  16.332 -0.1837 -0.2026 -0.1558
15040TIP3    H166611   1.363   4.220  16.242 -0.2880  2.2304 -0.4780
15040TIP3    H266612   1.489   4.248  16.322 -0.4309  1.4442  0.0285
15041TIP3   OH266613   0.769   2.858   3.747  0.2675  0.5441 -0.4669
15041TIP3    H166614   0.830   2.791   3.778  0.8626  1.5541  0.6365
15041TIP3    H266615   0.823   2.936   3.734 -0.9904  2.1075  2.6020
15042TIP3   OH266616   4.917   1.552  13.060 -0.2615 -0.4450 -0.1184
15042TIP3    H166617   4.906   1.491  12.986  0.7623  0.9368 -1.4766
15042TIP3    H266618   4.995   1.519  13.106 -0.2430 -0.6716 -0.3071
15043TIP3   OH266619   6.382   1.433  14.146 -0.0712  0.3638  0.0802
15043TIP3    H166620   6.347   1.413  14.232 -0.1513  0.9492  0.1883
15043TIP3    H266621   6.369   1.353  14.095 -0.5016  0.1907  0.4593
15044TIP3   OH266622   2.240   5.667   2.098  0.0660  0.5245  0.3229
15044TIP3    H166623   2.301   5.711   2.157  3.5675 -1.3765 -1.5804
15044TIP3    H266624   2.218   5.585   2.143  1.5870 -0.2646 -0.3099
15045TIP3   OH266625   4.005   3.766   2.008  0.4232  0.2851  0.1855
15045TIP3    H166626   3.933   3.714   1.974 -0.3443 -0.3457  2.6323
15045TIP3    H266627   4.044   3.712   2.077  0.4681  2.3394  1.8690
15046TIP3   OH266628   5.472   0.972   4.052 -0.2194  0.4113 -0.2907
15046TIP3    H166629   5.559   0.934   4.062  0.4532  1.6034 -1.2526
15046TIP3    H266630   5.435   0.927   3.975 -0.6011 -0.3260  0.3125
15047TIP3   OH266631   3.607   4.294   0.136  0.0154 -0.4245 -0.3017
15047TIP3    H166632   3.631   4.376   0.092  0.7514 -0.5705 -0.1850
15047TIP3    H266633   3.522   4.271   0.099 -1.8227  2.0783  1.9659
15048TIP3   OH266634   3.121   3.742  11.490  0.1727  0.0755 -0.0890
15048TIP3    H166635   3.192   3.694  11.532 -0.2659 -1.1236 -0.6647
15048TIP3    H266636   3.066   3.772  11.562  1.2300  1.0064  0.3635
15049TIP3   OH266637   4.084   1.969   4.011  0.5769  0.4588  0.3591
15049TIP3    H166638   4.021   1.992   4.080 -1.1492 -0.3601 -0.8581
15049TIP3    H266639   4.074   2.038   3.946 -0.3471 -0.5328 -0.6050
15050TIP3   OH266640   3.229   3.256  10.294 -0.2547 -0.0841 -0.4012
15050TIP3    H166641   3.182   3.222  10.370  0.3552  1.6919  0.8521
15050TIP3    H266642   3.160   3.291  10.237 -0.6898 -1.0303 -0.4657
15051TIP3   OH266643   4.197   3.423  15.750 -0.0262 -0.1862 -0.2998
15051TIP3    H166644   4.186   3.340  15.702 -0.1377 -1.5879  2.0166
15051TIP3    H266645   4.283   3.417  15.790 -0.1016  0.7629  0.0296
15052TIP3   OH266646   2.868   5.339  14.075 -0.4184 -0.3629 -0.5593
15052TIP3    H166647   2.814   5.262  14.058  1.9391 -2.5074  0.8740
15052TIP3    H266648   2.907   5.323  14.162  0.9379  1.9824 -0.6278
15053TIP3   OH266649   0.484   0.758   5.298  0.4301 -0.0513 -0.2964
15053TIP3    H166650   0.564   0.777   5.346  1.0970 -0.9640 -1.0033
15053TIP3    H266651   0.432   0.838   5.304  0.5053 -0.1243  1.8587
15054TIP3   OH266652   0.402   4.361   3.483 -0.3039 -0.4773 -0.1471
15054TIP3    H166653   0.485   4.361   3.435 -0.3141  0.4213 -0.1750
15054TIP3    H266654   0.346   4.301   3.434  0.6137 -1.8310  0.3890
15055TIP3   OH266655   1.340   4.949  15.222  0.2563 -0.1153 -0.9810
15055TIP3    H166656   1.287   4.942  15.142 -0.3729 -0.5572 -0.5396
15055TIP3    H266657   1.430   4.955  15.190  0.0650 -0.8540 -1.7251
15056TIP3   OH266658   0.220   0.993   3.294 -0.1167 -0.3298 -0.1103
15056TIP3    H166659   0.149   0.936   3.322 -1.3518  0.3936 -1.6176
15056TIP3    H266660   0.241   1.046   3.371 -2.1919  0.4144 -0.0121
15057TIP3   OH266661   3.542   0.278  11.836  0.5158  0.4887  0.1241
15057TIP3    H166662   3.456   0.284  11.795  0.5528 -0.0291 -0.0504
15057TIP3    H266663   3.540   0.194  11.882  0.1456  1.4674  1.9929
15058TIP3   OH266664   4.814   0.109   2.320  0.5388  0.6612  0.0752
15058TIP3    H166665   4.905   0.077   2.316  1.2147  2.1664  1.7858
15058TIP3    H266666   4.772   0.051   2.384  0.1888 -0.1726 -0.8755
15059TIP3   OH266667   2.048   6.202   0.365  0.2497 -0.0470  0.0899
15059TIP3    H166668   2.000   6.254   0.429 -1.0331 -0.0476 -0.8230
15059TIP3    H266669   2.013   6.230   0.280  0.4736 -1.4256 -0.4927
15060TIP3   OH266670   3.154   1.889  14.486  0.6228  0.2501 -0.4437
15060TIP3    H166671   3.099   1.829  14.537 -0.8445  1.4004 -0.6339
15060TIP3    H266672   3.131   1.976  14.517  3.7704  0.7599  0.8849
15061TIP3   OH266673   1.536   2.115   3.002 -0.4267  0.4141 -0.2407
15061TIP3    H166674   1.607   2.094   3.062  0.8905  2.6812 -0.9019
15061TIP3    H266675   1.525   2.035   2.950  0.0841 -0.7347  1.3240
15062TIP3   OH266676   3.758   0.000  16.058 -0.6160  0.7357 -0.2390
15062TIP3    H166677   3.673   0.032  16.088 -0.6806 -0.0369  0.4204
15062TIP3    H266678   3.810   0.080  16.044 -0.1033  1.1927  3.2840
15063TIP3   OH266679   0.384   0.643  12.363 -0.6811  0.2872 -0.3190
15063TIP3    H166680   0.338   0.649  12.447 -0.1922  0.0184 -0.0275
15063TIP3    H266681   0.439   0.565  12.371  0.2174  0.8793 -0.4557
15064TIP3   OH266682   4.185   1.924  13.938  0.7069 -0.2903  0.0714
15064TIP3    H166683   4.203   1.959  14.025 -1.1557 -0.4999  0.5809
15064TIP3    H266684   4.092   1.900  13.940  0.8777 -1.2752 -1.6391
15065TIP3   OH266685   3.240   6.602  15.858 -0.2126 -0.1690  0.0920
15065TIP3    H166686   3.216   6.517  15.820  3.0259 -0.9182 -0.5530
15065TIP3    H266687   3.274   6.653  15.784  0.3385  0.7090  0.9145
15066TIP3   OH266688   0.368   6.173  11.290 -0.0192 -0.1662 -0.4324
15066TIP3    H166689   0.437   6.230  11.257  2.5854 -1.5573  2.0776
15066TIP3    H266690   0.313   6.230  11.344 -0.2405  0.7796 -1.6342
15067TIP3   OH266691   6.224   5.679  13.875 -0.2424  0.3630  0.3698
15067TIP3    H166692   6.274   5.678  13.793 -0.2351 -2.7719  0.3117
15067TIP3    H266693   6.150   5.621  13.859  0.2123 -1.0149  2.8227
15068TIP3   OH266694   4.972   1.415  14.505  0.2205  0.2342 -0.0919
15068TIP3    H166695   5.036   1.473  14.547  0.8834 -0.0747 -0.6415
15068TIP3    H266696   4.896   1.471  14.488  1.4366  1.3929 -2.0794
15069TIP3   OH266697   5.786   1.335   2.041  0.2005  0.0389 -0.1293
15069TIP3    H166698   5.836   1.290   2.109 -0.2391 -0.9952 -0.4711
15069TIP3    H266699   5.706   1.363   2.085  0.4094  0.3628  0.0485
15070TIP3   OH266700   2.458   4.403   0.537  0.1527  0.1606  0.1476
15070TIP3    H166701   2.519   4.335   0.511  0.2359  0.6814 -1.0996
15070TIP3    H266702   2.472   4.414   0.631 -0.0829 -1.7413  0.4502
15071TIP3   OH266703   2.889   3.863  16.218  0.0445  0.0056  0.5266
15071TIP3    H166704   2.847   3.944  16.190 -0.5485 -0.9097 -1.4229
15071TIP3    H266705   2.831   3.794  16.186  2.4462 -1.2972 -1.3262
15072TIP3   OH266706   1.606   2.454   3.975  0.4264  0.0662  0.6015
15072TIP3    H166707   1.632   2.399   4.048 -1.1605  1.2092  2.1055
15072TIP3    H266708   1.578   2.392   3.907 -1.5016 -1.0391  2.3144
15073TIP3   OH266709   0.226   4.384   6.491  0.3104 -0.6963 -0.3078
15073TIP3    H166710   0.255   4.306   6.537 -0.2554 -0.6466  0.1330
15073TIP3    H266711   0.193   4.442   6.559 -0.5456 -0.6278 -0.7654
15074TIP3   OH266712   0.224   3.915   5.063  0.2442 -0.0013 -0.3234
15074TIP3    H166713   0.263   3.880   5.143 -0.3566  0.6436  0.2588
15074TIP3    H266714   0.143   3.955   5.091  0.6558  1.4005 -1.0512
15075TIP3   OH266715   1.404   4.454  11.218  0.0300 -0.2673 -0.7229
15075TIP3    H166716   1.321   4.470  11.262 -0.1888 -2.1697 -0.3518
15075TIP3    H266717   1.457   4.531  11.238 -1.4429  0.7323 -0.5274
15076TIP3   OH266718   2.450   0.024  15.120 -0.0607 -0.5186 -0.3519
15076TIP3    H166719   2.374   0.045  15.175 -0.3158 -2.3623  0.0598
15076TIP3    H266720   2.431   0.066  15.036 -1.5501 -0.9339 -0.2564
15077TIP3   OH266721   3.724   0.424   2.122  0.0851 -0.8094 -0.0669
15077TIP3    H166722   3.771   0.361   2.067  0.4069  1.3366 -2.4144
15077TIP3    H266723   3.673   0.476   2.061  0.0613  1.4208  1.7291
15078TIP3   OH266724   3.746   3.864   1.067  0.2513 -0.1323 -0.6524
15078TIP3    H166725   3.728   3.815   0.987  3.0239  1.2511 -2.2462
15078TIP3    H266726   3.751   3.955   1.039  0.4056  0.5008  1.2781
15079TIP3   OH266727   2.120   3.363   2.394  0.1890 -1.0837  0.1425
15079TIP3    H166728   2.121   3.438   2.335  0.1202 -0.6034  0.7370
15079TIP3    H266729   2.031   3.327   2.386 -0.6716  0.5060  1.7997
15080TIP3   OH266730   1.668   4.275   4.865 -0.8678 -0.5157 -0.0907
15080TIP3    H166731   1.661   4.206   4.799 -1.2262 -2.1371  1.5751
15080TIP3    H266732   1.745   4.326   4.838 -0.3129 -1.8307 -1.1058
15081TIP3   OH266733   0.436   4.736  13.522  1.1728 -0.6922 -0.0915
15081TIP3    H166734   0.388   4.669  13.571 -0.2852 -0.1103 -0.6799
15081TIP3    H266735   0.447   4.699  13.435  2.8169 -1.2803  0.3360
15082TIP3   OH266736   2.979   2.525  16.964 -0.1384 -0.2141  0.1773
15082TIP3    H166737   2.950   2.467  17.034  0.0360  1.1130  1.3970
15082TIP3    H266738   2.947   2.612  16.990  0.2685  0.3753 -1.1985
15083TIP3   OH266739   0.202   0.898   5.939 -0.2747 -0.1409  0.1220
15083TIP3    H166740   0.226   0.821   5.887  1.4268  0.1434  0.4416
15083TIP3    H266741   0.217   0.872   6.030 -1.9335 -0.1772  0.4159
15084TIP3   OH266742   0.192   5.668  10.987 -0.2047  0.2530  0.4226
15084TIP3    H166743   0.143   5.741  11.027 -2.6380 -0.9821 -0.0835
15084TIP3    H266744   0.217   5.700  10.901 -2.2402  0.1993 -0.2437
15085TIP3   OH266745   5.122   0.665   4.311 -0.0411  0.1551  0.3152
15085TIP3    H166746   5.095   0.738   4.366  0.3552 -0.3309  1.1885
15085TIP3    H266747   5.192   0.700   4.256  0.3348  0.3598  0.9236
15086TIP3   OH266748   2.323   3.879   2.812  0.4231  0.0970 -0.1186
15086TIP3    H166749   2.239   3.911   2.845  0.3635  0.1220 -0.2915
15086TIP3    H266750   2.307   3.788   2.786  0.4874  0.0547 -0.0103
15087TIP3   OH266751   1.164   0.791  16.685 -0.7117 -0.2532  0.0821
15087TIP3    H166752   1.227   0.733  16.643 -0.2134  0.8721 -0.7767
15087TIP3    H266753   1.105   0.818  16.615 -1.1372  0.0364  0.5395
15088TIP3   OH266754   4.388   1.495   3.901 -0.1711 -0.1945  0.1686
15088TIP3    H166755   4.373   1.589   3.910  1.2006 -0.0441  1.0488
15088TIP3    H266756   4.452   1.473   3.968  2.1420 -1.1237 -2.1440
15089TIP3   OH266757   6.211   1.688  11.992  0.1711 -0.0829 -0.3888
15089TIP3    H166758   6.219   1.594  12.010  1.7361  0.2098  0.6955
15089TIP3    H266759   6.186   1.725  12.077  1.2073  0.6399 -0.3852
15090TIP3   OH266760   2.336   5.004  11.218 -0.2923  0.1964 -0.2980
15090TIP3    H166761   2.331   5.081  11.274  0.1171 -1.1548  1.7246
15090TIP3    H266762   2.349   4.931  11.279 -2.3084 -1.7099 -1.9636
15091TIP3   OH266763   2.885   1.006  15.303  0.3760  0.2474 -0.1177
15091TIP3    H166764   2.866   1.007  15.209 -0.2741 -1.7432 -0.0575
15091TIP3    H266765   2.818   1.061  15.342 -0.8841 -0.8621 -0.6237
15092TIP3   OH266766   3.647   0.880   5.091 -0.1927  0.0594  0.1561
15092TIP3    H166767   3.724   0.847   5.139  0.3461 -1.6995 -1.7840
15092TIP3    H266768   3.584   0.808   5.097 -0.0373 -0.2869 -1.8411
15093TIP3   OH266769   2.071   3.751   3.071  0.8281 -0.3196 -0.1692
15093TIP3    H166770   2.150   3.707   3.104  0.1146 -2.2795 -0.9283
15093TIP3    H266771   2.060   3.717   2.982 -0.9894 -0.2686  0.0006
15094TIP3   OH266772   2.271   5.118   2.357 -0.1752  0.0533 -0.2413
15094TIP3    H166773   2.334   5.072   2.412  0.6130  1.3705 -0.0008
15094TIP3    H266774   2.285   5.084   2.269 -0.4014 -0.9733  0.1053
15095TIP3   OH266775   3.734   5.446   0.863  1.2017 -0.1270  0.4452
15095TIP3    H166776   3.783   5.500   0.800  1.7452  0.2220  1.1527
15095TIP3    H266777   3.726   5.502   0.940  0.4038 -0.4968  0.6336
15096TIP3   OH266778   4.187   4.138   6.504  0.6003 -0.2629  0.3746
15096TIP3    H166779   4.111   4.196   6.514  0.9351  0.0239  1.4358
15096TIP3    H266780   4.163   4.058   6.550  0.5546 -0.5538 -0.1571
15097TIP3   OH266781   2.772   4.437   0.809  0.3887  0.6071  0.8271
15097TIP3    H166782   2.825   4.498   0.757  0.1368  0.5521  0.4989
15097TIP3    H266783   2.830   4.363   0.826  0.2176  0.2400 -0.1139
15098TIP3   OH266784   0.813   4.462   3.760  0.1980 -0.2225 -0.2542
15098TIP3    H166785   0.798   4.508   3.843  0.5476 -1.4861  0.5266
15098TIP3    H266786   0.862   4.526   3.707 -1.6536  1.3025 -0.2334
15099TIP3   OH266787   2.581   4.374  12.609 -0.7482 -0.0866 -0.2832
15099TIP3    H166788   2.613   4.456  12.571  0.9331 -0.2020  0.7838
15099TIP3    H266789   2.573   4.392  12.703  0.2050 -1.2791  0.0576
15100TIP3   OH266790   3.173   4.977   5.791 -0.0402  0.1016  0.1871
15100TIP3    H166791   3.118   5.036   5.842 -0.9467 -0.4768 -0.0910
15100TIP3    H266792   3.112   4.917   5.750  0.7263  0.0885 -0.9923
15101TIP3   OH266793   4.311   4.293   6.302  0.7343 -0.1715 -0.3954
15101TIP3    H166794   4.232   4.314   6.251  1.1384  2.4511 -0.0628
15101TIP3    H266795   4.278   4.249   6.380 -0.4123  0.7575 -0.3342
15102TIP3   OH266796   3.390   3.035   1.376 -0.5189 -0.2013 -0.1692
15102TIP3    H166797   3.404   2.998   1.463 -2.1500 -3.2579 -1.0587
15102TIP3    H266798   3.330   3.108   1.391  0.4554  0.3241  1.3870
15103TIP3   OH266799   2.912   2.734  17.148  0.2907  0.0813 -0.6542
15103TIP3    H166800   2.899   2.770  17.235 -2.8040 -3.2177  0.4835
15103TIP3    H266801   2.996   2.688  17.153  0.2415  0.1004  0.5391
15104TIP3   OH266802   2.555   1.135  15.122  0.5775 -0.2239  0.1634
15104TIP3    H166803   2.568   1.165  15.212 -0.8318  0.1340  0.2718
15104TIP3    H266804   2.507   1.053  15.131 -0.6646  0.4296 -0.2719
15105TIP3   OH266805   6.447   1.289   2.599 -0.5314  0.7495  0.6389
15105TIP3    H166806   6.541   1.288   2.619 -0.3998 -1.5752  0.1867
15105TIP3    H266807   6.443   1.322   2.509 -0.0796  0.2620  0.4345
15106TIP3   OH266808   0.765   2.316   1.757 -0.2664  0.3531 -0.5884
15106TIP3    H166809   0.845   2.264   1.744 -0.5029 -0.2437  0.2591
15106TIP3    H266810   0.796   2.405   1.771  0.1739  0.3715 -1.5606
15107TIP3   OH266811   2.515   0.838  15.125 -0.0830  0.1023 -0.1496
15107TIP3    H166812   2.449   0.770  15.121  1.0283 -1.1331  1.2050
15107TIP3    H266813   2.597   0.791  15.143  0.7773  1.7547  0.4652
15108TIP3   OH266814   3.086   0.783  12.070  0.0505 -0.2887 -0.4404
15108TIP3    H166815   3.143   0.715  12.033  1.2284 -0.1143  0.9531
15108TIP3    H266816   3.147   0.847  12.108 -1.0487 -0.8125  2.4068
15109TIP3   OH266817   3.597   6.339   6.166  0.2245 -0.1926 -0.0338
15109TIP3    H166818   3.567   6.429   6.167  0.5514 -0.0680  1.8414
15109TIP3    H266819   3.646   6.329   6.248  3.0405 -1.1249 -1.7038
15110TIP3   OH266820   3.113   2.208  14.658  0.0002 -0.1333  0.1779
15110TIP3    H166821   3.115   2.187  14.565  0.5951 -1.4172  0.4583
15110TIP3    H266822   3.202   2.236  14.678  0.1169 -0.7507  0.5447
15111TIP3   OH266823   0.188   3.086  13.598  0.2659 -0.3317  0.0639
15111TIP3    H166824   0.093   3.071  13.593 -0.2093  0.8011  3.3325
15111TIP3    H266825   0.226   3.000  13.584 -1.4162 -1.3554  1.3953
15112TIP3   OH266826   3.954   0.941   1.287 -0.5994 -0.1849  0.0239
15112TIP3    H166827   3.967   0.899   1.372 -0.0647 -1.3437 -0.6150
15112TIP3    H266828   3.866   0.978   1.292 -0.8737 -0.9219  0.8068
15113TIP3   OH266829   0.836   6.248  14.574  0.5532 -0.3618  0.4930
15113TIP3    H166830   0.883   6.286  14.648  1.3523  0.8546 -0.6068
15113TIP3    H266831   0.759   6.206  14.614  0.0655  1.6901  1.8634
15114TIP3   OH266832   2.185   5.322   0.773  0.3837  0.3320  0.2477
15114TIP3    H166833   2.252   5.366   0.721  0.6103  1.8256  1.7220
15114TIP3    H266834   2.228   5.303   0.857 -0.4142 -0.6081  0.4654
15115TIP3   OH266835   3.997   2.638  11.746  0.0794 -0.4958  0.0742
15115TIP3    H166836   3.925   2.576  11.734 -0.8866  0.4274  0.8878
15115TIP3    H266837   3.988   2.667  11.837 -0.3047  1.8003 -0.6363
15116TIP3   OH266838   5.323   0.101  15.233  0.1218 -0.1533  0.3711
15116TIP3    H166839   5.272   0.180  15.249 -0.4788 -0.5057  0.2203
15116TIP3    H266840   5.328   0.095  15.137  1.1324  0.3093  0.3789
15117TIP3   OH266841   2.958   5.012   1.971 -0.4856  0.4375  0.0410
15117TIP3    H166842   3.053   5.025   1.975 -0.0697 -2.2372  1.6675
15117TIP3    H266843   2.936   4.973   2.056 -3.0866  1.0259 -0.2784
15118TIP3   OH266844   0.605   0.123   1.759 -0.1215 -0.6984  0.7304
15118TIP3    H166845   0.637   0.206   1.795 -1.4597  0.0438  0.2926
15118TIP3    H266846   0.683   0.078   1.728  0.4821  1.1890 -0.6193
15119TIP3   OH266847   2.147   2.569   3.765 -0.6514 -0.5757 -0.0295
15119TIP3    H166848   2.179   2.515   3.693 -1.4681 -0.7770 -0.2546
15119TIP3    H266849   2.212   2.558   3.834  0.0892 -0.4593 -0.6899
15120TIP3   OH266850   1.658   2.118  11.085  0.2296  0.1786  0.3194
15120TIP3    H166851   1.606   2.175  11.030 -1.4580 -0.7097  0.9291
15120TIP3    H266852   1.650   2.031  11.045  0.1213 -0.2117  1.1503
15121TIP3   OH266853   5.819   2.547  16.604  0.1982  0.0958 -0.0986
15121TIP3    H166854   5.816   2.639  16.578 -4.6684  1.0582  2.7048
15121TIP3    H266855   5.737   2.532  16.651  0.4808 -5.8669 -0.7064
15122TIP3   OH266856   1.890   4.444   4.792 -0.3542  0.0943 -0.3078
15122TIP3    H166857   1.982   4.459   4.814 -0.6361 -0.7642  1.6933
15122TIP3    H266858   1.850   4.531   4.798  0.1587  0.3361 -0.2979
15123TIP3   OH266859   0.384   2.296   6.235 -0.1048  0.0771 -0.2681
15123TIP3    H166860   0.320   2.356   6.197  1.1472  1.7471  0.1232
15123TIP3    H266861   0.416   2.245   6.161  1.3068  2.3241 -1.3245
15124TIP3   OH266862   0.165   1.542   3.052  0.1497 -0.4710  0.4619
15124TIP3    H166863   0.169   1.632   3.021  0.2540 -0.5344  0.2908
15124TIP3    H266864   0.235   1.497   3.005 -0.1937 -0.7458  0.2007
15125TIP3   OH266865   3.266   3.338  15.917  0.1319  0.5616  0.5081
15125TIP3    H166866   3.341   3.397  15.919  1.6475 -1.2848  1.1619
15125TIP3    H266867   3.287   3.275  15.848 -1.0256  0.2515  0.4141
15126TIP3   OH266868   5.239   0.573   3.184 -0.7162 -0.0108 -0.0610
15126TIP3    H166869   5.175   0.546   3.118 -1.2052 -0.3170  0.5266
15126TIP3    H266870   5.187   0.587   3.263 -0.0473 -0.3457  0.4471
15127TIP3   OH266871   4.299   3.513  16.829 -0.1521  0.5039 -0.7023
15127TIP3    H166872   4.262   3.589  16.873 -0.0605  0.7005 -0.9605
15127TIP3    H266873   4.296   3.535  16.736  1.1142  0.7559 -0.7031
15128TIP3   OH266874   5.764   0.231  12.962 -0.6044  0.4685  0.0244
15128TIP3    H166875   5.778   0.282  12.882  1.1494 -0.2562 -0.1695
15128TIP3    H266876   5.804   0.284  13.031 -2.9673  1.5650  0.6569
15129TIP3   OH266877   4.761   1.029   5.590 -0.1077  0.1485  0.2103
15129TIP3    H166878   4.742   1.072   5.674 -0.2866 -2.0335  1.3555
15129TIP3    H266879   4.714   0.946   5.594  1.0646 -0.6572 -1.4475
15130TIP3   OH266880   5.902   3.040   4.521  0.6195  0.6713 -0.3138
15130TIP3    H166881   5.928   2.962   4.570  0.2621  1.8954  1.9607
15130TIP3    H266882   5.918   3.017   4.430 -0.5816 -2.5122  0.1306
15131TIP3   OH266883   1.469   3.898   6.206  0.1770  0.3244  0.0952
15131TIP3    H166884   1.558   3.863   6.215  0.0895 -0.0828 -0.6249
15131TIP3    H266885   1.414   3.821   6.193 -0.2901  0.5786  0.5222
15132TIP3   OH266886   3.413   5.333  14.186  0.4293  0.4683 -0.2978
15132TIP3    H166887   3.342   5.318  14.124 -0.1513 -1.4988  0.7682
15132TIP3    H266888   3.491   5.296  14.142  0.2664  0.2222 -0.3843
15133TIP3   OH266889   4.374   3.379   6.085  0.4532 -0.0581 -0.1114
15133TIP3    H166890   4.446   3.420   6.037  0.2219  0.8288  0.2753
15133TIP3    H266891   4.412   3.355   6.169  0.6931 -1.0311 -0.4841
15134TIP3   OH266892   6.565   6.739   2.449  0.0684  0.3387 -0.7908
15134TIP3    H166893   6.626   6.769   2.382  0.0138  0.3232 -0.8478
15134TIP3    H266894   6.592   6.649   2.468 -0.2395  0.1623 -1.1727
15135TIP3   OH266895   1.650   1.343   3.401  0.2311 -0.1315  0.5072
15135TIP3    H166896   1.561   1.366   3.372  0.4582 -1.2391 -1.2406
15135TIP3    H266897   1.637   1.270   3.460 -0.0069 -0.6930 -0.2212
15136TIP3   OH266898   1.222   5.042   2.188 -0.1748  0.2688 -0.2050
15136TIP3    H166899   1.144   5.055   2.242 -0.6590 -0.9921 -0.5603
15136TIP3    H266900   1.292   5.027   2.251 -0.4660  0.1366  0.0916
15137TIP3   OH266901   5.761   4.972  15.536  0.0832  0.0621 -0.5222
15137TIP3    H166902   5.679   4.956  15.582  1.1045  0.1915  1.4612
15137TIP3    H266903   5.797   5.051  15.578  1.7807 -0.6809 -0.4887
15138TIP3   OH266904   6.673   5.866   4.591 -0.0459  0.3143 -0.2338
15138TIP3    H166905   6.635   5.805   4.655  1.3300 -0.5602 -0.2138
15138TIP3    H266906   6.629   5.843   4.508  1.9941 -2.3472 -0.7296
15139TIP3   OH266907   3.645   3.080  14.678 -0.0984  0.0818  0.2461
15139TIP3    H166908   3.732   3.120  14.669 -0.5290  1.2327  0.9702
15139TIP3    H266909   3.588   3.135  14.625 -0.4931 -0.2885  0.2832
15140TIP3   OH266910   6.772   4.217   3.887  0.0040  0.0543  0.8002
15140TIP3    H166911   6.774   4.305   3.925  0.0113  0.5097 -0.2203
15140TIP3    H266912   6.839   4.169   3.934 -0.4857  0.3858  1.8620
15141TIP3   OH266913   1.049   5.240   4.136  0.0036  0.0416  0.0338
15141TIP3    H166914   1.029   5.151   4.165 -0.4983 -0.3804 -1.4882
15141TIP3    H266915   1.144   5.242   4.128  0.1589  0.1966  1.6926
15142TIP3   OH266916   6.171   2.433   3.947  0.1675  0.0504  0.4038
15142TIP3    H166917   6.141   2.420   4.037  0.0812 -0.5451  0.2907
15142TIP3    H266918   6.170   2.346   3.908 -0.5733  0.4167 -0.4268
15143TIP3   OH266919   5.421   0.789   2.919  0.5119  0.0291  0.3912
15143TIP3    H166920   5.347   0.761   2.972 -0.3249  0.7305 -0.3808
15143TIP3    H266921   5.422   0.885   2.928  0.7365  0.1023 -0.3470
15144TIP3   OH266922   5.009   3.765   2.005 -0.3909 -0.1033  0.2013
15144TIP3    H166923   4.967   3.731   1.926  0.1008  0.4376 -0.3050
15144TIP3    H266924   5.103   3.760   1.986 -0.2795  0.4879  0.5533
15145TIP3   OH266925   6.757   5.969   1.107 -0.0449 -0.0818 -0.3191
15145TIP3    H166926   6.711   6.044   1.145  2.0830  1.7601 -1.1444
15145TIP3    H266927   6.705   5.947   1.029 -0.1346  1.2518 -0.6647
15146TIP3   OH266928   3.094   0.914   1.937 -0.4026  0.3365  0.2034
15146TIP3    H166929   3.081   0.821   1.959  0.2159  0.4988  1.3616
15146TIP3    H266930   3.032   0.931   1.867 -2.9248 -0.1308  2.1867
15147TIP3   OH266931   2.231   2.588   1.668  0.2034  0.2149 -0.6259
15147TIP3    H166932   2.168   2.556   1.604  1.0895  1.3872 -2.1573
15147TIP3    H266933   2.303   2.526   1.664  0.2910  0.3293 -0.8231
15148TIP3   OH266934   0.123   2.962   6.288 -0.4932 -0.0719 -0.0360
15148TIP3    H166935   0.123   3.058   6.282  0.1859 -0.1320 -1.2728
15148TIP3    H266936   0.129   2.932   6.197 -1.2460 -1.3058  0.3014
15149TIP3   OH266937   2.168   4.988  12.971  0.1849  0.6350 -0.4366
15149TIP3    H166938   2.206   5.054  12.913 -0.3226 -0.4224 -2.0345
15149TIP3    H266939   2.095   4.952  12.922  0.1621 -0.7999  0.5790
15150TIP3   OH266940   0.526   2.103  13.450  0.0472  0.4651 -0.4116
15150TIP3    H166941   0.471   2.148  13.515 -0.0239 -0.0331 -0.1271
15150TIP3    H266942   0.615   2.121  13.479  0.0116 -0.6638  0.4613
15151TIP3   OH266943   6.200   4.727   0.752  0.7878 -0.0554  0.3128
15151TIP3    H166944   6.234   4.723   0.841  2.1467  0.9970 -0.1199
15151TIP3    H266945   6.275   4.753   0.699  0.0081 -0.6971 -1.1490
15152TIP3   OH266946   2.675   4.327  11.029 -0.4048 -0.4347  0.3143
15152TIP3    H166947   2.631   4.335  10.944  0.0823 -0.9414  0.0039
15152TIP3    H266948   2.608   4.291  11.087 -0.5582 -0.6861 -0.0140
15153TIP3   OH266949   3.932   6.216  15.919 -0.3150 -0.0010  0.1034
15153TIP3    H166950   3.873   6.153  15.878 -0.1505  0.8961 -1.6018
15153TIP3    H266951   4.010   6.217  15.863  0.7725 -0.1377  1.5315
15154TIP3   OH266952   6.151   4.388  14.188 -0.6413 -0.6270 -0.0086
15154TIP3    H166953   6.109   4.379  14.103  1.4594 -0.3078 -1.1551
15154TIP3    H266954   6.244   4.370  14.171  0.1348  1.1374  1.8540
15155TIP3   OH266955   4.683   3.409  15.140  0.1935 -0.2093 -0.1345
15155TIP3    H166956   4.660   3.447  15.055  1.8182  3.1790  0.7770
15155TIP3    H266957   4.668   3.479  15.203  1.4728 -1.7719  2.0626
15156TIP3   OH266958   2.390   1.260   1.839 -0.0638 -0.0356  0.0438
15156TIP3    H166959   2.318   1.199   1.858 -0.8957  1.2913  1.4169
15156TIP3    H266960   2.459   1.235   1.900 -0.6244  0.7097  1.0197
15157TIP3   OH266961   5.640   2.651   0.194 -0.2870 -0.1115  0.0420
15157TIP3    H166962   5.645   2.640   0.289  0.5355  3.0307  0.4752
15157TIP3    H266963   5.560   2.701   0.180 -1.3031 -1.9907 -1.1514
15158TIP3   OH266964   6.801   4.461   0.288 -0.3484 -0.2264 -0.0178
15158TIP3    H166965   6.768   4.491   0.372 -0.7030 -2.2848  0.6499
15158TIP3    H266966   6.826   4.370   0.303  1.8324  0.0262 -1.5569
15159TIP3   OH266967   4.765   6.821   0.692 -0.2523  0.3460  0.1878
15159TIP3    H166968   4.811   6.893   0.736  0.0400  0.1011  0.2915
15159TIP3    H266969   4.686   6.861   0.655  0.3513  0.9115 -0.5232
15160TIP3   OH266970   1.393   6.594  11.750  0.0679  0.0385  0.6890
15160TIP3    H166971   1.416   6.505  11.724  0.8120  0.3171  0.3464
15160TIP3    H266972   1.405   6.646  11.671 -0.1165  0.4829  0.9488
15161TIP3   OH266973   3.062   5.085   0.855 -0.2221 -0.0685  0.7058
15161TIP3    H166974   3.128   5.150   0.831 -0.4530  0.0308  0.3263
15161TIP3    H266975   3.076   5.013   0.794 -0.4662 -0.0423  0.6159
15162TIP3   OH266976   2.937   3.041  12.377 -0.2717  0.1467 -0.2714
15162TIP3    H166977   2.976   2.985  12.444  0.9976  1.6283  0.2837
15162TIP3    H266978   2.898   3.114  12.426 -0.1011  0.7984 -1.0842
15163TIP3   OH266979   5.838   5.277  15.259 -0.0940  0.1382  0.2810
15163TIP3    H166980   5.886   5.341  15.208 -0.6177 -0.1051 -0.5469
15163TIP3    H266981   5.779   5.329  15.314 -0.0509  0.3926  0.0889
15164TIP3   OH266982   5.727   1.304  15.516 -0.3348  0.6854  0.0506
15164TIP3    H166983   5.703   1.211  15.514 -1.8592  1.0530 -0.1033
15164TIP3    H266984   5.728   1.327  15.609  1.0973  0.2733  0.1488
15165TIP3   OH266985   6.302   3.007   6.183  0.2641 -0.0496  0.0347
15165TIP3    H166986   6.214   2.968   6.191  0.2886  0.1606  1.7218
15165TIP3    H266987   6.317   3.012   6.089 -1.0795 -1.1180 -0.2783
15166TIP3   OH266988   3.024   1.074   4.899  0.4906  0.2658  0.1326
15166TIP3    H166989   3.076   1.097   4.823  1.9313  1.8333  1.5095
15166TIP3    H266990   2.933   1.081   4.870  0.9975  1.3075 -1.2838
15167TIP3   OH266991   1.684   2.836  13.753  0.2815 -0.2777 -0.1150
15167TIP3    H166992   1.721   2.781  13.822  0.2281 -0.9018 -0.5766
15167TIP3    H266993   1.721   2.923  13.769 -0.1723 -0.2858  1.0249
15168TIP3   OH266994   3.425   2.786   2.579  0.0420  0.1511 -0.3012
15168TIP3    H166995   3.335   2.770   2.606 -0.4373  1.7051 -0.8753
15168TIP3    H266996   3.443   2.719   2.513 -0.7883  0.0262 -0.4099
15169TIP3   OH266997   3.632   0.192  13.009  0.0669 -0.1608 -0.3437
15169TIP3    H166998   3.573   0.127  12.971  0.2047 -0.4494 -0.0729
15169TIP3    H266999   3.701   0.202  12.944 -0.4133  0.3798 -0.7831
15170TIP3   OH267000   1.675   1.832   3.661 -0.6917 -0.1783  0.7077
15170TIP3    H167001   1.639   1.799   3.743  2.8269  0.3618  2.6439
15170TIP3    H267002   1.696   1.924   3.679  2.7993 -0.7747  0.2999
15171TIP3   OH267003   6.050   1.829  11.361 -0.4221 -0.0553  0.3431
15171TIP3    H167004   6.128   1.805  11.411 -1.6358 -2.5678  1.1529
15171TIP3    H267005   6.084   1.853  11.274  1.3661  0.5684  1.1693
15172TIP3   OH267006   5.573   4.132  16.880  0.5094  0.3325  0.1944
15172TIP3    H167007   5.498   4.178  16.841 -0.3211 -1.4830 -0.4575
15172TIP3    H267008   5.646   4.193  16.871 -0.6582  1.7316 -0.1285
15173TIP3   OH267009   5.836   2.109   2.171 -0.0166  0.6148 -0.1886
15173TIP3    H167010   5.931   2.099   2.178 -0.0256  1.4860  2.2751
15173TIP3    H267011   5.807   2.032   2.123  1.9791  0.7086 -1.6675
15174TIP3   OH267012   4.051   2.266  12.507  0.0599  0.0060  0.0787
15174TIP3    H167013   4.051   2.171  12.523 -1.3047  0.3782  2.7691
15174TIP3    H267014   3.981   2.300  12.563  1.4384  2.7931  0.2680
15175TIP3   OH267015   0.951   0.930   0.916  0.3417  0.0104  0.3955
15175TIP3    H167016   0.888   0.907   0.985  1.0539  1.0811  1.4602
15175TIP3    H267017   1.023   0.867   0.928 -0.8910 -1.8699 -1.4687
15176TIP3   OH267018   4.288   5.742  16.524  0.2960  0.1295 -0.4779
15176TIP3    H167019   4.288   5.691  16.443  1.0251  0.0182 -0.4184
15176TIP3    H267020   4.335   5.823  16.501  0.9493 -0.1166 -0.0474
15177TIP3   OH267021   3.789   3.238  11.445 -0.3788 -0.1557  0.3852
15177TIP3    H167022   3.832   3.296  11.508 -1.2499  1.2944 -0.2924
15177TIP3    H267023   3.743   3.174  11.500  0.1700  0.1058  1.1741
15178TIP3   OH267024   2.627   6.362   1.434 -0.5449 -0.0193 -0.3184
15178TIP3    H167025   2.572   6.411   1.495 -1.9786  0.5704 -2.0237
15178TIP3    H267026   2.690   6.426   1.400  0.6253 -0.4714  0.8783
15179TIP3   OH267027   0.466   0.072   0.572  0.2903 -0.4204 -0.5514
15179TIP3    H167028   0.482   0.165   0.585  0.7479 -0.4423 -0.9155
15179TIP3    H267029   0.373   0.066   0.548 -0.2171 -0.2454  1.2238
15180TIP3   OH267030   5.145   3.346   4.027  0.0175 -0.0301 -1.0139
15180TIP3    H167031   5.072   3.348   3.966 -1.0550 -0.7485  0.2100
15180TIP3    H267032   5.189   3.263   4.010 -0.8699 -0.6982 -0.1883
15181TIP3   OH267033   5.117   0.775  15.580  0.3679 -0.1356 -0.3402
15181TIP3    H167034   5.091   0.809  15.666 -0.9550  2.0083 -1.5061
15181TIP3    H267035   5.185   0.710  15.600  0.0389  0.2121  2.3159
15182TIP3   OH267036   5.062   2.678   2.932  0.3415 -0.3151 -0.1301
15182TIP3    H167037   5.083   2.714   2.846  1.3909  1.4012  0.7748
15182TIP3    H267038   4.969   2.660   2.929 -0.0894  1.7797 -0.9678
15183TIP3   OH267039   5.808   3.506   4.576  0.2253  0.3096  0.2580
15183TIP3    H167040   5.820   3.454   4.655 -2.5662 -0.4449  0.2907
15183TIP3    H267041   5.850   3.456   4.507  0.0646 -0.5465  0.7724
15184TIP3   OH267042   6.575   1.940  16.640  0.3387  0.1093  0.1111
15184TIP3    H167043   6.656   1.990  16.642  1.0139 -0.9605  0.5794
15184TIP3    H267044   6.542   1.943  16.729 -0.0729  0.4303 -0.0484
15185TIP3   OH267045   4.102   5.236  13.066  0.4688  0.3261 -0.3685
15185TIP3    H167046   4.010   5.232  13.038  0.8419  1.8999 -2.0404
15185TIP3    H267047   4.099   5.282  13.150 -0.2171  1.6145 -1.0508
15186TIP3   OH267048   6.817   0.315  13.421 -0.7570  0.1591 -0.4590
15186TIP3    H167049   6.819   0.300  13.515  1.4204  1.5009 -0.2125
15186TIP3    H267050   6.849   0.233  13.383 -0.4644  0.0304  0.0576
15187TIP3   OH267051   5.533   0.490  16.953  0.0797  0.1922 -0.2056
15187TIP3    H167052   5.583   0.539  17.018  1.1364 -0.1296 -0.7551
15187TIP3    H267053   5.446   0.531  16.954 -0.2566 -0.4572  2.1012
15188TIP3   OH267054   4.628   4.177  13.418 -0.5282 -0.0279  0.1251
15188TIP3    H167055   4.608   4.268  13.443  1.3823  0.7893 -1.1292
15188TIP3    H267056   4.641   4.181  13.323  2.1946 -1.0663  0.3899
15189TIP3   OH267057   6.029   5.804  10.826 -0.2510  0.2212  0.3419
15189TIP3    H167058   6.059   5.868  10.891  2.2348 -0.9238  0.4291
15189TIP3    H267059   6.011   5.856  10.748  0.4684  1.2042  0.8019
15190TIP3   OH267060   4.553   3.055   4.400 -0.0771  0.3772  0.2642
15190TIP3    H167061   4.488   3.125   4.396  0.0124  0.6464  2.3728
15190TIP3    H267062   4.632   3.094   4.362 -0.2921  1.1172  0.5528
15191TIP3   OH267063   4.662   5.950  12.490  0.1183 -0.3478 -0.0077
15191TIP3    H167064   4.690   5.939  12.400  0.4159  0.3310 -0.0039
15191TIP3    H267065   4.743   5.963  12.539  0.1683 -2.9415  0.7233
15192TIP3   OH267066   3.817   0.085   1.243  0.1759 -0.1640 -0.0974
15192TIP3    H167067   3.782   0.026   1.176  1.0265  0.1621 -0.8565
15192TIP3    H267068   3.825   0.032   1.321  0.7504 -1.0157 -0.7168
15193TIP3   OH267069   3.228   3.177  13.966 -0.9248  0.2346 -0.0438
15193TIP3    H167070   3.141   3.147  13.993 -0.3143 -2.0879 -0.4175
15193TIP3    H267071   3.247   3.125  13.887  1.2708 -0.1747  0.7016
15194TIP3   OH267072   3.234   5.417   0.642  0.1201  0.3372 -0.3326
15194TIP3    H167073   3.266   5.327   0.642 -0.2719  0.1894  0.2445
15194TIP3    H267074   3.146   5.412   0.606 -0.1954  0.3656  0.4044
15195TIP3   OH267075   5.645   2.190   2.834 -0.0548 -0.1943 -0.0222
15195TIP3    H167076   5.735   2.158   2.843  0.4560  1.5297  1.8539
15195TIP3    H267077   5.602   2.165   2.916 -1.0011 -0.1349 -0.4849
15196TIP3   OH267078   4.013   0.132  13.558  0.6245 -0.6249 -0.0806
15196TIP3    H167079   4.056   0.202  13.605  1.2428 -1.4162  0.5635
15196TIP3    H267080   3.922   0.161  13.548  1.2719  1.0956 -1.5068
15197TIP3   OH267081   0.833   0.085   3.354 -0.3155  0.4253  0.1319
15197TIP3    H167082   0.779   0.119   3.425  0.5096 -0.0946  1.0223
15197TIP3    H267083   0.887   0.017   3.394  1.1672  1.0731 -0.6647
15198TIP3   OH267084   4.631   6.079  14.699 -0.1401  0.5295  0.1063
15198TIP3    H167085   4.587   6.048  14.621 -0.7606  0.3225  0.5319
15198TIP3    H267086   4.561   6.097  14.761  0.3331  0.8484  0.5610
15199TIP3   OH267087   4.683   3.407  15.752 -0.6116 -0.2269 -0.1859
15199TIP3    H167088   4.729   3.324  15.764 -2.3558 -1.1587  0.4009
15199TIP3    H267089   4.668   3.439  15.841  1.2088  1.4641 -0.4059
15200TIP3   OH267090   2.038   6.185  12.858  0.2184  0.0610  0.1222
15200TIP3    H167091   1.947   6.161  12.875 -0.3306  0.6452 -1.7597
15200TIP3    H267092   2.073   6.112  12.807  0.3888  0.4414 -0.3139
15201TIP3   OH267093   0.810   4.567   4.354 -0.5973  0.0448 -0.2197
15201TIP3    H167094   0.721   4.539   4.378  0.0971 -2.2970 -0.2166
15201TIP3    H267095   0.799   4.612   4.270 -1.7676 -0.2292 -0.2338
15202TIP3   OH267096   5.278   1.539   1.012  0.1385  0.2698  0.0095
15202TIP3    H167097   5.210   1.477   0.985  0.0757  0.4449 -0.2442
15202TIP3    H267098   5.233   1.624   1.014  0.1443  0.2571  0.6725
15203TIP3   OH267099   2.887   3.712   3.003  0.7954 -0.0539 -0.4625
15203TIP3    H167100   2.879   3.785   3.064 -0.1163  0.5224 -1.2516
15203TIP3    H267101   2.965   3.733   2.951  2.5203 -1.3255  1.4851
15204TIP3   OH267102   6.190   6.231  13.861  0.1835  0.0259 -0.5570
15204TIP3    H167103   6.171   6.155  13.915  1.2593  1.1137  1.4669
15204TIP3    H267104   6.136   6.301  13.897  2.0979  1.1771  0.2346
15205TIP3   OH267105   3.372   0.333  14.085 -0.2182 -0.6364 -0.1142
15205TIP3    H167106   3.346   0.262  14.027  2.0584  0.0418 -2.1238
15205TIP3    H267107   3.441   0.295  14.140 -1.2336 -0.8214  1.0674
15206TIP3   OH267108   0.904   3.176  11.988 -0.2470 -0.0480 -0.3069
15206TIP3    H167109   0.995   3.203  11.985  0.0082 -0.8913 -0.5103
15206TIP3    H267110   0.885   3.146  11.899 -1.4039  2.2008 -0.8914
15207TIP3   OH267111   1.363   2.179   4.621  0.4343  0.9634  0.9868
15207TIP3    H167112   1.388   2.153   4.710 -1.3987  0.5958  1.4465
15207TIP3    H267113   1.358   2.096   4.573  1.9276  1.2025  0.3533
15208TIP3   OH267114   3.040   0.336   5.918  0.1981 -0.0957 -0.9335
15208TIP3    H167115   3.028   0.333   6.013  0.3715 -1.3024 -0.9272
15208TIP3    H267116   3.077   0.422   5.901  2.1313 -0.6059  0.3465
15209TIP3   OH267117   0.355   5.490  10.590 -0.2863 -0.1106 -0.6577
15209TIP3    H167118   0.381   5.524  10.505  0.1414 -0.1490 -0.5466
15209TIP3    H267119   0.286   5.426  10.572 -0.8533  0.5504 -0.8998
15210TIP3   OH267120   4.672   3.218   3.192  0.3097  0.1610 -0.2429
15210TIP3    H167121   4.591   3.207   3.242 -0.4848 -1.7794 -1.8712
15210TIP3    H267122   4.648   3.274   3.119  0.7321  0.4787 -0.1474
15211TIP3   OH267123   6.603   3.711  16.163 -0.2809  0.2792 -0.0226
15211TIP3    H167124   6.540   3.649  16.200 -1.1020  1.5077  0.6921
15211TIP3    H267125   6.580   3.795  16.202  1.2527  0.9218 -0.4342
15212TIP3   OH267126   4.952   4.764   4.864 -0.1258  0.2920  0.7632
15212TIP3    H167127   4.949   4.680   4.818 -0.9776  0.7891 -0.0997
15212TIP3    H267128   4.861   4.784   4.883  0.0773  1.0373  0.9491
15213TIP3   OH267129   5.726   5.366   5.188  0.4430 -0.0003  0.2735
15213TIP3    H167130   5.696   5.280   5.213 -1.7825  1.0401  1.4014
15213TIP3    H267131   5.655   5.402   5.135  0.5394  1.7547  1.2577
15214TIP3   OH267132   6.733   5.319   2.386  0.0614  0.4756 -0.5709
15214TIP3    H167133   6.779   5.294   2.305  2.1582 -0.3154  0.7876
15214TIP3    H267134   6.794   5.297   2.456 -2.5857 -1.0137  1.4245
15215TIP3   OH267135   1.790   4.199   1.470 -0.0517  0.1504 -0.4645
15215TIP3    H167136   1.883   4.176   1.468 -0.3264 -1.0129 -0.4409
15215TIP3    H267137   1.785   4.275   1.529  0.5616 -1.3998  1.7070
15216TIP3   OH267138   4.693   4.364   5.235 -0.3802 -0.4072 -0.1662
15216TIP3    H167139   4.715   4.455   5.212  0.0588 -0.7589 -1.1970
15216TIP3    H267140   4.676   4.367   5.329  1.0772  0.4756  0.0968
15217TIP3   OH267141   1.704   6.619   2.832 -0.4908 -0.0962  0.0169
15217TIP3    H167142   1.683   6.699   2.783  1.1184  0.1210 -0.3672
15217TIP3    H267143   1.712   6.551   2.765 -0.8422 -0.3751  0.2498
15218TIP3   OH267144   5.104   6.039   2.406 -0.0982  0.0145  0.0710
15218TIP3    H167145   5.116   6.115   2.462 -3.1130  0.6216  0.0603
15218TIP3    H267146   5.099   5.964   2.466  1.3441 -0.0139  0.1909
15219TIP3   OH267147   0.906   5.276   3.002  0.0611  0.1424 -0.0126
15219TIP3    H167148   0.871   5.260   3.090 -0.4144  1.4538  0.0700
15219TIP3    H267149   0.992   5.234   3.003 -0.1419 -0.2878  0.9174
15220TIP3   OH267150   6.292   4.318  14.786 -0.3518 -0.3186  1.1355
15220TIP3    H167151   6.239   4.379  14.735  0.2244 -0.4571  0.3536
15220TIP3    H267152   6.300   4.241  14.730 -0.7320 -0.9711  1.9411
15221TIP3   OH267153   3.587   3.422  15.011  0.2616 -0.4387  0.2394
15221TIP3    H167154   3.594   3.464  14.926 -1.4059 -0.5156  0.0233
15221TIP3    H267155   3.667   3.370  15.019  0.1499 -0.9611 -1.5829
15222TIP3   OH267156   6.729   3.007   3.395 -0.1766  0.0034 -0.3463
15222TIP3    H167157   6.787   3.009   3.471  0.0079 -0.1847 -0.4805
15222TIP3    H267158   6.771   3.066   3.332 -1.0588  1.2710  0.2143
15223TIP3   OH267159   5.524   4.415  14.187  0.2048 -0.4581 -0.1593
15223TIP3    H167160   5.529   4.322  14.168  0.2882 -0.1467 -1.9013
15223TIP3    H267161   5.495   4.454  14.104  3.0243  1.3656 -0.4115
15224TIP3   OH267162   0.960   6.128  14.168 -0.7231 -0.0004 -0.0228
15224TIP3    H167163   0.997   6.203  14.214  0.6957 -0.3620 -0.5405
15224TIP3    H267164   1.031   6.095  14.114 -0.6926 -2.8884  1.5855
15225TIP3   OH267165   4.711   3.999   1.667 -0.1480  0.1711  0.0558
15225TIP3    H167166   4.794   3.958   1.692 -0.7231 -0.5813  0.7931
15225TIP3    H267167   4.644   3.945   1.709 -0.9456  1.7495  0.9125
15226TIP3   OH267168   3.728   3.618   5.938  0.2423 -0.0413  0.2896
15226TIP3    H167169   3.748   3.586   5.850  0.6421  1.8380 -0.3527
15226TIP3    H267170   3.738   3.542   5.994  0.0494 -1.2693 -1.2800
15227TIP3   OH267171   2.274   5.669  14.780  0.1409 -0.0139  0.9615
15227TIP3    H167172   2.307   5.758  14.788 -0.0463  0.0547  0.9699
15227TIP3    H267173   2.353   5.615  14.769  0.1911  0.2967 -0.4087
15228TIP3   OH267174   6.360   3.604   3.143 -0.1375 -0.1346 -0.2927
15228TIP3    H167175   6.271   3.568   3.144  0.0837 -0.7066 -0.7023
15228TIP3    H267176   6.392   3.593   3.232  1.3177 -4.5471 -1.1276
15229TIP3   OH267177   2.721   3.800   3.578  0.0833  0.4001 -0.5946
15229TIP3    H167178   2.674   3.874   3.540 -2.6684 -0.8191  0.1785
15229TIP3    H267179   2.730   3.823   3.671 -0.8508 -0.1881 -0.3342
15230TIP3   OH267180   0.491   3.312   2.069 -0.3466 -0.0262 -0.2439
15230TIP3    H167181   0.528   3.376   2.008  0.6217 -0.5052 -0.1852
15230TIP3    H267182   0.511   3.347   2.155  0.0236 -0.3156 -0.2111
15231TIP3   OH267183   6.287   3.670  11.771  0.0527  0.6395  0.0461
15231TIP3    H167184   6.328   3.757  11.771  2.9472 -0.6000  1.1435
15231TIP3    H267185   6.327   3.625  11.696  0.4964 -0.5314  0.9659
15232TIP3   OH267186   0.627   5.924   3.726  0.4122  0.1929 -0.1321
15232TIP3    H167187   0.606   5.999   3.783  0.2996 -0.0786  0.1918
15232TIP3    H267188   0.570   5.935   3.650 -1.0114 -0.5723  0.7666
15233TIP3   OH267189   3.912   3.928  16.112 -0.5306 -0.1057 -0.0435
15233TIP3    H167190   3.991   3.983  16.108 -0.2714 -0.4920 -0.3501
15233TIP3    H267191   3.910   3.894  16.201 -0.4740  0.0850  0.0299
15234TIP3   OH267192   5.912   6.375   4.988  0.2518 -0.0774 -0.0427
15234TIP3    H167193   5.893   6.469   4.988 -0.4568 -0.1840 -1.7874
15234TIP3    H267194   5.977   6.364   4.919  0.1353 -0.8994 -0.0276
15235TIP3   OH267195   5.582   4.546   5.701  0.6700  0.0798  0.1629
15235TIP3    H167196   5.499   4.527   5.744  0.6290 -0.1155 -0.0029
15235TIP3    H267197   5.564   4.622   5.647  0.4236 -0.3523 -0.3795
15236TIP3   OH267198   5.062   3.873  12.859  0.2828 -0.1347  0.2093
15236TIP3    H167199   5.080   3.955  12.811 -0.4714  0.3400  0.7160
15236TIP3    H267200   4.996   3.897  12.923  1.2078 -0.7902  1.4393
15237TIP3   OH267201   0.796   1.036   5.188  0.0513 -0.0490 -0.1950
15237TIP3    H167202   0.831   1.107   5.243  0.0418 -1.7812  2.1898
15237TIP3    H267203   0.838   0.957   5.222 -2.1676 -1.5626 -0.7929
15238TIP3   OH267204   1.349   6.033  16.263 -0.0806 -0.2392 -0.4041
15238TIP3    H167205   1.365   6.065  16.175 -0.1700  0.8092 -0.0463
15238TIP3    H267206   1.264   6.070  16.287 -0.0211 -0.4521  0.1502
15239TIP3   OH267207   2.550   5.989   2.145  0.3570 -0.1017 -0.5135
15239TIP3    H167208   2.616   5.979   2.213  1.4929 -0.0635 -1.5650
15239TIP3    H267209   2.584   5.939   2.071 -0.5196  0.3829 -1.2752
15240TIP3   OH267210   1.212   1.246   3.791  0.2917  0.1508 -0.3846
15240TIP3    H167211   1.256   1.299   3.724 -1.0651 -0.0457 -1.4669
15240TIP3    H267212   1.171   1.175   3.742 -0.1949 -0.3650  0.7434
15241TIP3   OH267213   2.940   1.333  15.693  0.1440  0.4150 -0.4604
15241TIP3    H167214   2.907   1.406  15.745 -0.7903  0.2224 -0.7617
15241TIP3    H267215   3.034   1.333  15.708  0.1948  1.8460 -0.6663
15242TIP3   OH267216   3.093   3.119  13.458  0.5404 -0.1329  0.9981
15242TIP3    H167217   3.018   3.120  13.518 -0.0070 -0.2508  0.3312
15242TIP3    H267218   3.128   3.208  13.462 -0.1760  0.1766  0.6607
15243TIP3   OH267219   4.198   3.119   4.119 -0.1549  0.4472  0.1052
15243TIP3    H167220   4.273   3.109   4.060  0.3773  0.5556  0.7623
15243TIP3    H267221   4.162   3.205   4.096  1.0270  1.2177  1.0349
15244TIP3   OH267222   2.058   0.787  11.039 -0.2881  0.1058 -0.0822
15244TIP3    H167223   2.073   0.729  10.964 -0.2570 -0.5111  0.3842
15244TIP3    H267224   2.144   0.795  11.080 -0.6667 -1.3252  1.1092
15245TIP3   OH267225   3.102   4.189   2.922  0.0856 -0.3770 -0.2878
15245TIP3    H167226   3.170   4.234   2.972  0.3953 -0.4664 -0.6253
15245TIP3    H267227   3.093   4.240   2.841 -0.8870  0.1573  0.1366
15246TIP3   OH267228   3.446   5.811  15.186 -0.7785 -0.0803  0.2832
15246TIP3    H167229   3.481   5.811  15.276  0.4374 -1.9819 -0.1134
15246TIP3    H267230   3.374   5.748  15.189 -0.3474 -0.6094 -0.1759
15247TIP3   OH267231   3.909   0.260  15.113 -0.7730 -0.2649 -0.1709
15247TIP3    H167232   3.868   0.343  15.137 -2.1310 -0.8214 -0.4284
15247TIP3    H267233   3.892   0.252  15.019  0.9425 -0.0080 -0.5414
15248TIP3   OH267234   1.591   3.877  14.546 -0.6164 -0.2145 -0.5524
15248TIP3    H167235   1.665   3.857  14.489 -0.3535  1.1411 -0.7198
15248TIP3    H267236   1.514   3.852  14.495 -0.3205 -3.9890  0.5463
15249TIP3   OH267237   0.431   3.876   1.457  0.0849  0.0343  0.1688
15249TIP3    H167238   0.342   3.894   1.485  0.5153  0.4213  1.3235
15249TIP3    H267239   0.421   3.838   1.369 -1.1998  0.1028  0.2673
15250TIP3   OH267240   2.585   5.289  11.786  0.6174  0.0202 -0.0208
15250TIP3    H167241   2.619   5.201  11.801  2.9629  1.0305  1.0897
15250TIP3    H267242   2.519   5.301  11.854  0.1783 -0.9032 -0.2693
15251TIP3   OH267243   0.065   2.050   0.709 -0.2627  0.2042  0.1582
15251TIP3    H167244   0.115   1.984   0.661 -0.8040 -0.0753 -0.0301
15251TIP3    H267245   0.023   2.001   0.779 -1.9409  0.0458 -0.9188
15252TIP3   OH267246   5.020   0.816  15.827  0.5716  0.3423 -0.7916
15252TIP3    H167247   5.037   0.749  15.893 -0.6675  0.3146 -0.4710
15252TIP3    H267248   4.985   0.890  15.877  1.0446  0.8811 -1.2514
15253TIP3   OH267249   4.668   0.804  17.113 -0.1697  0.5262  0.2894
15253TIP3    H167250   4.698   0.820  17.202  1.6377  0.3148 -0.2345
15253TIP3    H267251   4.728   0.854  17.058  0.6156 -1.6067 -0.9365
15254TIP3   OH267252   6.249   3.147  16.933  0.2167 -0.6699  0.0024
15254TIP3    H167253   6.288   3.060  16.942  1.8952  0.0731  0.2240
15254TIP3    H267254   6.228   3.173  17.023 -1.0748 -1.1558 -0.1304
15255TIP3   OH267255   6.723   4.613   0.544  0.3365  0.0294 -0.2266
15255TIP3    H167256   6.730   4.589   0.637  1.5464  0.1770 -0.2615
15255TIP3    H267257   6.710   4.708   0.546  2.1650  0.3113 -0.2230
15256TIP3   OH267258   4.872   0.209  15.436  0.5401 -0.0937  0.3803
15256TIP3    H167259   4.783   0.206  15.402  0.3719  1.1304  0.6771
15256TIP3    H267260   4.888   0.301  15.454  2.1609 -0.1902 -0.4347
15257TIP3   OH267261   6.625   3.854   2.708 -0.3004  0.3245  0.0611
15257TIP3    H167262   6.677   3.805   2.644 -0.9624  0.1602 -0.3623
15257TIP3    H267263   6.535   3.834   2.686 -0.5883  1.5945  0.0003
15258TIP3   OH267264   6.473   6.225  12.556  0.1188  0.4271  0.4165
15258TIP3    H167265   6.534   6.272  12.499  1.4959 -0.9027  0.7187
15258TIP3    H267266   6.529   6.170  12.611 -1.3753 -1.2457  0.3584
15259TIP3   OH267267   0.795   4.542   2.322  0.2249 -0.3045 -0.0575
15259TIP3    H167268   0.800   4.588   2.239  1.1953  1.1952  0.7814
15259TIP3    H267269   0.835   4.457   2.305  0.7724  0.1356 -1.0222
15260TIP3   OH267270   0.363   2.866   0.570 -0.3239  0.2840  0.3608
15260TIP3    H167271   0.322   2.932   0.626 -1.9666 -1.5095  1.4034
15260TIP3    H267272   0.292   2.804   0.552  1.2374 -1.3810 -0.2760
15261TIP3   OH267273   6.132   4.613  15.616  0.4822 -0.2258  0.4111
15261TIP3    H167274   6.062   4.678  15.606 -1.4847 -1.6782  3.4183
15261TIP3    H267275   6.209   4.655  15.577 -1.4093  2.5369 -0.6622
15262TIP3   OH267276   1.541   6.638  12.218 -0.2153  0.5649 -0.0931
15262TIP3    H167277   1.557   6.697  12.145 -0.5350  0.6704 -0.0775
15262TIP3    H267278   1.505   6.559  12.178  0.3549  0.3194 -0.1283
15263TIP3   OH267279   3.052   3.517  15.099 -0.0628 -0.1996  0.5888
15263TIP3    H167280   3.146   3.509  15.084 -0.1344  0.4673 -0.3204
15263TIP3    H267281   3.041   3.499  15.192  1.1137  0.8147  0.9569
15264TIP3   OH267282   5.550   1.572  10.734 -0.1766  0.3734  0.3070
15264TIP3    H167283   5.607   1.497  10.714  2.6870  2.4857 -0.2033
15264TIP3    H267284   5.576   1.598  10.822 -0.3162  1.4293  0.0429
15265TIP3   OH267285   2.065   2.785   1.428  0.1647 -0.1067  0.2723
15265TIP3    H167286   2.091   2.757   1.341  1.4506 -2.3833  1.3167
15265TIP3    H267287   2.035   2.705   1.472 -2.2855  1.2800  1.3630
15266TIP3   OH267288   0.873   0.563  10.822 -0.1216  0.2459 -0.3022
15266TIP3    H167289   0.959   0.526  10.803  0.2997  0.6980  0.6841
15266TIP3    H267290   0.811   0.501  10.784  0.6273 -0.1924 -0.8302
15267TIP3   OH267291   5.830   4.060   1.297  0.0916  0.1699 -0.2555
15267TIP3    H167292   5.817   4.065   1.392  1.6199  0.8386 -0.0561
15267TIP3    H267293   5.844   3.967   1.280 -1.9064 -0.2032 -0.1053
15268TIP3   OH267294   2.937   2.417  12.065 -0.0376 -0.8702  0.2960
15268TIP3    H167295   3.029   2.400  12.081 -0.0317  0.4392  1.9211
15268TIP3    H267296   2.919   2.499  12.110 -1.6422 -0.2615 -1.3045
15269TIP3   OH267297   2.207   2.182   3.356  0.5193  0.4567 -0.1676
15269TIP3    H167298   2.283   2.225   3.319  1.8324  0.1123  1.9397
15269TIP3    H267299   2.219   2.190   3.451 -0.3097 -2.5482  0.3024
15270TIP3   OH267300   4.833   1.374   1.526 -0.1887  0.0965 -0.1796
15270TIP3    H167301   4.804   1.353   1.437  0.4393  1.3187 -0.6911
15270TIP3    H267302   4.753   1.396   1.573 -0.5536 -0.7889 -0.3654
15271TIP3   OH267303   5.118   4.589  14.814 -0.5371  0.3439  0.0377
15271TIP3    H167304   5.173   4.521  14.777 -0.1524  0.8095 -0.2605
15271TIP3    H267305   5.071   4.547  14.886  1.7881  0.4597  1.7320
15272TIP3   OH267306   3.266   1.411  15.470 -0.0632 -0.0970  0.0377
15272TIP3    H167307   3.209   1.385  15.397 -1.8955 -1.5576  1.8652
15272TIP3    H267308   3.226   1.370  15.547  0.6989  2.8871  2.1776
15273TIP3   OH267309   2.315   5.893   3.613  0.2372 -0.0416  0.1526
15273TIP3    H167310   2.336   5.935   3.697 -0.8376  0.5729  0.1422
15273TIP3    H267311   2.285   5.966   3.558 -0.7479 -0.6810 -0.1802
15274TIP3   OH267312   3.972   6.045   1.067 -0.2582 -0.4578 -0.3864
15274TIP3    H167313   3.941   5.999   1.145 -0.3840  1.2620  0.6180
15274TIP3    H267314   3.893   6.072   1.021 -0.4134  2.7206  1.4613
15275TIP3   OH267315   6.794   3.369   4.336 -0.2706 -0.2240  0.2225
15275TIP3    H167316   6.750   3.424   4.401  0.7094  0.4751  0.3113
15275TIP3    H267317   6.811   3.287   4.382 -0.8923 -0.2698  0.3842
15276TIP3   OH267318   2.850   6.439  15.159  0.2167  0.0169  0.5829
15276TIP3    H167319   2.805   6.506  15.209  0.1378 -1.1314  2.1339
15276TIP3    H267320   2.811   6.356  15.189  1.7351 -0.8519  0.2650
15277TIP3   OH267321   2.570   4.715   3.371  0.0527  0.4841 -0.0695
15277TIP3    H167322   2.577   4.669   3.287 -0.1203 -1.0088  0.6933
15277TIP3    H267323   2.510   4.660   3.422 -2.0589  2.7966  0.1038
15278TIP3   OH267324   3.184   3.502   1.996 -0.3750 -0.0874  0.5722
15278TIP3    H167325   3.123   3.512   2.069 -0.7404  0.6377  0.1804
15278TIP3    H267326   3.246   3.434   2.025 -0.9871 -0.3773  1.2259
15279TIP3   OH267327   2.216   5.753   1.520 -0.1663  0.0800 -0.4713
15279TIP3    H167328   2.137   5.734   1.569  0.3797 -0.2293  0.2994
15279TIP3    H267329   2.205   5.705   1.437 -0.9305  0.3273 -0.5200
15280TIP3   OH267330   6.748   5.769  15.252 -0.3755 -0.0906  0.1164
15280TIP3    H167331   6.790   5.733  15.330 -0.7709 -1.0247 -0.0825
15280TIP3    H267332   6.706   5.850  15.282 -0.7102 -0.5487  0.9307
15281TIP3   OH267333   1.375   1.238   3.341  0.0290  0.0601 -0.0819
15281TIP3    H167334   1.290   1.281   3.342 -0.8150 -1.4991  0.9006
15281TIP3    H267335   1.367   1.170   3.275  0.6995  0.2439 -0.3564
15282TIP3   OH267336   6.737   5.676   1.845  0.5198 -0.2251 -0.3311
15282TIP3    H167337   6.690   5.702   1.924 -1.4382 -1.3652 -1.0461
15282TIP3    H267338   6.826   5.709   1.858 -0.6287  2.8089  0.7454
15283TIP3   OH267339   2.519   2.189  14.632  0.0562 -0.3713 -0.1809
15283TIP3    H167340   2.463   2.132  14.684  2.2983 -1.2585  1.4240
15283TIP3    H267341   2.556   2.251  14.695  1.0311  0.0385 -1.1172
15284TIP3   OH267342   2.022   6.536   1.118  0.5076  0.0907  0.5839
15284TIP3    H167343   1.933   6.511   1.143  0.6042 -0.5979  0.2779
15284TIP3    H267344   2.070   6.453   1.114  1.0015  0.3893  0.1382
15285TIP3   OH267345   5.223   6.524  15.620  0.0913 -0.0769  0.4852
15285TIP3    H167346   5.243   6.604  15.571 -0.0321  0.9312  2.0062
15285TIP3    H267347   5.161   6.476  15.564 -0.8030  1.4828  0.0684
15286TIP3   OH267348   4.159   0.509  15.825 -0.0073 -0.0086 -0.1198
15286TIP3    H167349   4.217   0.575  15.787  0.1001  0.1015  0.2394
15286TIP3    H267350   4.151   0.533  15.917 -0.7748  0.0882 -0.2036
15287TIP3   OH267351   3.848   1.897   4.239 -0.3312 -0.0765  0.6513
15287TIP3    H167352   3.838   1.912   4.333 -0.2507 -0.8854  0.7970
15287TIP3    H267353   3.822   1.806   4.227 -1.1484  0.2552 -0.2402
15288TIP3   OH267354   3.296   0.467  16.116  0.2018 -0.4840 -0.3400
15288TIP3    H167355   3.255   0.396  16.166  0.9655  0.2795  1.4648
15288TIP3    H267356   3.305   0.432  16.028 -1.4372 -1.8179 -0.0390
15289TIP3   OH267357   1.546   5.564  12.396 -0.2724 -0.2344 -0.2792
15289TIP3    H167358   1.464   5.528  12.431 -0.2391 -0.0483 -0.0079
15289TIP3    H267359   1.585   5.611  12.469  0.8454 -1.6193  0.0775
15290TIP3   OH267360   2.375   6.046   4.277 -0.1921 -0.2473 -0.4084
15290TIP3    H167361   2.467   6.023   4.288  0.2238  1.4410 -0.0060
15290TIP3    H267362   2.343   6.059   4.366 -0.5363  0.1244 -0.5816
15291TIP3   OH267363   5.067   4.082   3.059  0.4154  0.3151  0.1634
15291TIP3    H167364   5.125   4.154   3.032  0.7340 -0.2878 -0.7898
15291TIP3    H267365   5.096   4.007   3.008 -0.3152 -0.3485  0.7019
15292TIP3   OH267366   2.679   0.049  15.515  0.1670  0.0860 -0.1241
15292TIP3    H167367   2.751   0.074  15.572  0.2216 -0.0472 -0.1329
15292TIP3    H267368   2.602   0.047  15.572 -0.0169  1.2047 -0.3175
15293TIP3   OH267369   0.342   4.979   2.874  0.1836 -0.5196  0.0215
15293TIP3    H167370   0.422   4.939   2.842 -0.1806 -1.1135 -0.1750
15293TIP3    H267371   0.294   4.906   2.916  0.1766  0.0200  0.9716
15294TIP3   OH267372   6.508   4.156   0.338  0.3982 -0.1515  0.2302
15294TIP3    H167373   6.568   4.215   0.293 -1.0502  0.4547 -1.0086
15294TIP3    H267374   6.500   4.081   0.279 -2.3838  1.1399 -1.2583
15295TIP3   OH267375   2.725   1.130  13.881 -0.4414 -0.0331 -0.1549
15295TIP3    H167376   2.764   1.051  13.917 -0.0358 -0.2131 -0.9729
15295TIP3    H267377   2.758   1.135  13.791 -1.3022  0.4915 -0.4544
15296TIP3   OH267378   1.579   1.002  14.364 -0.4363 -0.7419  0.5555
15296TIP3    H167379   1.484   0.993  14.376 -0.9333  0.0658 -2.2053
15296TIP3    H267380   1.615   0.992  14.452 -3.0853 -0.9056  1.7079
15297TIP3   OH267381   6.406   6.054   2.961 -0.4438 -0.5757 -0.2526
15297TIP3    H167382   6.403   6.068   2.866 -2.1648  1.6427  0.0624
15297TIP3    H267383   6.336   5.990   2.978 -2.8088  1.8775 -0.1547
15298TIP3   OH267384   4.069   4.113   1.875  0.2329  0.0013 -0.5838
15298TIP3    H167385   4.030   4.123   1.961 -0.1390 -0.3620 -0.7032
15298TIP3    H267386   4.075   4.201   1.840 -0.6125  0.0560 -0.6149
15299TIP3   OH267387   0.822   4.814   3.103 -0.6634 -0.2455  0.0928
15299TIP3    H167388   0.793   4.803   3.194  0.6315 -2.3176  0.3199
15299TIP3    H267389   0.785   4.739   3.057  0.0102 -0.0791 -0.7406
15300TIP3   OH267390   1.885   1.397   1.402 -0.1497  0.1176  0.4976
15300TIP3    H167391   1.816   1.365   1.460 -0.7138 -2.3505 -1.3948
15300TIP3    H267392   1.961   1.341   1.421 -0.0920 -0.1762 -0.5697
15301TIP3   OH267393   0.731   6.540  15.052 -0.2630  0.1079 -0.1634
15301TIP3    H167394   0.734   6.509  15.142  1.1265  1.6236  0.3704
15301TIP3    H267395   0.747   6.462  14.999  1.1727 -0.4404  1.0198
15302TIP3   OH267396   6.589   0.655   1.280  0.2080 -0.1584 -0.2773
15302TIP3    H167397   6.641   0.684   1.205 -0.1724  0.7101 -0.2196
15302TIP3    H267398   6.585   0.732   1.337  1.8947 -1.2605  1.4534
15303TIP3   OH267399   4.657   4.323   1.028 -0.5081  0.1881 -0.0905
15303TIP3    H167400   4.684   4.351   0.941  0.4376  1.8785  0.7075
15303TIP3    H267401   4.687   4.392   1.086 -1.9299 -0.4583  1.4922
15304TIP3   OH267402   4.161   5.774  12.488  0.1470  0.1926 -0.7698
15304TIP3    H167403   4.139   5.704  12.426  0.7735 -0.4303 -0.3147
15304TIP3    H267404   4.095   5.841  12.474 -0.6632 -0.6321 -1.0073
15305TIP3   OH267405   4.261   0.744   3.832  0.1717  0.4041 -0.3385
15305TIP3    H167406   4.168   0.759   3.844  0.0595 -1.1111  0.9713
15305TIP3    H267407   4.267   0.666   3.778  0.7150  1.3964 -1.7724
15306TIP3   OH267408   2.717   5.937   2.348 -0.4049 -0.1680 -0.3551
15306TIP3    H167409   2.712   5.922   2.443  1.2565  1.9981  0.1605
15306TIP3    H267410   2.800   5.898   2.322  0.4298  1.5034 -0.3498
15307TIP3   OH267411   2.741   1.804   5.865  0.3503  0.0654 -0.4856
15307TIP3    H167412   2.767   1.890   5.899 -1.2313  0.9539 -1.3925
15307TIP3    H267413   2.645   1.808   5.862 -0.1093 -2.9879  2.7061
15308TIP3   OH267414   3.674   4.408   4.611 -0.1162 -0.0948 -0.0324
15308TIP3    H167415   3.760   4.370   4.592  0.3359 -0.3529  2.2665
15308TIP3    H267416   3.680   4.437   4.702 -2.6444 -0.6525  0.3854
15309TIP3   OH267417   3.997   6.462  15.243  0.5037 -0.2235 -0.0253
15309TIP3    H167418   3.989   6.435  15.152  1.5292 -0.6468 -0.0030
15309TIP3    H267419   4.011   6.556  15.240  0.9816 -0.3057 -0.3265
15310TIP3   OH267420   3.168   5.763   0.161 -0.6114  0.4866 -0.1397
15310TIP3    H167421   3.134   5.850   0.141 -1.5048  0.8992  2.7101
15310TIP3    H267422   3.258   5.778   0.189 -0.7094  0.4894  0.1807
15311TIP3   OH267423   3.629   4.837   3.068 -0.3626 -1.0149  0.1269
15311TIP3    H167424   3.605   4.836   3.161  2.3567 -1.6415  0.8952
15311TIP3    H267425   3.702   4.898   3.063 -1.4821  0.2599 -1.9568
15312TIP3   OH267426   6.295   0.575   3.923  0.2653 -0.0928  0.6338
15312TIP3    H167427   6.267   0.666   3.914  2.9814  0.7194 -0.5714
15312TIP3    H267428   6.286   0.539   3.834  1.4759 -0.2440  0.5563
15313TIP3   OH267429   5.373   3.726   1.023 -0.6072 -0.2544 -0.1175
15313TIP3    H167430   5.290   3.748   0.981  0.1736  2.6533 -0.3380
15313TIP3    H267431   5.398   3.806   1.070  1.8471 -1.1971  0.3131
15314TIP3   OH267432   4.719   2.886  16.361 -0.5972 -0.5391 -0.3776
15314TIP3    H167433   4.696   2.906  16.452  0.0328 -0.5504 -0.2060
15314TIP3    H267434   4.785   2.817  16.368 -1.6267 -1.6164 -0.9002
15315TIP3   OH267435   2.801   5.818   4.458  0.4538 -0.1867 -0.4642
15315TIP3    H167436   2.805   5.782   4.547 -0.7858 -0.3442 -0.4566
15315TIP3    H267437   2.882   5.868   4.449 -0.3582  1.6472  1.5459
15316TIP3   OH267438   5.568   2.173  12.990 -0.0260 -0.7495  0.0522
15316TIP3    H167439   5.502   2.118  13.032 -1.3733  1.0182  0.3486
15316TIP3    H267440   5.585   2.129  12.906 -0.2946 -2.1406  0.6927
15317TIP3   OH267441   5.777   2.765  14.466  0.1764  0.2149 -0.0856
15317TIP3    H167442   5.862   2.722  14.455  0.0904 -0.1700  0.7170
15317TIP3    H267443   5.735   2.757  14.380  1.2550  1.0868 -0.7100
15318TIP3   OH267444   6.328   0.518  16.533 -0.0218 -0.2426 -0.2194
15318TIP3    H167445   6.342   0.506  16.627  0.8471 -0.5022 -0.3787
15318TIP3    H267446   6.300   0.432  16.502  0.5811 -0.3938 -0.3534
15319TIP3   OH267447   6.358   1.379  11.570 -0.0943 -0.3960  0.4374
15319TIP3    H167448   6.401   1.348  11.490  2.8699  0.1423  1.6906
15319TIP3    H267449   6.394   1.467  11.584 -2.2903  0.4409  1.1900
15320TIP3   OH267450   2.282   6.802   2.880  0.3283 -0.4425 -0.5498
15320TIP3    H167451   2.189   6.810   2.900  0.5400 -0.2227  0.4144
15320TIP3    H267452   2.307   6.717   2.916  0.9039  0.3260  0.9632
15321TIP3   OH267453   1.792   1.947  11.654 -0.5867 -0.3800  0.4499
15321TIP3    H167454   1.708   1.988  11.677 -0.2430  0.8645 -0.3838
15321TIP3    H267455   1.858   2.004  11.694 -0.1145 -1.1592  0.8064
15322TIP3   OH267456   1.319   1.942  14.879 -0.0322  0.6724 -0.0653
15322TIP3    H167457   1.319   2.036  14.896 -2.7171  0.4195  1.8721
15322TIP3    H267458   1.277   1.933  14.794 -0.7714  1.1776  0.2416
15323TIP3   OH267459   1.028   5.148  16.394  0.4261  0.2888 -0.0689
15323TIP3    H167460   1.071   5.147  16.480  0.6513  1.9600 -0.1316
15323TIP3    H267461   1.085   5.203  16.340  0.8230 -1.5515 -1.6076
15324TIP3   OH267462   4.292   5.176   0.956  0.5580 -0.3647 -0.2983
15324TIP3    H167463   4.241   5.186   0.876 -0.5163  2.0690  0.6139
15324TIP3    H267464   4.261   5.094   0.994 -2.5529  0.8738  0.0560
15325TIP3   OH267465   4.226   0.221   1.549  0.6457  0.6169 -0.0029
15325TIP3    H167466   4.229   0.264   1.634  0.9206  0.2009  0.1953
15325TIP3    H267467   4.310   0.243   1.508  0.3295  1.1960 -0.3545
15326TIP3   OH267468   6.212   5.148   2.624  0.1466  0.1038 -0.0974
15326TIP3    H167469   6.233   5.130   2.533  0.9444  0.6182 -0.0235
15326TIP3    H267470   6.254   5.232   2.643  0.2613 -0.1421  0.8305
15327TIP3   OH267471   5.886   5.298  16.006 -0.4712  0.0702 -0.6335
15327TIP3    H167472   5.931   5.236  15.949 -0.3600 -1.4420  1.0247
15327TIP3    H267473   5.956   5.354  16.041 -0.5912  1.2916 -2.2518
15328TIP3   OH267474   2.004   4.281   3.054 -0.0605 -0.6222  0.3205
15328TIP3    H167475   2.086   4.291   3.103 -0.0594 -1.1753  0.4412
15328TIP3    H267476   1.937   4.266   3.121 -0.9169  3.1060  0.5375
15329TIP3   OH267477   1.339   1.436  13.971  0.5800  0.0659  0.2355
15329TIP3    H167478   1.372   1.351  13.940 -0.4355 -0.7420  1.2905
15329TIP3    H267479   1.312   1.419  14.061  0.3466  1.5264  0.4510
15330TIP3   OH267480   0.629   3.002   1.079  0.9453 -0.1964 -0.0220
15330TIP3    H167481   0.674   3.060   1.140 -2.5642  1.2552  1.4323
15330TIP3    H267482   0.669   3.020   0.994  2.4253  1.6279  1.0114
15331TIP3   OH267483   2.892   4.918   0.335  0.1223 -0.7538  0.2610
15331TIP3    H167484   2.843   4.990   0.294  0.5249 -0.4740  0.2713
15331TIP3    H267485   2.983   4.947   0.334  0.6974 -2.3337 -2.0902
15332TIP3   OH267486   3.406   2.480  13.199  0.5319 -0.2494 -0.3104
15332TIP3    H167487   3.501   2.489  13.214  0.1713  3.2449  0.8591
15332TIP3    H267488   3.367   2.509  13.281 -1.6230 -1.9352 -0.6646
15333TIP3   OH267489   0.266   6.561  14.305 -0.5131 -0.2210 -0.4365
15333TIP3    H167490   0.192   6.610  14.340 -0.9023 -0.4851 -0.8748
15333TIP3    H267491   0.236   6.529  14.220  0.5661  0.7849 -1.2289
15334TIP3   OH267492   1.189   0.545  11.490  0.0887  0.2067 -0.4943
15334TIP3    H167493   1.259   0.512  11.546  0.2895  3.3326  1.3765
15334TIP3    H267494   1.121   0.478  11.494  1.2291 -0.9213  1.3014
15335TIP3   OH267495   4.581   4.094   4.944  0.0884 -0.0332  0.0447
15335TIP3    H167496   4.501   4.041   4.933 -0.6802  1.2278 -0.7072
15335TIP3    H267497   4.595   4.096   5.039 -0.6263 -0.4938  0.1733
15336TIP3   OH267498   2.958   2.027   5.459  0.0508 -0.1421  0.1126
15336TIP3    H167499   3.024   2.095   5.443 -2.5742  2.4483 -0.6070
15336TIP3    H267500   2.892   2.071   5.512 -1.9046 -2.0986 -0.5852
15337TIP3   OH267501   4.920   1.243   4.619 -0.2941  0.2216 -0.3570
15337TIP3    H167502   4.916   1.277   4.529 -0.8581  0.4395 -0.2533
15337TIP3    H267503   4.853   1.293   4.666 -0.6130 -0.5101 -0.0256
15338TIP3   OH267504   2.070   3.199  11.351 -0.5019  0.2899 -0.3995
15338TIP3    H167505   1.977   3.200  11.330 -0.2805 -0.3237 -1.5270
15338TIP3    H267506   2.087   3.285  11.390 -1.9257 -0.3430  1.7678
15339TIP3   OH267507   3.263   0.356  11.833  0.4013 -0.2519  0.7057
15339TIP3    H167508   3.269   0.451  11.819 -1.4413 -0.1191  0.4969
15339TIP3    H267509   3.222   0.347  11.919 -1.0226 -0.7939  0.0043
15340TIP3   OH267510   3.521   3.515  13.356  0.0891  0.1217 -0.3364
15340TIP3    H167511   3.466   3.466  13.295  1.3906  0.3735 -1.7361
15340TIP3    H267512   3.548   3.450  13.421 -1.0436 -0.2166 -0.1808
15341TIP3   OH267513   4.139   4.813   3.157 -0.3757 -0.1805 -0.3745
15341TIP3    H167514   4.197   4.888   3.143  0.2036 -0.8126 -1.5670
15341TIP3    H267515   4.187   4.757   3.218 -1.2386  0.8382  1.2991
15342TIP3   OH267516   4.267   5.316  14.187  0.1664 -0.5015  0.0183
15342TIP3    H167517   4.291   5.407  14.201 -0.4690  0.2282 -2.9169
15342TIP3    H267518   4.203   5.297  14.255 -1.9148  2.2272 -1.0132
15343TIP3   OH267519   1.680   3.557  16.990  0.5478 -0.2565 -0.4755
15343TIP3    H167520   1.611   3.600  17.041  1.3902  0.4509  0.0811
15343TIP3    H267521   1.740   3.522  17.056  0.3937 -1.4427 -0.9439
15344TIP3   OH267522   3.830   1.195  14.308 -0.1736  0.5551 -0.7577
15344TIP3    H167523   3.889   1.122  14.327 -0.7797  0.3640  0.4776
15344TIP3    H267524   3.796   1.176  14.220  0.4556 -0.1083 -0.8642
15345TIP3   OH267525   0.291   2.107  11.634 -0.2834 -0.3077  0.0221
15345TIP3    H167526   0.265   2.197  11.652  0.1939 -0.2998  0.6744
15345TIP3    H267527   0.375   2.115  11.588 -0.9046 -0.3743 -1.1630
15346TIP3   OH267528   3.202   3.219  12.241  0.2326  0.1551 -1.3973
15346TIP3    H167529   3.269   3.180  12.184  0.6905  2.4415 -2.5473
15346TIP3    H267530   3.209   3.313  12.226 -1.4067  0.6705  0.5562
15347TIP3   OH267531   2.086   1.224  15.603  0.2991 -0.0347 -0.1105
15347TIP3    H167532   2.071   1.227  15.698  3.0848 -2.1445  0.5322
15347TIP3    H267533   2.134   1.306  15.585  0.2246  0.1332  0.4156
15348TIP3   OH267534   1.608   4.757  12.169  0.3297 -0.0469  0.0858
15348TIP3    H167535   1.660   4.769  12.249 -0.3497  2.2543  0.2709
15348TIP3    H267536   1.549   4.685  12.190  0.2610  0.4114  1.6401
15349TIP3   OH267537   4.720   6.444   1.236 -0.0024 -0.1490 -0.5358
15349TIP3    H167538   4.706   6.519   1.295  0.4975  0.7165 -1.4951
15349TIP3    H267539   4.653   6.455   1.168 -0.6862 -1.2367 -0.0711
15350TIP3   OH267540   5.158   2.482   2.479  0.1371  0.0161  0.2043
15350TIP3    H167541   5.199   2.399   2.453  0.6279  0.6936 -1.3557
15350TIP3    H267542   5.200   2.505   2.561  1.2173 -0.4768 -0.1894
15351TIP3   OH267543   0.476   5.788  12.067  0.3331  0.0840  0.0548
15351TIP3    H167544   0.567   5.787  12.040  1.1730  2.3928  2.3604
15351TIP3    H267545   0.438   5.863  12.020 -0.6455 -1.2664 -1.4247
15352TIP3   OH267546   3.074   2.880   6.099  0.1095  0.6612  0.4682
15352TIP3    H167547   3.030   2.952   6.146  0.1218  0.8130  0.2462
15352TIP3    H267548   3.155   2.919   6.066  0.3592  0.4121  0.7757
15353TIP3   OH267549   5.997   2.978   5.433 -0.6204 -0.4903  0.7795
15353TIP3    H167550   5.947   3.057   5.451  0.3435  0.3834 -0.2027
15353TIP3    H267551   5.971   2.953   5.345 -1.7222 -1.9191  1.4842
15354TIP3   OH267552   0.348   0.693  16.926  0.0958  0.6350 -0.8786
15354TIP3    H167553   0.302   0.762  16.878  1.7710  1.4269 -1.4423
15354TIP3    H267554   0.404   0.741  16.988 -0.9650 -0.3345  0.9037
15355TIP3   OH267555   1.778   6.391   2.638  0.0352 -0.1501  0.5491
15355TIP3    H167556   1.767   6.296   2.641 -0.2184 -0.1535 -0.2603
15355TIP3    H267557   1.769   6.413   2.545  0.2390  0.6484  0.7129
15356TIP3   OH267558   3.327   4.795  14.422 -0.1336  0.0431  0.3870
15356TIP3    H167559   3.307   4.873  14.370 -1.1709 -0.5629 -0.1562
15356TIP3    H267560   3.402   4.754  14.377 -1.9114 -1.2617 -1.5710
15357TIP3   OH267561   4.986   5.578   4.450 -0.0920  0.7154  0.1045
15357TIP3    H167562   4.992   5.646   4.518  0.9784  0.4277  0.3094
15357TIP3    H267563   5.074   5.570   4.416  0.0571 -1.3158  0.8107
15358TIP3   OH267564   2.170   0.955   2.979 -0.4588  0.4148  0.8785
15358TIP3    H167565   2.137   1.043   2.967 -0.1256  0.3658 -0.6798
15358TIP3    H267566   2.263   0.966   2.997 -0.3248  0.3921  0.2484
15359TIP3   OH267567   5.416   6.343   6.399 -0.4063 -0.1331 -0.0065
15359TIP3    H167568   5.409   6.300   6.313 -0.2284 -1.3051  0.5419
15359TIP3    H267569   5.510   6.351   6.414 -0.4385  0.1528  0.0390
15360TIP3   OH267570   5.090   0.855  16.765  0.1043  0.3634  0.1670
15360TIP3    H167571   5.068   0.781  16.708  1.7621 -1.0582  1.2771
15360TIP3    H267572   5.010   0.870  16.816 -0.2737 -0.6356 -0.0960
15361TIP3   OH267573   0.034   0.118   3.459 -0.2313  0.4619  0.3332
15361TIP3    H167574   0.058   0.211   3.456 -0.9050  0.6070 -1.1488
15361TIP3    H267575  -0.035   0.109   3.394 -1.4681 -0.7309  1.7297
15362TIP3   OH267576   1.902   2.819  16.359  0.4848  0.2346 -0.2217
15362TIP3    H167577   1.997   2.826  16.367  0.2906  2.3164  0.8897
15362TIP3    H267578   1.886   2.821  16.264  1.5631 -0.7760 -0.4370
15363TIP3   OH267579   5.335   6.256   3.954 -0.5599 -0.0766  0.6838
15363TIP3    H167580   5.281   6.296   3.886  1.0413 -0.6928 -1.0631
15363TIP3    H267581   5.386   6.329   3.990  0.1195 -0.0383 -0.3125
15364TIP3   OH267582   5.628   1.279   1.178 -0.6269 -0.3292  0.1212
15364TIP3    H167583   5.585   1.321   1.253  1.8560  0.9808  0.9068
15364TIP3    H267584   5.574   1.304   1.103 -1.0390  1.6216  0.9907
15365TIP3   OH267585   2.825   5.830  15.307  0.2185  0.3045  0.1574
15365TIP3    H167586   2.837   5.768  15.235 -2.0896  0.4553 -0.4458
15365TIP3    H267587   2.882   5.904  15.285  0.7762 -0.3489 -0.6532
15366TIP3   OH267588   5.915   3.890   5.742  0.1538  0.1617  0.1241
15366TIP3    H167589   5.987   3.833   5.769  0.0125 -0.3773 -0.6225
15366TIP3    H267590   5.900   3.870   5.650  0.3770  1.7086 -0.2861
15367TIP3   OH267591   1.891   4.997   5.001  0.7706  0.2585  0.4262
15367TIP3    H167592   1.804   5.012   4.966  0.7799 -3.4235 -1.6621
15367TIP3    H267593   1.876   4.971   5.092 -0.2623  0.3922  0.3021
15368TIP3   OH267594   0.732   0.124  13.896  0.5829 -0.5917  0.5263
15368TIP3    H167595   0.794   0.128  13.824 -1.0780 -0.6595 -0.9859
15368TIP3    H267596   0.760   0.049  13.948  2.4772  0.1443  0.6248
15369TIP3   OH267597   5.961   1.728   1.859 -0.4168 -0.7909 -0.1903
15369TIP3    H167598   5.959   1.776   1.943 -2.3941 -0.4928 -0.3653
15369TIP3    H267599   6.034   1.768   1.811  0.2837 -0.4632  1.0931
15370TIP3   OH267600   5.118   6.284   2.910  0.7586 -0.4509 -0.0672
15370TIP3    H167601   5.204   6.250   2.935  1.3654  1.4372  0.5838
15370TIP3    H267602   5.117   6.373   2.944 -1.8373 -0.7100  0.7838
15371TIP3   OH267603   0.291   3.539  13.305 -0.6870 -0.2340 -0.1693
15371TIP3    H167604   0.213   3.554  13.252 -0.7797 -3.4716 -1.1265
15371TIP3    H267605   0.284   3.449  13.335  1.7384 -0.0074  1.4217
15372TIP3   OH267606   5.964   5.593   0.026  0.4044 -0.2055 -0.0790
15372TIP3    H167607   6.034   5.629  -0.029  0.1107  0.2294 -0.1724
15372TIP3    H267608   5.949   5.505  -0.008  1.2053 -0.4731  0.2198
15373TIP3   OH267609   5.357   2.483   5.859 -0.2700 -0.0539  0.1632
15373TIP3    H167610   5.333   2.429   5.934 -0.6306  0.9936  0.8292
15373TIP3    H267611   5.333   2.572   5.885  3.9310  1.1166  0.7871
15374TIP3   OH267612   6.319   4.752  16.427 -0.4615  0.0085  0.4860
15374TIP3    H167613   6.268   4.697  16.368 -0.2027  0.8363 -0.5382
15374TIP3    H267614   6.404   4.707  16.435 -0.6651 -0.3549  0.6262
15375TIP3   OH267615   5.112   4.318  11.895 -1.0588 -0.0942 -0.3980
15375TIP3    H167616   5.121   4.377  11.969  0.6927 -2.3159  1.3097
15375TIP3    H267617   5.166   4.358  11.826  0.0581  0.3560  0.7003
15376TIP3   OH267618   5.299   1.520   3.005  0.3666  0.1054  0.1309
15376TIP3    H167619   5.340   1.484   2.927  0.3355 -0.5397  0.4074
15376TIP3    H267620   5.366   1.575   3.044 -0.8291  3.7966 -2.4809
15377TIP3   OH267621   6.504   0.365  15.912 -0.5448  0.4715 -0.0532
15377TIP3    H167622   6.574   0.359  15.847 -1.4179  0.0718 -0.9993
15377TIP3    H267623   6.482   0.274  15.932 -1.4491  0.5688 -0.5306
15378TIP3   OH267624   4.353   2.770  13.329 -0.8034 -0.2594 -0.4932
15378TIP3    H167625   4.285   2.805  13.386  0.3290 -0.2448  0.9249
15378TIP3    H267626   4.408   2.847  13.309 -0.4614 -0.5105 -0.5255
15379TIP3   OH267627   4.689   3.549   5.086 -0.4792  0.0740  0.3971
15379TIP3    H167628   4.676   3.640   5.061 -0.3845  0.2867  1.1032
15379TIP3    H267629   4.623   3.533   5.154 -0.1198 -0.2097  0.6851
15380TIP3   OH267630   2.354   0.534   0.244 -0.2424  0.5102 -0.0904
15380TIP3    H167631   2.279   0.500   0.195 -0.7004  1.2873  0.0533
15380TIP3    H267632   2.388   0.458   0.291 -0.3260 -0.0632 -0.9380
15381TIP3   OH267633   3.995   1.821   2.836 -0.1464 -0.1170 -0.2578
15381TIP3    H167634   4.065   1.856   2.781  0.0545  0.2554  0.2176
15381TIP3    H267635   4.038   1.801   2.920 -0.6930  0.5868  0.2069
15382TIP3   OH267636   4.510   0.447  14.834  0.0833 -0.2486  0.0907
15382TIP3    H167637   4.511   0.528  14.884 -2.0615 -0.6819  0.9199
15382TIP3    H267638   4.566   0.465  14.758  0.6858  1.5434  0.9121
15383TIP3   OH267639   1.256   1.369   2.908 -0.3550  0.3094 -0.1536
15383TIP3    H167640   1.314   1.411   2.971  0.2145  0.0914 -0.5214
15383TIP3    H267641   1.311   1.354   2.831 -1.0147  0.4915 -0.6715
15384TIP3   OH267642   5.566   4.134   2.270  0.7900  0.4474 -0.6286
15384TIP3    H167643   5.576   4.229   2.277  0.9976  0.3988 -0.2261
15384TIP3    H267644   5.629   4.099   2.333  0.5903  0.0453 -0.6518
15385TIP3   OH267645   3.936   2.900   2.849  0.0181  0.6708  0.1538
15385TIP3    H167646   4.022   2.942   2.850 -0.2668  1.2873 -0.5471
15385TIP3    H267647   3.892   2.936   2.773 -1.6226  1.8802  1.5911
15386TIP3   OH267648   5.376   3.543   5.382 -0.2403  0.7387 -0.0182
15386TIP3    H167649   5.285   3.534   5.354 -0.0634 -1.3030 -0.1347
15386TIP3    H267650   5.370   3.585   5.468 -1.3408  0.2799  0.1581
15387TIP3   OH267651   6.778   4.849  12.716 -0.0916  0.6310  0.2706
15387TIP3    H167652   6.707   4.852  12.652 -0.0902  0.1211  0.2405
15387TIP3    H267653   6.799   4.941  12.734  1.1117  0.8264 -1.7881
15388TIP3   OH267654   0.542   6.522  14.214 -0.2780  0.5181  0.2479
15388TIP3    H167655   0.463   6.536  14.267 -0.9016 -1.2792 -0.1367
15388TIP3    H267656   0.602   6.475  14.271 -0.3145  0.0215 -0.1152
15389TIP3   OH267657   4.062   6.142   4.255 -0.2224 -0.2013 -0.0600
15389TIP3    H167658   4.146   6.176   4.222 -0.1019 -0.5584 -0.1243
15389TIP3    H267659   4.079   6.049   4.272 -0.4169 -0.1334  0.5476
15390TIP3   OH267660   6.057   0.858  10.740 -0.1519 -0.4509  0.4187
15390TIP3    H167661   6.113   0.825  10.670  1.2310  1.8720  0.3341
15390TIP3    H267662   6.017   0.936  10.703 -1.6395 -0.7486  1.3181
15391TIP3   OH267663   5.621   6.042   2.444 -0.1993  0.2114 -0.2406
15391TIP3    H167664   5.688   6.107   2.421 -0.7409  0.7077 -0.4331
15391TIP3    H267665   5.671   5.962   2.461  0.2760 -0.1209 -2.7751
15392TIP3   OH267666   5.614   0.752   3.590 -0.5444 -0.3118 -0.4599
15392TIP3    H167667   5.600   0.800   3.509  0.3882  0.0021 -0.4478
15392TIP3    H267668   5.527   0.720   3.615 -0.5317 -2.4013 -2.7725
15393TIP3   OH267669   0.087   5.181   4.848  0.2272  0.3223 -0.0208
15393TIP3    H167670   0.181   5.196   4.862  0.3908  0.2547 -0.9753
15393TIP3    H267671   0.047   5.197   4.934  0.9695  1.4888  0.1304
15394TIP3   OH267672   4.208   3.732  17.017 -0.3024 -0.0773 -0.4799
15394TIP3    H167673   4.147   3.795  17.055 -0.1164  0.3033 -0.8006
15394TIP3    H267674   4.293   3.775  17.023 -0.1344 -0.4115 -0.4607
15395TIP3   OH267675   5.903   4.499  11.374 -0.4350 -0.0376  0.3529
15395TIP3    H167676   5.896   4.581  11.324 -0.0908  0.2851  0.8276
15395TIP3    H267677   5.946   4.525  11.456  0.1351 -0.7906  0.2915
15396TIP3   OH267678   2.408   6.200  11.255  0.3972  0.1542 -0.2749
15396TIP3    H167679   2.457   6.164  11.328  0.4576 -0.4404 -0.6046
15396TIP3    H267680   2.419   6.136  11.184 -0.2001  0.3953 -0.5950
15397TIP3   OH267681   4.342   6.615  11.367  0.0049 -0.2425  0.8778
15397TIP3    H167682   4.293   6.695  11.348 -0.0485 -0.3047  0.7418
15397TIP3    H267683   4.313   6.553  11.299  0.4206 -0.2190  0.6749
15398TIP3   OH267684   1.947   4.572   2.402 -0.0069  0.3173  0.4519
15398TIP3    H167685   1.899   4.650   2.428 -0.3398  0.4494 -0.5493
15398TIP3    H267686   2.030   4.577   2.451  0.3250  1.7117 -0.2280
15399TIP3   OH267687   1.728   2.633   3.230  0.0805 -0.7081 -0.0394
15399TIP3    H167688   1.721   2.681   3.148  1.1049 -0.4035  0.0399
15399TIP3    H267689   1.727   2.701   3.298  0.1497 -0.8957  0.1513
15400TIP3   OH267690   1.811   5.695  13.778 -0.3368  0.1442 -0.0020
15400TIP3    H167691   1.737   5.685  13.718  0.1711  0.4698 -0.6829
15400TIP3    H267692   1.888   5.698  13.722  0.3122 -1.2898  0.7722
15401TIP3   OH267693   3.395   5.883  11.218 -0.3298 -0.1722 -0.5362
15401TIP3    H167694   3.478   5.862  11.262 -0.6002  0.9706  0.6052
15401TIP3    H267695   3.391   5.823  11.144  1.8831  0.2307 -1.0609
15402TIP3   OH267696   5.575   1.837  16.273  0.7717  0.4338 -0.0816
15402TIP3    H167697   5.501   1.893  16.296  0.6458  0.5354 -0.7160
15402TIP3    H267698   5.592   1.855  16.180  1.1276 -0.1202 -0.1352
15403TIP3   OH267699   5.540   0.679  13.646  0.1680  0.6402 -0.0297
15403TIP3    H167700   5.541   0.591  13.684 -1.2078  0.1342 -1.0377
15403TIP3    H267701   5.631   0.697  13.622  0.4813 -0.4899  0.2644
15404TIP3   OH267702   4.507   3.783  14.931 -0.2392  0.3554  0.1827
15404TIP3    H167703   4.576   3.717  14.924  0.0535  0.7799 -1.5839
15404TIP3    H267704   4.436   3.738  14.977 -0.0920 -1.2636 -1.0529
15405TIP3   OH267705   4.012   4.550   5.926 -0.3954 -0.1012  0.5375
15405TIP3    H167706   4.028   4.623   5.985 -0.7590  0.0429  0.4624
15405TIP3    H267707   3.992   4.591   5.842  0.4672 -0.3107  0.2186
15406TIP3   OH267708   4.190   4.384  14.461  0.4283  0.2083  0.4543
15406TIP3    H167709   4.108   4.430  14.477  0.5547  0.7312 -0.3349
15406TIP3    H267710   4.172   4.293  14.486 -0.3325  0.3576  0.4676
15407TIP3   OH267711   1.681   5.345  10.466 -0.2430 -0.1834 -0.2618
15407TIP3    H167712   1.608   5.304  10.514 -0.4574  0.3889 -0.0947
15407TIP3    H267713   1.638   5.396  10.398  0.0773 -1.4938 -1.4975
15408TIP3   OH267714   0.107   3.437   2.629  0.4117  0.5441 -0.0030
15408TIP3    H167715   0.139   3.349   2.610 -0.4501  0.4993 -1.4072
15408TIP3    H267716   0.067   3.430   2.716 -1.7445 -1.0937 -1.0237
15409TIP3   OH267717   0.543   2.692  10.963 -0.3685  0.6507 -0.0901
15409TIP3    H167718   0.582   2.683  11.050 -0.4049 -0.8829 -0.2183
15409TIP3    H267719   0.601   2.643  10.905 -0.1771  1.8978 -1.0186
15410TIP3   OH267720   3.449   2.667   2.046  0.1607 -0.6307  0.1643
15410TIP3    H167721   3.428   2.683   1.954 -0.6678 -2.2268  0.0351
15410TIP3    H267722   3.422   2.576   2.061  0.0152 -0.3086  2.0631
15411TIP3   OH267723   2.502   3.113   2.307  0.3973  0.5181  0.2524
15411TIP3    H167724   2.539   3.029   2.279 -0.1069  0.6446 -0.8247
15411TIP3    H267725   2.425   3.088   2.358 -0.7286  0.3201 -1.4714
15412TIP3   OH267726   0.483   1.121  12.900 -0.0648 -0.2919 -0.2887
15412TIP3    H167727   0.455   1.204  12.937  0.9321  1.2432 -2.7395
15412TIP3    H267728   0.402   1.072  12.885 -0.6393  0.1002  1.4039
15413TIP3   OH267729   1.857   3.105  15.327  0.5969 -0.3644  0.1675
15413TIP3    H167730   1.915   3.043  15.283  0.0125 -1.1899  0.5315
15413TIP3    H267731   1.915   3.155  15.385  0.8429 -1.7678  1.1741
15414TIP3   OH267732   4.795   2.029  15.856  0.0065  0.0640 -0.0168
15414TIP3    H167733   4.725   2.093  15.865  1.5683  1.7843  0.3702
15414TIP3    H267734   4.821   2.009  15.947  2.2589  2.0724 -0.1295
15415TIP3   OH267735   0.099   2.356   2.291 -0.3870  0.4736 -0.0104
15415TIP3    H167736   0.034   2.330   2.356 -0.5648  0.4989 -0.1790
15415TIP3    H267737   0.068   2.440   2.257  0.0303  0.7649  0.3173
15416TIP3   OH267738   2.913   4.713  17.186 -0.1150  0.0255 -0.1775
15416TIP3    H167739   2.839   4.684  17.239  2.1025 -0.0579  3.1410
15416TIP3    H267740   2.972   4.638  17.185  0.8659  0.7823 -1.0060
15417TIP3   OH267741   6.272   5.274   4.134 -0.0620  0.6778  0.5669
15417TIP3    H167742   6.232   5.205   4.081 -1.3285  2.8576 -1.5325
15417TIP3    H267743   6.224   5.273   4.216  0.3493 -1.2901  0.8101
15418TIP3   OH267744   5.542   2.540  14.232 -0.2426 -0.1783  0.0736
15418TIP3    H167745   5.483   2.605  14.194  0.2651  0.3565  0.1802
15418TIP3    H267746   5.546   2.563  14.325  2.4804  1.7298 -0.3996
15419TIP3   OH267747   0.592   0.595  11.959 -0.1405  0.4297  0.0812
15419TIP3    H167748   0.539   0.601  11.880  1.2941  1.4938 -0.8656
15419TIP3    H267749   0.565   0.669  12.012 -0.6104  0.1233  0.2745
15420TIP3   OH267750   5.365   4.530   4.631  0.0756  0.2842 -0.1417
15420TIP3    H167751   5.416   4.601   4.671  0.8455 -0.4087  0.1292
15420TIP3    H267752   5.290   4.519   4.690  0.1016  0.6829 -0.0308
15421TIP3   OH267753   4.811   1.417  13.973  0.0135 -0.5289 -0.2255
15421TIP3    H167754   4.781   1.508  13.968  0.7620 -0.3338 -1.5998
15421TIP3    H267755   4.885   1.413  13.913  1.2302 -1.5898  1.2576
15422TIP3   OH267756   3.531   1.434  16.388 -0.0894 -0.2002 -0.2337
15422TIP3    H167757   3.485   1.429  16.472 -0.2118 -0.1149 -0.2961
15422TIP3    H267758   3.477   1.492  16.335 -0.7424 -1.3353 -0.8366
15423TIP3   OH267759   3.680   4.430  14.884 -0.2029 -0.2667 -0.0959
15423TIP3    H167760   3.770   4.423  14.916 -0.4047  1.1354  0.8340
15423TIP3    H267761   3.683   4.389  14.797  0.9439 -1.7339  0.5928
15424TIP3   OH267762   2.585   3.926  10.856 -0.1624  0.1523 -0.2037
15424TIP3    H167763   2.661   3.870  10.873  0.5932  1.1702 -0.1354
15424TIP3    H267764   2.517   3.866  10.828  0.8535 -0.7176 -0.8746
15425TIP3   OH267765   0.908   3.637   3.364  0.5183 -0.6903  0.0508
15425TIP3    H167766   1.004   3.642   3.360  0.4733 -0.3499 -0.6249
15425TIP3    H267767   0.881   3.723   3.396  0.3508 -0.1734 -1.4090
15426TIP3   OH267768   1.811   4.795   3.455 -0.0876  0.7551  0.6954
15426TIP3    H167769   1.856   4.872   3.420  0.2449  0.3012  0.1130
15426TIP3    H267770   1.718   4.815   3.445 -0.0615  1.9419  2.4311
15427TIP3   OH267771   3.300   3.254  15.262  0.2160  0.2969  0.0436
15427TIP3    H167772   3.334   3.198  15.332  1.5987 -0.0818 -0.8992
15427TIP3    H267773   3.336   3.217  15.181 -0.3847  1.4266 -0.7708
15428TIP3   OH267774   2.666   3.836   0.450  0.2828 -0.3860  0.5230
15428TIP3    H167775   2.709   3.863   0.532 -2.0964  2.4694  1.0150
15428TIP3    H267776   2.600   3.773   0.478  0.7420 -0.8793  0.5069
15429TIP3   OH267777   4.405   1.101  10.984  0.3224 -0.0961  0.3178
15429TIP3    H167778   4.422   1.189  11.018  0.9399  0.0857 -0.4293
15429TIP3    H267779   4.488   1.074  10.944  0.1059 -0.9718  0.4315
15430TIP3   OH267780   6.355   2.605  12.060 -0.1329  0.8615  0.2564
15430TIP3    H167781   6.270   2.633  12.094 -0.7450  0.5084 -0.9429
15430TIP3    H267782   6.387   2.681  12.011 -0.0257  0.7928  0.2200
15431TIP3   OH267783   1.937   5.790  12.215  0.9469 -0.1480  0.0652
15431TIP3    H167784   1.944   5.872  12.264  1.7393 -0.5418  0.6434
15431TIP3    H267785   1.903   5.816  12.130 -3.5293  0.2021  1.7068
15432TIP3   OH267786   5.253   6.604  13.086 -0.1463  0.3120 -0.2764
15432TIP3    H167787   5.315   6.656  13.138  0.0639  1.1084 -1.2962
15432TIP3    H267788   5.167   6.638  13.111  0.0102  1.5375 -1.2925
15433TIP3   OH267789   3.910   3.743   5.114 -0.2636 -0.5034 -0.5046
15433TIP3    H167790   3.988   3.705   5.074 -0.6475 -1.1572 -0.6425
15433TIP3    H267791   3.881   3.679   5.178 -0.8595 -0.4051 -0.6633
15434TIP3   OH267792   6.214   0.164   2.614  0.0097  0.3665 -0.3102
15434TIP3    H167793   6.142   0.132   2.668  1.0581 -0.4623  0.6535
15434TIP3    H267794   6.179   0.243   2.572 -1.5007 -0.1053 -0.0098
15435TIP3   OH267795   4.041   5.520  12.394  0.4856  0.2644 -0.3013
15435TIP3    H167796   3.986   5.453  12.436 -0.6911  0.5676 -1.2987
15435TIP3    H267797   4.131   5.488  12.407 -0.0659 -2.1859 -1.7876
15436TIP3   OH267798   0.904   5.695  10.544 -0.2268 -0.4512  0.0082
15436TIP3    H167799   0.831   5.755  10.550  0.5315  0.4015  1.0058
15436TIP3    H267800   0.865   5.612  10.515 -1.4737  0.1467 -0.0645
15437TIP3   OH267801   4.016   4.788  16.628  0.0320 -0.0935  0.2846
15437TIP3    H167802   4.055   4.766  16.543  0.1402  0.7782  0.0954
15437TIP3    H267803   3.931   4.744  16.628  0.4281 -0.8670  0.1146
15438TIP3   OH267804   5.801   0.370  11.474  0.1765  0.1658 -0.3909
15438TIP3    H167805   5.710   0.385  11.449  0.5782  1.3626 -1.2151
15438TIP3    H267806   5.825   0.290  11.428  0.5338  1.6888 -3.0485
15439TIP3   OH267807   1.894   3.260   3.904 -0.1310  0.2186  0.2624
15439TIP3    H167808   1.810   3.267   3.948 -0.1110  0.1349  0.3151
15439TIP3    H267809   1.939   3.342   3.923 -0.2277  0.2926  0.1762
15440TIP3   OH267810   4.097   6.705   2.130 -0.0379  0.1570 -0.4366
15440TIP3    H167811   4.180   6.661   2.111  0.0971 -0.1842  0.8558
15440TIP3    H267812   4.034   6.664   2.071  0.3329 -0.9468 -0.0924
15441TIP3   OH267813   4.233   4.999  11.366  0.2549  0.7668  0.2451
15441TIP3    H167814   4.255   4.920  11.318 -0.4728  1.7176 -1.7752
15441TIP3    H267815   4.269   5.071  11.314  0.9468  1.8186  2.0413
15442TIP3   OH267816   2.709   0.588  14.545  0.2381  0.8450  0.1919
15442TIP3    H167817   2.654   0.517  14.579  1.9559 -0.0121  1.3830
15442TIP3    H267818   2.692   0.589  14.451  0.5932 -1.6255  0.0220
15443TIP3   OH267819   6.802   6.574  12.373  0.2697 -0.0701  0.4340
15443TIP3    H167820   6.750   6.651  12.397  1.0213  0.0620  1.7638
15443TIP3    H267821   6.742   6.500  12.382 -0.5092  0.3440 -1.0145
15444TIP3   OH267822   1.033   5.832  15.046 -0.7067 -0.2887  0.7016
15444TIP3    H167823   0.980   5.770  15.096 -1.4838  0.7848  1.2494
15444TIP3    H267824   0.991   5.917  15.060 -0.3178  0.2136 -0.9237
15445TIP3   OH267825   0.951   5.004   5.283 -0.5735 -0.2767 -0.4701
15445TIP3    H167826   0.903   5.014   5.201 -1.8628 -0.6888  0.2138
15445TIP3    H267827   1.008   5.081   5.287 -0.6359 -0.1551 -1.6534
15446TIP3   OH267828   0.682   1.942  14.070  0.0965 -0.0060 -0.0860
15446TIP3    H167829   0.588   1.927  14.066  0.3210 -1.3560 -1.6693
15446TIP3    H267830   0.699   1.968  14.160 -1.6119 -1.0976  0.5937
15447TIP3   OH267831   3.937   6.322  11.588  0.0727 -0.2905  0.1951
15447TIP3    H167832   3.850   6.312  11.549 -0.5778  2.2861  0.8191
15447TIP3    H267833   3.923   6.314  11.682  0.5750 -0.2053  0.2813
15448TIP3   OH267834   4.688   0.752   4.519  0.4134  0.5214  0.0010
15448TIP3    H167835   4.669   0.846   4.520 -0.1547  0.4047  0.5544
15448TIP3    H267836   4.759   0.741   4.582 -0.7314  0.3468  1.3168
15449TIP3   OH267837   6.366   1.914   4.253  0.2017  1.0409  0.2649
15449TIP3    H167838   6.346   1.926   4.160 -0.1178 -1.2268 -0.0042
15449TIP3    H267839   6.461   1.905   4.256  0.2332  1.3413  0.1932
15450TIP3   OH267840   1.564   3.941   0.910 -0.4599 -0.0566  0.1794
15450TIP3    H167841   1.524   3.919   0.995  0.6027 -0.2026  0.6608
15450TIP3    H267842   1.490   3.952   0.851 -1.4510  2.8913  1.7421
15451TIP3   OH267843   4.038   4.188   5.090  0.3480  0.5312 -0.3471
15451TIP3    H167844   4.046   4.278   5.121  1.7917  0.4070 -0.2869
15451TIP3    H267845   4.093   4.137   5.150 -0.4794 -0.4132 -0.3507
15452TIP3   OH267846   6.147   2.430   5.100  0.8360 -0.0867  0.4316
15452TIP3    H167847   6.097   2.381   5.034 -0.2974 -0.0260  1.2155
15452TIP3    H267848   6.172   2.511   5.055 -1.4374  0.7662  0.5221
15453TIP3   OH267849   6.753   3.132   4.505  0.6284 -0.1833 -0.1608
15453TIP3    H167850   6.843   3.140   4.474  0.5992 -1.3187 -0.6048
15453TIP3    H267851   6.759   3.082   4.586  0.4263  0.0844  0.0223
15454TIP3   OH267852   0.794   2.940   4.274 -0.7646  0.2529 -0.5234
15454TIP3    H167853   0.834   2.984   4.349  2.2338  1.3917 -2.5768
15454TIP3    H267854   0.842   2.858   4.266 -0.6047  0.4397 -1.5607
15455TIP3   OH267855   6.620   5.260   0.387  0.4802  0.0269 -0.5729
15455TIP3    H167856   6.644   5.196   0.320  0.3164 -1.4273  0.7051
15455TIP3    H267857   6.605   5.208   0.466  0.9308  1.7059  0.6826
15456TIP3   OH267858   0.747   2.310  13.946  0.3020 -0.5505 -0.4249
15456TIP3    H167859   0.763   2.240  14.009 -1.2527 -0.7772 -0.2488
15456TIP3    H267860   0.653   2.328  13.953  0.4535  0.7258 -1.3294
15457TIP3   OH267861   3.054   2.778  12.486  0.2615  0.7592  0.2949
15457TIP3    H167862   3.136   2.731  12.471  0.2154  1.1941 -1.6307
15457TIP3    H267863   2.987   2.710  12.485  0.5392  0.4439  1.5142
15458TIP3   OH267864   2.890   6.251   5.460  0.0622 -1.1106  0.7085
15458TIP3    H167865   2.840   6.255   5.542 -2.5015 -0.8077 -0.7587
15458TIP3    H267866   2.846   6.182   5.410 -0.1432  0.4984 -1.4266
15459TIP3   OH267867   5.089   6.658   1.104  0.2885 -0.0602  0.0629
15459TIP3    H167868   5.143   6.621   1.034  1.2240 -0.8040  1.1305
15459TIP3    H267869   5.050   6.582   1.147 -0.1583  0.3777  0.4504
15460TIP3   OH267870   6.612   4.546   3.183  0.2322 -0.0576  0.7644
15460TIP3    H167871   6.624   4.610   3.113  0.9601 -0.1596  0.7875
15460TIP3    H267872   6.557   4.478   3.144  1.3440 -0.5428 -0.0060
15461TIP3   OH267873   1.370   0.665   3.296 -0.4408 -0.2367 -0.0693
15461TIP3    H167874   1.456   0.701   3.317  0.0395 -0.2212 -1.9283
15461TIP3    H267875   1.308   0.720   3.344  0.4220  1.5861 -0.9742
15462TIP3   OH267876   3.760   4.035  11.878  0.0399  0.5520 -0.7896
15462TIP3    H167877   3.841   3.990  11.854 -0.3318  0.4264 -1.8765
15462TIP3    H267878   3.788   4.107  11.933  0.9128  0.5854 -1.2544
15463TIP3   OH267879   0.530   4.013   2.523  0.1116 -0.1143  0.2174
15463TIP3    H167880   0.538   3.948   2.592 -1.1139  0.0475  0.5342
15463TIP3    H267881   0.489   3.966   2.450 -0.2529  0.1526  0.2457
15464TIP3   OH267882   1.963   2.444  14.184  0.0932 -0.4781 -0.3300
15464TIP3    H167883   2.029   2.405  14.241  0.7704  0.2187 -0.6183
15464TIP3    H267884   1.989   2.417  14.096  0.3039  0.2339 -0.4920
15465TIP3   OH267885   0.195   3.055   1.795  0.3107  0.1718 -0.0438
15465TIP3    H167886   0.286   3.049   1.824  0.2903  0.0236 -0.0086
15465TIP3    H267887   0.173   3.148   1.803  0.5321  0.2451 -0.2774
15466TIP3   OH267888   3.389   2.693   1.787 -0.2214  0.4750  0.1233
15466TIP3    H167889   3.323   2.762   1.786 -0.1466  0.5410 -0.1439
15466TIP3    H267890   3.428   2.695   1.700 -0.0053  0.3017  0.2153
15467TIP3   OH267891   3.904   0.398   2.745 -0.0274 -0.2267  0.3311
15467TIP3    H167892   3.847   0.475   2.749 -0.1668 -0.2850 -0.3316
15467TIP3    H267893   3.976   0.425   2.687 -0.7150 -0.9819 -0.9229
15468TIP3   OH267894   4.924   4.671   2.631  0.7949 -0.1030 -0.2899
15468TIP3    H167895   4.942   4.603   2.696  0.5330 -0.7697 -0.9055
15468TIP3    H267896   5.005   4.677   2.580  1.5713  1.4781  0.9852
15469TIP3   OH267897   4.890   6.623  15.623  0.6231  0.0936  0.0366
15469TIP3    H167898   4.951   6.638  15.695  1.7511  1.0381 -1.0785
15469TIP3    H267899   4.930   6.666  15.547 -0.9958 -0.0309 -0.9467
15470TIP3   OH267900   6.544   1.091  16.261  0.5454 -0.0685 -0.3627
15470TIP3    H167901   6.602   1.031  16.216 -0.3450 -1.8080  0.6695
15470TIP3    H267902   6.491   1.035  16.318 -1.4623  1.5205 -0.5379
15471TIP3   OH267903   4.841   1.161   1.708 -0.1391  0.3229 -0.0290
15471TIP3    H167904   4.872   1.121   1.626  0.1888 -0.2662  0.3738
15471TIP3    H267905   4.826   1.253   1.686 -1.2650 -0.0764 -1.0840
15472TIP3   OH267906   5.443   2.854   0.277  0.4497  0.4756 -0.0916
15472TIP3    H167907   5.360   2.900   0.285  0.1978  0.0029  0.0372
15472TIP3    H267908   5.460   2.819   0.365  0.3021 -0.2356 -0.3339
15473TIP3   OH267909   5.416   5.743  16.471  0.2334  0.4564  0.1145
15473TIP3    H167910   5.407   5.679  16.542  3.1683  0.5207  0.6895
15473TIP3    H267911   5.336   5.794  16.474 -0.1495 -0.1507  2.7929
15474TIP3   OH267912   0.174   2.302   4.677 -0.0629 -0.4349 -0.2614
15474TIP3    H167913   0.240   2.269   4.737 -0.8278 -1.5415 -0.0120
15474TIP3    H267914   0.209   2.285   4.590  0.5143  0.0996 -0.1418
15475TIP3   OH267915   1.757   4.945   6.309 -0.6048 -0.2549 -0.3441
15475TIP3    H167916   1.714   4.903   6.234  1.7412 -1.3296 -1.1719
15475TIP3    H267917   1.698   5.017   6.332 -2.8242 -1.6123 -1.3656
15476TIP3   OH267918   1.667   1.066   3.469 -0.1393 -0.4964  0.1768
15476TIP3    H167919   1.646   1.083   3.561 -1.0148  1.9538 -0.3996
15476TIP3    H267920   1.762   1.054   3.468 -0.1778 -1.0807  1.4494
15477TIP3   OH267921   4.815   0.716  15.427 -0.1810 -0.1532 -0.1565
15477TIP3    H167922   4.723   0.732  15.448  0.0760  1.3732 -0.0829
15477TIP3    H267923   4.851   0.803  15.407  1.3062 -0.6827  0.0690
15478TIP3   OH267924   0.801   5.797   5.654  0.1626  0.0787 -0.2149
15478TIP3    H167925   0.836   5.883   5.632 -0.1381  0.4977  0.8829
15478TIP3    H267926   0.874   5.737   5.637  0.7260  0.6821  0.0165
15479TIP3   OH267927   0.837   1.984  10.991  0.0703 -0.0154 -0.4679
15479TIP3    H167928   0.922   2.012  10.958  0.2815  1.4111  1.1079
15479TIP3    H267929   0.774   2.037  10.941  0.3444  1.5728  0.7707
15480TIP3   OH267930   4.916   6.457  15.984  0.5889  0.5934 -0.3047
15480TIP3    H167931   4.834   6.497  16.013  0.4185  0.7375 -0.9752
15480TIP3    H267932   4.962   6.527  15.939  2.0223  1.1265  1.8012
15481TIP3   OH267933   5.885   4.626  15.948  0.0550 -0.3844  0.3106
15481TIP3    H167934   5.829   4.703  15.950  1.4511  0.6721  0.0633
15481TIP3    H267935   5.861   4.578  16.027 -0.7855  0.3269  0.5104
15482TIP3   OH267936   6.225   2.820  16.026 -0.2361  0.2561  0.5078
15482TIP3    H167937   6.188   2.784  16.107 -0.3636  2.0615  1.3071
15482TIP3    H267938   6.292   2.882  16.056  2.1659 -1.4789 -0.8704
15483TIP3   OH267939   2.902   3.456  13.501 -0.1258 -0.1361 -0.0452
15483TIP3    H167940   2.965   3.440  13.571 -1.9724 -1.7490  1.3570
15483TIP3    H267941   2.888   3.551  13.502  2.2366  0.2733 -0.4409
15484TIP3   OH267942   1.018   1.106  15.635  0.0717 -0.2793  0.1843
15484TIP3    H167943   1.009   1.201  15.636  1.6776 -0.1017  0.7918
15484TIP3    H267944   1.015   1.082  15.542 -0.7379  0.2995  0.0496
15485TIP3   OH267945   0.533   2.301   0.983 -0.2062  0.4337  0.0242
15485TIP3    H167946   0.541   2.387   0.943 -1.4397  0.3677 -0.3925
15485TIP3    H267947   0.467   2.311   1.051 -0.4228 -0.2024 -0.0814
15486TIP3   OH267948   6.052   0.251  15.051 -0.0701 -0.5950  0.4572
15486TIP3    H167949   5.965   0.286  15.069  0.0712  0.0015  0.0260
15486TIP3    H267950   6.051   0.234  14.956  0.0236 -1.3298  0.5793
15487TIP3   OH267951   4.165   4.780   5.318 -0.1088 -0.1845  1.0061
15487TIP3    H167952   4.226   4.750   5.250 -0.7271 -1.3557  0.9549
15487TIP3    H267953   4.078   4.758   5.284 -0.7309  2.7243  0.4177
15488TIP3   OH267954   6.353   6.395   4.165 -0.0830  0.1172  0.1971
15488TIP3    H167955   6.299   6.468   4.197  0.6102  0.8213 -0.2132
15488TIP3    H267956   6.438   6.434   4.145 -0.2742 -0.4223 -1.8656
15489TIP3   OH267957   5.893   2.248  14.394  0.0213  0.5334  0.2715
15489TIP3    H167958   5.894   2.310  14.467 -1.6396  0.3350  0.5145
15489TIP3    H267959   5.827   2.283  14.334  0.2026 -0.1716 -0.3547
15490TIP3   OH267960   0.184   1.518   4.532  0.2645 -0.0580 -0.1193
15490TIP3    H167961   0.261   1.558   4.492 -0.0424  0.7968  0.1320
15490TIP3    H267962   0.145   1.466   4.462  1.2918 -0.8291 -0.1353
15491TIP3   OH267963   0.889   1.182   5.960  0.6988 -0.5516  0.2456
15491TIP3    H167964   0.814   1.240   5.969  0.0028 -1.5309  1.0960
15491TIP3    H267965   0.895   1.163   5.866  1.4424  1.4785 -0.1568
15492TIP3   OH267966   3.396   4.260  12.089 -0.0905  0.5854 -0.0520
15492TIP3    H167967   3.324   4.201  12.110 -0.5724  1.4472  0.7879
15492TIP3    H267968   3.386   4.277  11.995 -1.9720  1.9250  0.3207
15493TIP3   OH267969   5.770   3.604   2.120  0.0953  0.1138 -0.1225
15493TIP3    H167970   5.736   3.630   2.206  0.6118  0.2681  0.0359
15493TIP3    H267971   5.724   3.661   2.058 -0.7309 -0.4145 -0.0098
15494TIP3   OH267972   6.132   0.821  11.272 -0.0408 -0.0248  0.8485
15494TIP3    H167973   6.061   0.883  11.290  0.7765  1.3327 -0.3535
15494TIP3    H267974   6.132   0.813  11.177  1.6555  0.3316  0.7881
15495TIP3   OH267975   0.016   1.504   2.426 -0.3570 -0.5355 -0.0778
15495TIP3    H167976  -0.045   1.443   2.384 -0.8213  2.1536 -3.8270
15495TIP3    H267977   0.098   1.491   2.378 -0.0265  0.7152  0.1319
15496TIP3   OH267978   5.330   6.121  13.738  0.1317  0.0529 -0.3611
15496TIP3    H167979   5.293   6.197  13.693 -0.5500 -0.7212 -1.1471
15496TIP3    H267980   5.254   6.076  13.775  0.4904 -0.4426 -0.2211
15497TIP3   OH267981   5.562   3.551  15.903  0.1808  0.3502  0.1281
15497TIP3    H167982   5.542   3.581  15.814 -0.3881 -0.0290  0.1160
15497TIP3    H267983   5.562   3.631  15.956  0.3666  0.5604 -0.1868
15498TIP3   OH267984   6.728   6.573  14.588 -0.2632  0.4930  0.1960
15498TIP3    H167985   6.633   6.572  14.584 -0.2429  0.9180 -0.9923
15498TIP3    H267986   6.750   6.665  14.606 -0.0678  0.6598 -0.8304
15499TIP3   OH267987   3.765   0.160   0.008 -0.2925 -0.2761 -0.1062
15499TIP3    H167988   3.770   0.070   0.040 -1.2928 -0.4626 -0.4346
15499TIP3    H267989   3.853   0.197   0.024  0.4378 -1.6120 -0.8864
15500TIP3   OH267990   0.530   4.547   4.747  1.2686 -0.6891 -0.0434
15500TIP3    H167991   0.481   4.517   4.824 -0.0679 -4.4219 -2.1178
15500TIP3    H267992   0.607   4.490   4.743  2.0894  0.4115 -0.7699
15501TIP3   OH267993   0.961   1.494  12.746  0.1917 -0.1263  0.9402
15501TIP3    H167994   0.973   1.580  12.784  0.3551  0.1734  0.2260
15501TIP3    H267995   0.880   1.501  12.695  0.4985 -0.2286  0.4313
15502TIP3   OH267996   1.986   0.663   5.154 -0.4708  0.1944  0.4700
15502TIP3    H167997   1.915   0.651   5.216  2.0164 -1.5582  3.2570
15502TIP3    H267998   1.951   0.633   5.070 -3.0477 -0.3685  1.6676
15503TIP3   OH267999   3.393   6.459  11.945 -0.0354  0.0726  0.3251
15503TIP3    H168000   3.472   6.505  11.974  1.5294 -0.3583 -2.8931
15503TIP3    H268001   3.344   6.526  11.896 -0.3358 -0.3460  0.0535
15504TIP3   OH268002   3.363   2.806  14.286  0.2023 -0.0493  0.1075
15504TIP3    H168003   3.301   2.873  14.315 -0.7752 -1.5935  1.7802
15504TIP3    H268004   3.416   2.850  14.220 -1.8256  1.7029 -0.4611
15505TIP3   OH268005   5.204   1.083   3.755  0.7792 -0.1315 -0.1427
15505TIP3    H168006   5.118   1.053   3.727  0.4741 -1.7774  2.2552
15505TIP3    H268007   5.190   1.174   3.783 -0.1413 -0.3062 -0.0234
15506TIP3   OH268008   0.488   2.373   4.661  0.5845 -0.2937  0.5433
15506TIP3    H168009   0.462   2.463   4.682 -1.1874 -0.6191 -0.0994
15506TIP3    H268010   0.495   2.371   4.566  3.4001 -0.1663  0.6700
15507TIP3   OH268011   2.518   0.725   4.971 -0.1506 -0.6653  0.3256
15507TIP3    H168012   2.539   0.636   4.998  1.1577  0.0112  1.7179
15507TIP3    H268013   2.587   0.748   4.909  0.0111 -0.3259  0.6314
15508TIP3   OH268014   6.497   4.059   0.591  0.3857  0.1284  0.1821
15508TIP3    H168015   6.409   4.021   0.586  0.3675  0.2647 -0.6845
15508TIP3    H268016   6.516   4.088   0.501 -0.2933  3.6929  1.0105
15509TIP3   OH268017   0.156   4.001   2.291  0.4772  0.1780 -0.4989
15509TIP3    H168018   0.165   3.955   2.374  0.1770 -1.4210 -1.2974
15509TIP3    H268019   0.155   4.094   2.314 -0.3551 -0.2425  1.3434
15510TIP3   OH268020   4.858   3.625  16.163 -0.3324  0.2365 -0.2754
15510TIP3    H168021   4.820   3.548  16.122  1.8541 -0.4491 -1.1675
15510TIP3    H268022   4.858   3.605  16.257  1.3992 -1.4888 -0.5900
15511TIP3   OH268023   1.905   5.429  10.320 -0.0393  0.2532  0.9498
15511TIP3    H168024   1.846   5.377  10.375 -2.5714  0.5844 -1.2654
15511TIP3    H268025   1.886   5.520  10.343 -0.9794  0.3883 -0.2826
15512TIP3   OH268026   5.367   0.391  10.564  0.3662  0.7346  0.3011
15512TIP3    H168027   5.324   0.340  10.496  2.7269 -1.5028  0.3145
15512TIP3    H268028   5.330   0.359  10.646 -1.6887  2.6528  0.1918
15513TIP3   OH268029   5.995   5.124  14.342  0.1747  0.3063 -0.1500
15513TIP3    H168030   5.956   5.057  14.397 -0.5884  0.8673  0.0090
15513TIP3    H268031   6.023   5.077  14.263 -2.9368  0.1721 -1.3424
15514TIP3   OH268032   2.953   2.373  15.855  0.3111  0.1475 -0.4241
15514TIP3    H168033   3.020   2.429  15.894 -0.4361  0.5466  0.3254
15514TIP3    H268034   2.871   2.423  15.866 -0.5114 -1.3861  0.9859
15515TIP3   OH268035   2.914   6.031  14.190  0.3736 -0.0186  0.0194
15515TIP3    H168036   2.879   5.982  14.116  1.3648 -0.8662  0.0729
15515TIP3    H268037   2.839   6.045  14.248 -0.2192 -0.1796 -0.7047
15516TIP3   OH268038   3.867   0.709   2.627 -0.1578 -0.1246  0.3161
15516TIP3    H168039   3.779   0.677   2.645 -0.2408 -0.0624  0.0237
15516TIP3    H268040   3.880   0.693   2.534  0.9685 -2.1202  0.7807
15517TIP3   OH268041   1.347   4.194  11.575  0.1205 -0.1585  0.5329
15517TIP3    H168042   1.327   4.127  11.640  0.7872 -1.8165 -0.8961
15517TIP3    H268043   1.281   4.263  11.589 -1.0463 -1.4466  1.5691
15518TIP3   OH268044   5.623   4.747  15.255 -0.1717 -0.1502 -0.0558
15518TIP3    H168045   5.550   4.768  15.313  0.9884  0.2198  1.3355
15518TIP3    H268046   5.643   4.655  15.274 -0.0808 -0.1622 -0.2052
15519TIP3   OH268047   0.325   6.622  15.650 -0.3335 -0.2427  0.4535
15519TIP3    H168048   0.410   6.620  15.694 -1.0593 -1.0688  1.8942
15519TIP3    H268049   0.290   6.534  15.662 -1.4787  0.1367  0.0359
15520TIP3   OH268050   2.872   5.153   3.021  0.4755 -0.2986 -0.0060
15520TIP3    H168051   2.815   5.206   2.966  0.8761 -0.4539 -0.5815
15520TIP3    H268052   2.912   5.215   3.082  0.1234 -0.1100  0.0335
15521TIP3   OH268053   1.715   4.470   5.943  0.9301 -0.4860 -0.5944
15521TIP3    H168054   1.673   4.395   5.985  2.4403 -1.0201  0.0256
15521TIP3    H268055   1.794   4.434   5.902  0.2688  0.2849 -2.6883
15522TIP3   OH268056   6.621   6.208  17.026 -0.0285  0.1276 -0.2224
15522TIP3    H168057   6.589   6.251  16.947  0.5815  1.8210  0.4000
15522TIP3    H268058   6.587   6.261  17.098  0.7713 -0.4244  0.5925
15523TIP3   OH268059   4.404   0.163  13.630 -0.3643 -0.3521 -0.5945
15523TIP3    H168060   4.318   0.203  13.640 -0.2594 -0.2382 -0.1156
15523TIP3    H268061   4.465   0.238  13.628 -0.1833 -0.4729  0.1384
15524TIP3   OH268062   0.233   3.861  16.049 -0.0665  0.1680 -0.2636
15524TIP3    H168063   0.183   3.936  16.016 -2.8642 -0.8572  1.2921
15524TIP3    H268064   0.185   3.785  16.016 -0.1182 -0.8798  2.0928
15525TIP3   OH268065   6.113   5.004   5.500  0.3796  0.1438  0.3237
15525TIP3    H168066   6.078   4.924   5.539 -0.3763  0.5695  0.5462
15525TIP3    H268067   6.181   4.974   5.440  0.1125 -0.6639  0.4133
15526TIP3   OH268068   3.126   6.599   6.682  0.0103  0.4133  0.6305
15526TIP3    H168069   3.121   6.694   6.692 -0.0419  0.4813 -0.0368
15526TIP3    H268070   3.220   6.581   6.681  0.0810  0.7093 -1.4739
15527TIP3   OH268071   3.984   3.155  16.562  0.5119  0.3844  0.2107
15527TIP3    H168072   4.058   3.137  16.620  0.5619 -0.4955 -0.1151
15527TIP3    H268073   4.013   3.231  16.511 -0.3736  2.6164  2.7716
15528TIP3   OH268074   2.088   0.211  16.526  0.7010  0.1206 -0.1439
15528TIP3    H168075   1.994   0.222  16.531  0.4795 -0.9541 -1.3287
15528TIP3    H268076   2.110   0.155  16.600  0.6017  1.2905  0.8007
15529TIP3   OH268077   0.096   5.327   6.857  0.6210 -0.3011 -0.4330
15529TIP3    H168078   0.112   5.383   6.781 -0.9155 -1.1275 -1.4253
15529TIP3    H268079   0.006   5.295   6.845 -0.2616  0.7648  2.5586
15530TIP3   OH268080   4.178   1.997   6.111  0.6502  0.3106 -0.2933
15530TIP3    H168081   4.148   1.933   6.175  2.0941  0.2353  0.3555
15530TIP3    H268082   4.109   2.001   6.046 -0.4736 -0.2404  0.8340
15531TIP3   OH268083   3.309   0.889   1.200  0.4941 -0.1304 -0.3658
15531TIP3    H168084   3.350   0.811   1.238  0.9438  0.3280  0.1123
15531TIP3    H268085   3.293   0.946   1.275 -0.3741 -0.0026 -0.6423
15532TIP3   OH268086   3.326   0.524   2.808  0.1257  0.4163  0.2648
15532TIP3    H168087   3.306   0.506   2.899 -0.0338  0.8068  0.3113
15532TIP3    H268088   3.252   0.488   2.759  0.8442 -0.9943  0.1711
15533TIP3   OH268089   2.192   6.761   5.591  0.1323  0.4335 -0.4032
15533TIP3    H168090   2.220   6.670   5.602  1.0836  0.7350 -0.1847
15533TIP3    H268091   2.140   6.779   5.669 -1.4027 -0.3796 -1.1929
15534TIP3   OH268092   3.227   0.980  13.579 -0.0752 -0.1030 -0.2008
15534TIP3    H168093   3.282   1.057  13.566  0.9825 -1.0132 -1.3453
15534TIP3    H268094   3.288   0.911  13.604 -0.3989 -1.4852 -2.8016
15535TIP3   OH268095   6.234   4.438   1.183 -0.3614 -0.9030  0.0026
15535TIP3    H168096   6.271   4.515   1.226  0.7690 -1.5122  0.1771
15535TIP3    H268097   6.161   4.471   1.132 -1.4082 -0.0661  1.9417
15536TIP3   OH268098   4.373   5.017   5.426  0.2245  0.2596 -0.2631
15536TIP3    H168099   4.348   4.937   5.382  0.6381 -0.4912  0.8241
15536TIP3    H268100   4.325   5.016   5.509  2.0110 -0.0669  0.8216
15537TIP3   OH268101   2.416   0.308  13.354  0.0877 -0.3998  0.4118
15537TIP3    H168102   2.369   0.237  13.311  0.3220 -0.6808  0.6119
15537TIP3    H268103   2.435   0.371  13.284 -1.7252  0.3707  0.5466
15538TIP3   OH268104   4.984   1.413  15.852 -0.4767 -0.3195 -0.0609
15538TIP3    H168105   5.025   1.414  15.766  1.0491 -0.8709  0.6293
15538TIP3    H268106   5.006   1.327  15.889  0.8978  0.7376  1.7778
15539TIP3   OH268107   5.314   3.136   3.951 -0.7268 -0.2667 -0.2426
15539TIP3    H168108   5.274   3.049   3.942  0.0885 -0.7265  0.4930
15539TIP3    H268109   5.345   3.139   4.041 -1.5246  1.1385  0.0141
15540TIP3   OH268110   3.401   0.526  10.735 -0.3739  0.6579  0.2857
15540TIP3    H168111   3.481   0.475  10.745 -1.0526 -0.7020 -0.8686
15540TIP3    H268112   3.414   0.603  10.791  1.3939  0.0803  0.7240
15541TIP3   OH268113   0.671   3.215   4.473  0.6276 -0.1785  0.2137
15541TIP3    H168114   0.641   3.155   4.404 -1.2209  0.6989  0.1711
15541TIP3    H268115   0.737   3.166   4.522  0.2102 -1.7018 -0.6993
15542TIP3   OH268116   3.228   1.449   2.151 -0.1574 -0.4380  0.2582
15542TIP3    H168117   3.143   1.450   2.194 -1.6090 -0.0823 -2.4009
15542TIP3    H268118   3.271   1.371   2.186 -2.2661 -1.5921  0.4642
15543TIP3   OH268119   1.888   3.571  12.163 -0.5694 -0.2229 -0.3301
15543TIP3    H168120   1.899   3.623  12.083  2.5853  0.3016  0.2915
15543TIP3    H268121   1.842   3.492  12.135 -1.9541  1.1393 -2.0806
15544TIP3   OH268122   6.554   1.033   2.002 -0.2364  0.1299 -0.7729
15544TIP3    H168123   6.632   1.087   2.013 -0.4477  0.2717  0.1626
15544TIP3    H268124   6.521   1.054   1.915 -0.7081  2.0254 -0.1796
15545TIP3   OH268125   5.904   6.807   3.917  0.2748  0.6083 -0.3688
15545TIP3    H168126   5.929   6.889   3.960  0.5543  0.5003 -0.3186
15545TIP3    H268127   5.951   6.739   3.966  0.5748  0.4802 -0.8248
15546TIP3   OH268128   5.355   5.161   5.824  0.4894  0.0139  0.6350
15546TIP3    H168129   5.433   5.140   5.773 -0.0886 -0.7975  0.0601
15546TIP3    H268130   5.308   5.078   5.830 -1.0191  0.7770 -0.1902
15547TIP3   OH268131   3.189   2.127  12.416 -0.1176  0.0624 -0.5590
15547TIP3    H168132   3.117   2.090  12.467 -0.7724  1.1553 -0.6627
15547TIP3    H268133   3.261   2.064  12.426 -1.0037 -0.9295 -0.2598
15548TIP3   OH268134   5.289   4.136  13.813  0.0954  0.2422 -0.2463
15548TIP3    H168135   5.258   4.222  13.841 -1.3426 -0.3026 -0.0509
15548TIP3    H268136   5.296   4.143  13.717 -0.9586  0.3060 -0.3298
15549TIP3   OH268137   0.212   1.515  13.675 -0.0797 -0.6123  0.6759
15549TIP3    H168138   0.152   1.485  13.743 -1.2488 -4.0517 -1.5952
15549TIP3    H268139   0.286   1.455  13.680 -0.0205 -0.7126 -0.7510
15550TIP3   OH268140   1.373   3.736   1.286 -0.0853  0.4949 -0.5365
15550TIP3    H168141   1.375   3.640   1.293 -0.9247  0.4826 -0.3081
15550TIP3    H268142   1.313   3.763   1.355  0.8306  1.2586 -0.0221
15551TIP3   OH268143   4.605   1.104   1.886  0.6189 -0.3783  0.0066
15551TIP3    H168144   4.577   1.052   1.811 -1.2791 -0.5071  0.7269
15551TIP3    H268145   4.660   1.173   1.849 -1.6965  0.6603 -1.8059
15552TIP3   OH268146   4.890   4.414  11.755 -0.1052  0.3422 -0.4412
15552TIP3    H168147   4.907   4.439  11.663 -0.1746  2.2409  0.0120
15552TIP3    H268148   4.973   4.377  11.785 -0.2029 -0.6786 -1.3789
15553TIP3   OH268149   3.894   2.904  17.145 -0.3007 -0.5541  0.1420
15553TIP3    H168150   3.956   2.836  17.116 -0.5662 -0.9476  0.4891
15553TIP3    H268151   3.877   2.883  17.237  0.4293  0.6079  0.5553
15554TIP3   OH268152   1.255   4.421  16.537 -0.1324 -0.4193  0.8900
15554TIP3    H168153   1.325   4.379  16.486  0.9452  1.3854  0.8144
15554TIP3    H268154   1.286   4.416  16.628  0.3736  0.8319  0.8038
15555TIP3   OH268155   5.160   2.029  10.981  0.5787  0.2723 -0.3049
15555TIP3    H168156   5.097   1.957  10.987  1.4372 -0.4409  0.4143
15555TIP3    H268157   5.218   2.005  10.909  1.0912  0.0433  0.1738
15556TIP3   OH268158   3.545   4.133  13.786  0.2526  0.5284  0.5103
15556TIP3    H168159   3.522   4.179  13.706 -1.0195  0.5662  0.8722
15556TIP3    H268160   3.551   4.041  13.761  1.0155  0.6709  0.1490
15557TIP3   OH268161   1.300   2.728  15.358  0.2012  0.7366 -0.2833
15557TIP3    H168162   1.380   2.683  15.330  1.0182  3.2131 -2.2581
15557TIP3    H268163   1.329   2.794  15.420 -0.4535  0.9919 -0.2361
15558TIP3   OH268164   2.020   6.133   5.732  0.9735 -0.3302 -0.1032
15558TIP3    H168165   1.992   6.052   5.688  0.4217 -1.0802  1.5456
15558TIP3    H268166   2.107   6.113   5.765  1.6970  0.4871 -1.4300
15559TIP3   OH268167   1.832   4.307  14.144  0.2569  0.1996  0.2951
15559TIP3    H168168   1.894   4.377  14.121  1.3041 -0.4278  1.1053
15559TIP3    H268169   1.820   4.258  14.062  3.3745 -1.5732  0.7294
15560TIP3   OH268170   6.618   4.458  12.086 -0.1088 -0.4525 -0.0803
15560TIP3    H168171   6.706   4.421  12.082  0.0410 -0.0161 -1.8372
15560TIP3    H268172   6.580   4.423  12.166  1.5236 -0.9516  0.5074
15561TIP3   OH268173   5.490   2.164   1.071 -0.3983  0.1146  0.4758
15561TIP3    H168174   5.525   2.148   0.983 -2.0448  1.0292 -0.3817
15561TIP3    H268175   5.464   2.077   1.102  0.4149 -0.2493  0.1787
15562TIP3   OH268176   5.202   3.390   0.123 -0.1023  0.1605 -0.1436
15562TIP3    H168177   5.185   3.466   0.067 -1.1834  0.5431  0.6491
15562TIP3    H268178   5.147   3.406   0.201 -0.1351 -1.3029  0.1566
15563TIP3   OH268179   5.673   3.447  12.014 -0.2773  0.3456  0.3419
15563TIP3    H168180   5.654   3.361  11.976 -1.9476  0.7987  0.0731
15563TIP3    H268181   5.736   3.487  11.954  1.9550 -1.3519  1.4235
15564TIP3   OH268182   2.552   2.141  11.776 -0.0759 -0.1138 -0.1008
15564TIP3    H168183   2.593   2.162  11.860 -0.4204 -0.1383  0.0753
15564TIP3    H268184   2.545   2.225  11.731  0.9973 -0.2315 -0.5151
15565TIP3   OH268185   5.811   6.661  14.822  0.7337  0.0931  0.2375
15565TIP3    H168186   5.902   6.690  14.816  0.5109  0.8649  0.5260
15565TIP3    H268187   5.762   6.724  14.770  0.5198 -1.1410 -1.1300
15566TIP3   OH268188   3.670   1.543   0.897 -0.3087  0.0777  0.1329
15566TIP3    H168189   3.762   1.565   0.880 -0.2715 -0.4930 -0.4118
15566TIP3    H268190   3.642   1.495   0.820 -1.5197  1.5668 -0.4177
15567TIP3   OH268191   4.457   6.210  14.138 -0.1418 -0.3437  0.5608
15567TIP3    H168192   4.478   6.174  14.052  2.1736 -2.3179  1.8066
15567TIP3    H268193   4.388   6.152  14.172 -1.6398  0.9223 -0.2066
15568TIP3   OH268194   6.579   4.867  14.412 -0.2400  0.3288 -0.1197
15568TIP3    H168195   6.581   4.786  14.463  0.7440  0.3536 -0.1053
15568TIP3    H268196   6.512   4.921  14.454  0.5076  0.3212  1.1066
15569TIP3   OH268197   1.510   2.129  12.699  0.7499  0.5088 -0.6366
15569TIP3    H168198   1.450   2.139  12.773  2.8494 -0.8431  1.3967
15569TIP3    H268199   1.549   2.215  12.688 -0.4673  1.0317 -1.0360
15570TIP3   OH268200   1.274   4.949   3.527  0.4502  0.4459 -0.3837
15570TIP3    H168201   1.330   4.889   3.577  1.0167  2.4969  1.6640
15570TIP3    H268202   1.221   4.893   3.472  1.7325 -1.8360  0.5662
15571TIP3   OH268203   3.621   4.618   2.330 -0.4311  0.9958  0.1899
15571TIP3    H168204   3.696   4.622   2.271 -0.6421 -0.2886 -0.1943
15571TIP3    H268205   3.638   4.687   2.394  1.0094  0.8347  0.0217
15572TIP3   OH268206   5.712   4.613   4.486 -0.3156  0.1117  0.3082
15572TIP3    H168207   5.779   4.655   4.540 -0.3794  0.0448  0.4422
15572TIP3    H268208   5.707   4.524   4.521  0.6722 -0.3850 -0.7525
15573TIP3   OH268209   2.651   2.589   3.827  0.0610  0.4677 -0.4471
15573TIP3    H168210   2.611   2.521   3.881 -0.2220  0.0337 -1.1837
15573TIP3    H268211   2.722   2.624   3.881 -0.3675  0.2156  0.2935
15574TIP3   OH268212   6.114   4.714  16.914 -0.2297  0.3999 -0.3222
15574TIP3    H168213   6.171   4.652  16.869  0.1838 -0.0339  0.7587
15574TIP3    H268214   6.074   4.766  16.844 -0.1905 -0.7391 -1.2105
15575TIP3   OH268215   1.309   0.038   2.076 -0.1866 -0.8777 -0.0932
15575TIP3    H168216   1.275  -0.051   2.086  1.1281 -1.4242 -0.2710
15575TIP3    H268217   1.371   0.032   2.002 -0.6085  0.3440 -0.5633
15576TIP3   OH268218   5.435   3.997   2.038  0.1740 -0.1151  0.1527
15576TIP3    H168219   5.379   4.063   1.997  0.8739 -0.9374 -2.2748
15576TIP3    H268220   5.467   4.039   2.118 -1.2835  1.5735 -0.0848
15577TIP3   OH268221   0.007   6.133   4.722 -0.1669 -0.0618 -0.0899
15577TIP3    H168222   0.070   6.119   4.651  0.6765  1.9573  0.1951
15577TIP3    H268223   0.052   6.101   4.800 -0.1646 -0.1259 -0.1169
15578TIP3   OH268224   4.468   4.607  11.434  0.0310  0.4484 -0.2725
15578TIP3    H168225   4.426   4.553  11.501  0.2104 -0.2233 -0.6930
15578TIP3    H268226   4.552   4.631  11.473 -0.4875  1.3238  0.3407
15579TIP3   OH268227   2.617   6.597  14.549  0.5219  0.1647 -0.1679
15579TIP3    H168228   2.694   6.636  14.591 -0.4010  1.3669  0.4788
15579TIP3    H268229   2.652   6.549  14.474  1.9194  0.4617  0.2667
15580TIP3   OH268230   6.497   2.774  12.470  0.7119  0.0368  0.0000
15580TIP3    H168231   6.410   2.799  12.503  0.3229 -0.7548 -0.4049
15580TIP3    H268232   6.558   2.823  12.525  0.0973 -1.2978  1.9507
15581TIP3   OH268233   4.741   6.696  16.055 -0.0070  0.4084 -0.5161
15581TIP3    H168234   4.742   6.742  16.139  0.8944 -0.3435 -0.0954
15581TIP3    H268235   4.652   6.661  16.048 -0.7360  2.1727 -0.8618
15582TIP3   OH268236   3.383   3.398  10.677 -0.4435 -0.0166  0.5219
15582TIP3    H168237   3.399   3.359  10.763  0.3398 -0.8393  0.0097
15582TIP3    H268238   3.445   3.471  10.672 -1.2298  0.7250  1.0704
15583TIP3   OH268239   1.500   4.744   4.332 -0.5706 -0.1568  0.1056
15583TIP3    H168240   1.409   4.716   4.323 -0.4264 -1.0404  1.1778
15583TIP3    H268241   1.499   4.837   4.310 -1.5059 -0.4327 -1.1162
15584TIP3   OH268242   1.591   5.508   1.061  0.4602 -0.0408  0.6871
15584TIP3    H168243   1.501   5.494   1.032 -0.1017  2.4531  1.0544
15584TIP3    H268244   1.588   5.495   1.156  0.6078 -0.4298  0.6412
15585TIP3   OH268245   1.707   0.449  14.197  0.0745 -0.2966  0.5120
15585TIP3    H168246   1.657   0.507  14.139 -1.9070 -2.5197 -0.1656
15585TIP3    H268247   1.665   0.459  14.283 -1.3606 -1.8176  0.0440
15586TIP3   OH268248   1.661   3.354   4.434  0.0266 -0.2191  0.2845
15586TIP3    H168249   1.650   3.258   4.432 -1.1354 -0.1763  2.0862
15586TIP3    H268250   1.735   3.368   4.492 -0.6068  0.0009  1.0497
15587TIP3   OH268251   0.923   4.995  11.618 -0.2716  0.0251 -0.7431
15587TIP3    H168252   0.850   4.949  11.660  1.0558 -0.9544  0.5768
15587TIP3    H268253   0.895   5.087  11.618 -0.6647 -0.0004  1.7122
15588TIP3   OH268254   2.207   4.274  14.736 -0.2086  0.0464  0.1720
15588TIP3    H168255   2.254   4.357  14.731  0.4775 -0.3430 -4.4654
15588TIP3    H268256   2.115   4.298  14.729 -0.0955  0.4494  0.0564
15589TIP3   OH268257   5.126   5.976   4.814  0.5683  0.0511 -0.3452
15589TIP3    H168258   5.179   6.053   4.836 -0.7600  0.0475  3.6608
15589TIP3    H268259   5.039   6.011   4.797  0.7125 -0.3486 -2.0679
15590TIP3   OH268260   4.728   4.149   6.098 -0.4300 -0.1033 -0.4509
15590TIP3    H168261   4.789   4.114   6.163 -1.2902  0.8358  0.8965
15590TIP3    H268262   4.705   4.073   6.044 -0.2504 -1.0605  0.7715
15591TIP3   OH268263   4.045   3.826   5.491 -0.0804  0.0389  0.6603
15591TIP3    H168264   4.066   3.912   5.525  2.3317 -0.7065  1.2599
15591TIP3    H268265   4.019   3.774   5.567  2.3195 -0.7836  0.9938
15592TIP3   OH268266   1.538   2.450  15.963  0.1266 -0.1576  0.4571
15592TIP3    H168267   1.544   2.527  15.906 -0.9644  0.2040  0.7975
15592TIP3    H268268   1.524   2.485  16.050  0.6435 -0.7362  0.7814
15593TIP3   OH268269   0.899   3.996  11.334 -0.0705 -1.2766 -0.1458
15593TIP3    H168270   0.877   4.045  11.255  1.3581 -0.1796  0.0953
15593TIP3    H268271   0.984   4.031  11.360 -0.6414 -1.4060  2.0417
15594TIP3   OH268272   3.681   6.729   5.147  0.0090  0.2551  0.6143
15594TIP3    H168273   3.722   6.649   5.179 -1.1357 -0.8796 -0.6612
15594TIP3    H268274   3.587   6.713   5.154 -0.2480  1.3078 -0.1112
15595TIP3   OH268275   6.286   0.385  14.643 -0.1201  0.5835 -0.1383
15595TIP3    H168276   6.207   0.439  14.635 -0.2014  0.4605 -0.1677
15595TIP3    H268277   6.287   0.357  14.735 -1.4677 -1.4557 -0.6693
15596TIP3   OH268278   5.859   6.015   0.793  0.6098  0.2979 -0.3778
15596TIP3    H168279   5.842   5.977   0.707  0.8240 -1.4438  0.3079
15596TIP3    H268280   5.782   6.070   0.811 -0.2566 -0.7016 -0.9359
15597TIP3   OH268281   6.661   2.471   2.535  0.0697  0.4618  0.3784
15597TIP3    H168282   6.704   2.392   2.503 -0.2077 -0.2217  1.5991
15597TIP3    H268283   6.687   2.477   2.627  0.5460  2.1311  0.1704
15598TIP3   OH268284   0.493   0.684  14.745  0.2035 -0.6157 -0.1239
15598TIP3    H168285   0.565   0.619  14.746  0.3510 -0.4645 -0.5158
15598TIP3    H268286   0.429   0.649  14.807  0.3804 -1.0271 -0.1640
15599TIP3   OH268287   5.512   2.411   1.841  0.1773  0.1770  0.1624
15599TIP3    H168288   5.603   2.387   1.823  0.5512  0.9034  1.0137
15599TIP3    H268289   5.462   2.367   1.772  1.3266  1.1521 -1.3713
15600TIP3   OH268290   5.817   3.112  11.646  0.4192 -0.4543 -0.0865
15600TIP3    H168291   5.859   3.033  11.610 -0.1197 -0.7760 -0.0270
15600TIP3    H268292   5.886   3.178  11.646  0.4972 -0.4874 -1.5458
15601TIP3   OH268293   0.978   0.758   6.018 -0.0965  0.0882  0.4399
15601TIP3    H168294   1.041   0.830   6.023 -1.3486  1.3751 -1.1455
15601TIP3    H268295   1.028   0.686   5.980  0.7830  0.6132  0.5601
15602TIP3   OH268296   2.353   6.558   6.650 -0.2590 -0.0068 -0.3303
15602TIP3    H168297   2.294   6.608   6.593 -1.8070 -1.5664 -0.1752
15602TIP3    H268298   2.423   6.620   6.672 -1.1623  1.5258 -1.5410
15603TIP3   OH268299   5.867   4.664   0.343  0.0068 -0.4794 -0.1049
15603TIP3    H168300   5.823   4.732   0.393  0.3507  0.1116 -0.5830
15603TIP3    H268301   5.801   4.596   0.329 -0.2114 -0.4513  0.7628
15604TIP3   OH268302   3.062   4.178  13.043  0.1682  1.0141  0.3932
15604TIP3    H168303   3.117   4.131  12.980 -1.5425 -1.1688  0.3767
15604TIP3    H268304   3.035   4.110  13.106 -1.0247  2.3634  1.4119
15605TIP3   OH268305   0.057   3.900   5.392  0.1999  0.3012  0.0128
15605TIP3    H168306  -0.007   3.841   5.351 -1.8670  1.9904  0.5958
15605TIP3    H268307   0.029   3.906   5.483  0.1317  2.3607 -0.0842
15606TIP3   OH268308   0.105   3.804   6.300  0.1346  0.5525  0.2235
15606TIP3    H168309   0.132   3.891   6.272  0.4225  0.2883 -0.3392
15606TIP3    H268310   0.188   3.759   6.318  0.1123 -0.3150 -1.6573
15607TIP3   OH268311   0.951   1.307  11.168 -0.0677 -0.1045 -0.1083
15607TIP3    H168312   0.926   1.215  11.170 -0.1415 -0.0766  0.3037
15607TIP3    H268313   0.995   1.318  11.083 -0.4585 -0.4125 -0.3550
15608TIP3   OH268314   3.462   4.774  16.316 -0.3045 -0.3995 -0.5181
15608TIP3    H168315   3.517   4.843  16.281  1.0477 -0.3216  1.5602
15608TIP3    H268316   3.388   4.820  16.356 -0.6347 -0.3317 -1.2023
15609TIP3   OH268317   4.692   1.191  15.330 -0.0145  0.1153 -0.5352
15609TIP3    H168318   4.618   1.161  15.277 -0.0722 -2.4102  0.8285
15609TIP3    H268319   4.682   1.147  15.414  0.8127  2.9457  1.2116
15610TIP3   OH268320   4.673   2.987   3.693  0.3230 -0.5281  0.5705
15610TIP3    H168321   4.657   3.005   3.600 -2.8338 -1.3717  0.8170
15610TIP3    H268322   4.718   2.903   3.694  1.4557  0.0365 -0.1667
15611TIP3   OH268323   5.465   3.567   2.183  0.5427 -0.4403 -0.2276
15611TIP3    H168324   5.531   3.521   2.235 -0.1493 -0.4521  0.6771
15611TIP3    H268325   5.500   3.567   2.094  1.8306 -0.2898  0.2581
15612TIP3   OH268326   6.727   2.338   5.977  0.9523 -0.6148  0.1750
15612TIP3    H168327   6.698   2.273   6.041 -0.3023 -1.6113 -1.3351
15612TIP3    H268328   6.772   2.287   5.910  0.4813  0.1448 -0.7323
15613TIP3   OH268329   1.734   1.775  10.610 -0.1009 -0.3918  0.1573
15613TIP3    H168330   1.812   1.831  10.605  0.8219 -1.5121  1.3698
15613TIP3    H268331   1.710   1.759  10.519  0.5806  0.6337 -0.2228
15614TIP3   OH268332   1.149   4.550   5.455  0.2086 -0.5394  0.3223
15614TIP3    H168333   1.076   4.533   5.396  1.5657 -1.5194 -1.1403
15614TIP3    H268334   1.137   4.489   5.528 -0.6405 -0.3897  0.3154
15615TIP3   OH268335   5.820   6.150  11.651 -0.5483  0.4694  0.4462
15615TIP3    H168336   5.727   6.133  11.665 -0.6163 -0.1692 -0.6471
15615TIP3    H268337   5.833   6.240  11.679 -0.9418 -0.1986  3.0561
15616TIP3   OH268338   0.968   2.705   5.217  0.0770 -0.1007 -0.4351
15616TIP3    H168339   0.896   2.690   5.156 -0.7625 -0.1975  0.5458
15616TIP3    H268340   1.020   2.775   5.177 -0.8065  0.2753 -0.9534
15617TIP3   OH268341   2.198   2.414  12.595 -0.1285 -0.8006 -0.3137
15617TIP3    H168342   2.292   2.429  12.590  0.0447 -2.1819 -2.5650
15617TIP3    H268343   2.183   2.386  12.685  1.5326 -0.2283  0.1813
15618TIP3   OH268344   1.207   4.631   2.427  0.2831 -0.2184  0.4899
15618TIP3    H168345   1.168   4.668   2.506  0.3025  1.6034 -0.3147
15618TIP3    H268346   1.224   4.539   2.450 -2.4825 -0.5733  1.5751
15619TIP3   OH268347   1.514   6.490  13.882 -0.0161  0.1865  0.9276
15619TIP3    H168348   1.589   6.438  13.854 -1.3350 -1.4983  0.3294
15619TIP3    H268349   1.438   6.435  13.861 -1.5386  2.5534 -0.1709
15620TIP3   OH268350   4.576   1.613  17.064 -0.1451 -0.0989  0.0338
15620TIP3    H168351   4.582   1.549  16.993  1.8844 -0.2741  0.3062
15620TIP3    H268352   4.589   1.698  17.021  1.3746 -0.2275  0.2050
15621TIP3   OH268353   0.459   3.963  12.812 -0.1142 -0.0379 -0.5357
15621TIP3    H168354   0.488   4.020  12.883  0.0726  2.3821 -2.4213
15621TIP3    H268355   0.517   3.984  12.739 -0.1168 -2.6279 -1.3703
15622TIP3   OH268356   2.671   2.198   2.150 -0.5966 -0.3547  0.1222
15622TIP3    H168357   2.654   2.246   2.231 -4.2139 -0.7676 -0.2387
15622TIP3    H268358   2.649   2.108   2.171 -1.1853 -0.5364 -1.1986
15623TIP3   OH268359   6.036   1.081   2.364  0.0473 -0.0504  0.3672
15623TIP3    H168360   6.052   1.094   2.457  2.0830  0.9310 -0.0704
15623TIP3    H268361   6.100   1.015   2.337  1.2794  1.5069 -0.7853
15624TIP3   OH268362   0.812   2.438   5.585  0.1066 -0.4601 -0.5697
15624TIP3    H168363   0.821   2.530   5.560  1.7996 -0.2047  0.8211
15624TIP3    H268364   0.895   2.397   5.558  0.1378 -1.1479  0.5048
15625TIP3   OH268365   1.464   5.668  13.176  0.3639  0.5800  0.0920
15625TIP3    H168366   1.404   5.722  13.124  1.4751 -0.1788 -2.1410
15625TIP3    H268367   1.447   5.578  13.146  1.2014  0.1247  0.9152
15626TIP3   OH268368   0.772   1.194  16.284  0.2322 -0.1402 -0.9137
15626TIP3    H168369   0.867   1.199  16.274  0.2747 -0.2849 -0.5728
15626TIP3    H268370   0.745   1.125  16.222  0.3761 -0.2758 -0.8255
15627TIP3   OH268371   1.568   3.048   1.118  0.0113 -0.0586  0.5496
15627TIP3    H168372   1.646   3.035   1.064 -0.7893 -0.0361 -0.6451
15627TIP3    H268373   1.495   3.020   1.062 -0.9934  1.4818  1.0311
15628TIP3   OH268374   4.009   5.667   1.580 -0.3829 -0.4724  0.4331
15628TIP3    H168375   3.949   5.608   1.626 -0.4258 -0.7286  0.0535
15628TIP3    H268376   4.025   5.624   1.496 -1.7534  0.8701 -0.5686
15629TIP3   OH268377   5.588   4.590  13.716 -0.0800 -0.5102  0.8319
15629TIP3    H168378   5.615   4.499  13.717 -0.7767 -0.7203  2.1497
15629TIP3    H268379   5.667   4.638  13.692 -0.2826 -1.5857 -2.5013
15630TIP3   OH268380   3.816   2.423  15.729 -0.9856 -0.1879  0.0920
15630TIP3    H168381   3.908   2.430  15.704 -1.4459  0.4745 -1.4951
15630TIP3    H268382   3.768   2.460  15.656 -2.4784  0.7445  1.4719
15631TIP3   OH268383   2.469   0.057   4.205 -0.1065 -0.0256  0.3874
15631TIP3    H168384   2.545   0.041   4.261  0.3808  1.5607  0.2430
15631TIP3    H268385   2.506   0.072   4.118 -0.5252  1.2174  0.4039
15632TIP3   OH268386   4.470   2.369   3.105 -0.2155  0.0873  0.1938
15632TIP3    H168387   4.435   2.324   3.182 -0.0533  0.7325  0.6549
15632TIP3    H268388   4.398   2.424   3.074 -0.5973 -0.8848 -0.7046
15633TIP3   OH268389   5.664   5.821   2.199  0.2698 -0.3177 -0.0639
15633TIP3    H168390   5.737   5.881   2.213 -1.3623  1.8429 -0.3628
15633TIP3    H268391   5.702   5.749   2.148  1.7782  1.6703 -1.9114
15634TIP3   OH268392   0.701   2.738   4.545  0.2057  0.1435 -0.0704
15634TIP3    H168393   0.665   2.683   4.476 -0.0900  0.0523  0.1540
15634TIP3    H268394   0.794   2.746   4.524  0.4144 -1.0830  0.3277
15635TIP3   OH268395   2.246   0.651   5.410 -0.6749 -0.0363  0.0801
15635TIP3    H168396   2.183   0.594   5.453 -1.4904 -1.0892 -2.3417
15635TIP3    H268397   2.301   0.592   5.358  0.4052  1.1386 -0.1699
15636TIP3   OH268398   0.975   4.378   2.669 -0.2591 -0.0706  0.7633
15636TIP3    H168399   1.068   4.393   2.655 -0.5759  0.6633 -0.7507
15636TIP3    H268400   0.954   4.303   2.614 -0.5510 -0.3268  1.2118
15637TIP3   OH268401   0.680   3.894   5.582 -0.0676 -0.6041  0.2483
15637TIP3    H168402   0.587   3.868   5.584 -0.0817 -0.5419  1.0723
15637TIP3    H268403   0.685   3.968   5.642  0.4533 -0.3654 -0.0853
15638TIP3   OH268404   4.299   4.093   0.017 -0.0046  0.4278  0.4911
15638TIP3    H168405   4.382   4.097   0.065 -0.7688 -0.4994  1.9738
15638TIP3    H268406   4.271   4.002   0.027 -1.1060  0.6791 -0.1623
15639TIP3   OH268407   4.960   0.507   1.589  0.2326  0.1704  0.3873
15639TIP3    H168408   4.947   0.575   1.524  0.5797 -0.3457 -0.2385
15639TIP3    H268409   5.023   0.544   1.651 -0.3996  0.8115  0.6585
15640TIP3   OH268410   5.958   5.809   6.415 -0.3725 -0.0060  0.6147
15640TIP3    H168411   6.025   5.826   6.481  1.7469  0.9445 -1.6138
15640TIP3    H268412   5.950   5.714   6.413  0.7638 -0.1301  1.0835
15641TIP3   OH268413   6.573   6.332   0.105  0.0963  0.0194 -0.1759
15641TIP3    H168414   6.571   6.402   0.171 -2.0506 -1.0024  0.9557
15641TIP3    H268415   6.493   6.344   0.055 -0.2033 -1.4635 -0.1045
15642TIP3   OH268416   2.032   2.447  15.043  0.0155  0.4184  0.0327
15642TIP3    H168417   2.062   2.454  15.133  0.6257 -1.8676  0.0824
15642TIP3    H268418   1.941   2.417  15.050  0.3463 -0.6739 -0.0597
15643TIP3   OH268419   6.099   5.363   4.332  0.2028 -0.7092 -0.2258
15643TIP3    H168420   6.060   5.277   4.347 -1.1521 -0.4674 -2.0595
15643TIP3    H268421   6.087   5.410   4.415  0.8358 -2.2010  0.7499
15644TIP3   OH268422   3.334   6.017  15.087  0.0595 -0.4223  0.8778
15644TIP3    H168423   3.377   5.947  15.136  0.5115  0.6241  2.0529
15644TIP3    H268424   3.294   6.072  15.155 -1.9783 -0.5988 -0.1122
15645TIP3   OH268425   6.489   5.571   1.972 -0.2821  0.1684  0.2884
15645TIP3    H168426   6.429   5.615   2.032  1.3412  2.2279  0.5255
15645TIP3    H268427   6.547   5.519   2.028 -1.0047 -0.8124  0.1583
15646TIP3   OH268428   5.114   4.731  16.785  0.5678  0.2304  0.4107
15646TIP3    H168429   5.040   4.671  16.779  0.0527  0.9328 -0.3718
15646TIP3    H268430   5.181   4.692  16.728  0.6184 -0.1210  0.7024
15647TIP3   OH268431   1.585   0.837   3.097  0.1447  0.2494  0.1479
15647TIP3    H168432   1.632   0.765   3.055 -0.9318 -1.0702  1.1147
15647TIP3    H268433   1.566   0.898   3.026  1.1095 -0.4014 -0.6919
15648TIP3   OH268434   4.093   4.126  10.553  0.1605 -0.4268  0.1928
15648TIP3    H168435   4.028   4.086  10.495 -1.4400 -0.0492  1.6252
15648TIP3    H268436   4.056   4.212  10.575  2.0880  0.6149 -0.4497
15649TIP3   OH268437   1.593   5.943   3.813  0.0704 -0.3416 -0.1634
15649TIP3    H168438   1.640   5.866   3.780 -0.3521 -0.2154 -1.0650
15649TIP3    H268439   1.506   5.909   3.834 -0.5366  0.1445 -1.7917
15650TIP3   OH268440   3.493   2.661   0.288 -0.4642 -0.2981 -0.2225
15650TIP3    H168441   3.558   2.660   0.358  2.5458  1.1555 -2.7537
15650TIP3    H268442   3.498   2.750   0.252 -2.8932 -0.5706 -1.4786
15651TIP3   OH268443   4.630   5.584   1.367 -0.1797  0.4090 -0.4399
15651TIP3    H168444   4.585   5.653   1.317 -1.1607 -0.3779 -0.6744
15651TIP3    H268445   4.597   5.502   1.330  0.2534 -0.1922  0.4630
15652TIP3   OH268446   1.726   4.193  13.885  0.1565 -0.2334 -0.8733
15652TIP3    H168447   1.645   4.145  13.868  1.1070 -1.1281 -3.4570
15652TIP3    H268448   1.736   4.250  13.808  2.2313 -0.5697 -0.9015
15653TIP3   OH268449   6.186   0.966  11.536  0.3459  0.3072 -0.5302
15653TIP3    H168450   6.214   0.942  11.448  0.9646 -1.5893  0.1466
15653TIP3    H268451   6.171   1.061  11.531 -0.4564  0.1277 -2.8669
15654TIP3   OH268452   3.214   0.648   4.060  0.3916  0.1978  0.0617
15654TIP3    H168453   3.238   0.635   4.152 -0.5413 -1.3077  0.1165
15654TIP3    H268454   3.127   0.610   4.052  0.7280 -0.3078 -1.5965
15655TIP3   OH268455   3.920   3.632   3.545  0.3512  0.5638  0.1123
15655TIP3    H168456   3.975   3.593   3.613 -1.3625 -1.1992  0.5805
15655TIP3    H268457   3.925   3.571   3.471 -0.5187  0.6685 -0.0486
15656TIP3   OH268458   2.279   4.163   4.346 -0.3307  0.6425  0.3073
15656TIP3    H168459   2.345   4.231   4.329  2.0494 -1.7673 -0.8076
15656TIP3    H268460   2.327   4.094   4.391 -2.0931 -1.2598 -0.5930
15657TIP3   OH268461   3.315   5.491   0.025  0.1629 -0.2087  0.2024
15657TIP3    H168462   3.255   5.561  -0.003 -2.0278 -1.4911  1.4381
15657TIP3    H268463   3.389   5.538   0.064 -1.2693  1.4715  1.0772
15658TIP3   OH268464   6.044   3.866   6.103 -0.3073  0.4817 -0.6139
15658TIP3    H168465   5.982   3.793   6.104  0.4392 -0.1659 -0.7996
15658TIP3    H268466   6.091   3.859   6.186 -0.0139  0.5594 -0.7738
15659TIP3   OH268467   6.296   4.086  15.012 -0.5312 -0.1731 -0.0076
15659TIP3    H168468   6.273   4.031  14.937 -2.4181  0.3634  0.1276
15659TIP3    H268469   6.229   4.066  15.077  0.4137  0.2211  1.1139
15660TIP3   OH268470   0.794   5.473  14.444  0.0742  0.2584  0.2883
15660TIP3    H168471   0.765   5.561  14.470 -1.5482 -0.4065  0.9078
15660TIP3    H268472   0.769   5.418  14.519  0.4843 -0.8202 -0.3589
15661TIP3   OH268473   6.176   4.096   0.246 -0.1510  0.6208  0.1170
15661TIP3    H168474   6.196   4.168   0.306 -2.1239  0.6770  0.7909
15661TIP3    H268475   6.187   4.017   0.298 -1.1653  0.6319  0.3655
15662TIP3   OH268476   3.381   1.453  15.069 -0.1730  0.0208  0.7343
15662TIP3    H168477   3.396   1.537  15.026 -1.6858 -0.5736 -1.0917
15662TIP3    H268478   3.286   1.443  15.070 -0.0459 -1.3474  1.5637
15663TIP3   OH268479   0.858   5.567  11.888  0.0155 -0.1346 -0.1125
15663TIP3    H168480   0.846   5.513  11.966 -2.2292 -1.7447 -1.4514
15663TIP3    H268481   0.809   5.648  11.907 -0.0793 -0.2900  0.3215
15664TIP3   OH268482   1.847   5.267   1.265  0.3561 -0.1070 -0.3844
15664TIP3    H168483   1.910   5.221   1.321  0.7268  1.0580  0.1753
15664TIP3    H268484   1.842   5.355   1.301 -0.8612  0.1106 -1.0277
15665TIP3   OH268485   5.064   0.600  13.155 -0.0881 -0.0641 -0.1221
15665TIP3    H168486   5.089   0.599  13.248  1.0678 -2.6523 -0.3657
15665TIP3    H268487   5.124   0.537  13.114 -1.3274  0.1702 -2.4160
15666TIP3   OH268488   0.969   2.648   3.698 -0.1799  0.5028 -0.0357
15666TIP3    H168489   0.996   2.720   3.642 -0.1746  0.5079 -0.0263
15666TIP3    H268490   0.941   2.579   3.637 -0.5319  0.6458 -0.0420
15667TIP3   OH268491   0.618   4.118  15.484 -0.1563 -0.0963  0.6183
15667TIP3    H168492   0.606   4.100  15.577  2.1403  1.0192  1.2122
15667TIP3    H268493   0.565   4.196  15.467  0.7264  0.7185  1.4598
15668TIP3   OH268494   1.857   3.265   0.596 -0.2018  0.2110 -0.7586
15668TIP3    H168495   1.867   3.170   0.598 -1.5430  0.0127  2.9284
15668TIP3    H268496   1.939   3.299   0.631 -0.3918  0.3017 -0.3975
15669TIP3   OH268497   3.047   3.971   4.208 -0.0703  0.5043  0.2345
15669TIP3    H168498   3.047   3.903   4.276  1.4271  2.5290  2.4495
15669TIP3    H268499   3.130   3.960   4.162 -0.4357  0.0238 -0.3191
15670TIP3   OH268500   3.600   1.252  11.058 -0.1245  0.7633 -0.0014
15670TIP3    H168501   3.510   1.228  11.082  0.1633  1.5158  1.9861
15670TIP3    H268502   3.590   1.315  10.987 -1.0739 -0.4806 -1.0355
15671TIP3   OH268503   5.328   6.205   5.102  0.1760 -0.1106  0.6166
15671TIP3    H168504   5.333   6.301   5.094  2.7307  0.0193  2.5226
15671TIP3    H268505   5.250   6.189   5.154 -0.3837  0.9025  0.1212
15672TIP3   OH268506   2.966   3.898  15.237 -0.3918 -0.1870  0.3745
15672TIP3    H168507   2.989   3.943  15.318 -1.7490  2.3987 -0.5675
15672TIP3    H268508   2.912   3.824  15.266  1.4755 -1.0269  1.9467
15673TIP3   OH268509   4.318   0.544  13.179 -0.1058  0.2139  0.3573
15673TIP3    H168510   4.280   0.503  13.256  0.6455 -0.8259  0.2005
15673TIP3    H268511   4.410   0.519  13.181 -0.0369  0.2926 -0.7778
15674TIP3   OH268512   5.167   1.822  15.023  0.2087 -0.2226  0.3966
15674TIP3    H168513   5.215   1.757  15.074  1.9040  0.4087 -0.3013
15674TIP3    H268514   5.186   1.905  15.066  1.2296  0.2510 -0.8732
15675TIP3   OH268515   1.918   1.796  15.451 -0.3184 -0.0021  0.2450
15675TIP3    H168516   1.965   1.817  15.370 -2.0227  1.8703 -0.3311
15675TIP3    H268517   1.981   1.817  15.520  0.7847 -0.5884 -0.5408
15676TIP3   OH268518   1.701   1.775   5.888 -0.0286 -0.2038 -0.6111
15676TIP3    H168519   1.770   1.839   5.870 -0.4768  0.4364 -0.0907
15676TIP3    H268520   1.657   1.808   5.966  0.0823 -1.4377  0.0007
15677TIP3   OH268521   1.017   3.623   3.059  0.4533  0.3205  0.8565
15677TIP3    H168522   1.025   3.662   2.972  0.3073 -0.7565  0.3545
15677TIP3    H268523   1.101   3.581   3.075  0.0144 -0.6692  0.6426
15678TIP3   OH268524   4.809   4.485   5.460  0.0997 -0.9321  0.2752
15678TIP3    H168525   4.897   4.452   5.475  0.3836  0.2729  1.3463
15678TIP3    H268526   4.820   4.578   5.443 -0.8373 -1.0544 -1.1597
15679TIP3   OH268527   0.439   4.066   3.964 -0.2025 -0.1617 -0.3391
15679TIP3    H168528   0.431   4.090   4.056 -1.4172 -0.6040 -0.3121
15679TIP3    H268529   0.497   4.132   3.927  1.3374 -0.7059  1.0034
15680TIP3   OH268530   2.456   1.623  17.075  0.5155  0.0126 -0.8202
15680TIP3    H168531   2.435   1.569  17.151 -0.4950 -0.3551 -1.3373
15680TIP3    H268532   2.408   1.704  17.090  0.5007  0.0282 -0.9496
15681TIP3   OH268533   1.878   6.271  16.923  0.4771 -0.0404  0.0966
15681TIP3    H168534   1.862   6.214  16.848  0.8656 -0.7243  0.5240
15681TIP3    H268535   1.811   6.245  16.987 -0.9845  1.7305 -0.6418
15682TIP3   OH268536   2.601   1.852   2.718  0.3218 -0.7286 -0.5243
15682TIP3    H168537   2.559   1.937   2.727 -1.2561 -1.4611 -0.6430
15682TIP3    H268538   2.678   1.868   2.663 -0.1923  0.5372 -0.8913
15683TIP3   OH268539   4.967   0.696  11.603 -0.9804 -0.1603  0.2849
15683TIP3    H168540   5.043   0.716  11.549 -2.2887 -0.3567 -1.7427
15683TIP3    H268541   4.902   0.763  11.579 -0.9041  1.1808  3.3450
15684TIP3   OH268542   6.009   1.120  15.905  0.9417 -0.4210  0.3100
15684TIP3    H168543   5.996   1.137  15.812  1.7234 -0.0382  0.2650
15684TIP3    H268544   5.953   1.045  15.924  0.1929 -0.0295 -0.2956
15685TIP3   OH268545   1.610   1.986  15.846  0.0543  0.1205  0.0997
15685TIP3    H168546   1.616   2.077  15.816  1.2143 -0.3832 -1.2765
15685TIP3    H268547   1.649   1.935  15.776 -1.0672 -1.5169  0.6123
15686TIP3   OH268548   1.592   0.595  16.341  0.0507 -0.6415 -0.4783
15686TIP3    H168549   1.657   0.630  16.402 -0.9304 -1.3894  1.0698
15686TIP3    H268550   1.522   0.562  16.397 -2.8149  2.2172 -2.0755
15687TIP3   OH268551   1.826   6.131  11.016  0.5330 -0.2357  0.7325
15687TIP3    H168552   1.883   6.073  10.965 -1.1623 -0.5965 -0.8948
15687TIP3    H268553   1.873   6.215  11.018  1.1979 -0.5562 -0.4184
15688TIP3   OH268554   5.917   6.179  17.045  0.4762 -0.4095 -0.0689
15688TIP3    H168555   5.938   6.228  17.124 -1.4794 -0.3610  0.4640
15688TIP3    H268556   5.847   6.229  17.003 -2.5272 -3.2286  1.1486
15689TIP3   OH268557   1.414   2.755   4.015 -0.4059 -0.0229  0.5318
15689TIP3    H168558   1.455   2.669   4.009  0.1487  0.2047  0.9370
15689TIP3    H268559   1.345   2.754   3.949  1.8818  0.4926 -2.0237
15690TIP3   OH268560   3.618   2.919   5.151 -0.6115 -0.3251  0.0766
15690TIP3    H168561   3.621   3.005   5.194  0.3225  0.1757 -0.9376
15690TIP3    H268562   3.691   2.871   5.190  1.7866  0.9524 -2.4966
15691TIP3   OH268563   2.960   6.826  14.944  0.2625  0.2446  0.2383
15691TIP3    H168564   2.987   6.917  14.930  2.3788 -0.0849  1.7609
15691TIP3    H268565   2.978   6.809  15.036  1.1264 -2.0892 -0.2853
15692TIP3   OH268566   2.642   1.681  16.863 -0.2091  0.1380  0.6627
15692TIP3    H168567   2.612   1.662  16.952 -1.1627 -0.1033  0.2995
15692TIP3    H268568   2.564   1.711  16.817  0.4601  1.1630  0.1436
15693TIP3   OH268569   5.626   5.952   0.081 -0.1487  0.4376  0.1537
15693TIP3    H168570   5.682   5.893   0.132 -1.5558 -1.4539 -0.4045
15693TIP3    H268571   5.653   5.937  -0.010 -1.6994 -0.7004 -0.1472
15694TIP3   OH268572   1.465   5.341   4.325 -0.3143 -0.0624 -0.1099
15694TIP3    H168573   1.510   5.421   4.353 -0.1216 -0.8262  1.9400
15694TIP3    H268574   1.423   5.365   4.243  0.5885  1.8381 -0.0728
15695TIP3   OH268575   5.674   4.532   4.225  0.0856  1.0127 -0.4575
15695TIP3    H168576   5.746   4.555   4.168  0.6774 -0.8549 -0.5059
15695TIP3    H268577   5.688   4.585   4.304  2.4613 -0.4567  0.1948
15696TIP3   OH268578   0.735   0.317  15.584 -0.0628  0.9480 -0.5165
15696TIP3    H168579   0.757   0.251  15.649 -3.1073 -1.7037 -1.9397
15696TIP3    H268580   0.798   0.303  15.513 -0.3500 -0.1024 -0.5785
15697TIP3   OH268581   3.586   2.401   3.501 -0.0505  0.4428 -0.5394
15697TIP3    H168582   3.665   2.427   3.454  0.8335  1.0293  1.1981
15697TIP3    H268583   3.515   2.447   3.456  0.7673  1.0741 -1.2224
15698TIP3   OH268584   6.499   5.597   3.671  0.6815 -0.2364  0.0621
15698TIP3    H168585   6.512   5.676   3.618  0.1673  0.6844  1.2350
15698TIP3    H268586   6.434   5.624   3.737  0.5604 -1.6273  0.5390
15699TIP3   OH268587   6.347   6.518   1.420 -0.1238  0.0680 -0.0469
15699TIP3    H168588   6.257   6.548   1.430 -0.5519 -1.4109  0.8624
15699TIP3    H268589   6.399   6.579   1.472 -0.7238  0.3091  0.2791
15700TIP3   OH268590   0.480   1.994  16.080  0.5104  0.0794  0.4043
15700TIP3    H168591   0.399   1.971  16.034 -0.7640  3.9794  0.3216
15700TIP3    H268592   0.550   1.970  16.019 -0.8206  0.0978 -1.2084
15701TIP3   OH268593   4.582   5.050   4.712 -0.2623  0.0684 -0.2057
15701TIP3    H168594   4.493   5.079   4.729 -0.1431  0.6771 -0.6060
15701TIP3    H268595   4.580   5.017   4.622 -0.1368 -0.1322 -0.1364
15702TIP3   OH268596   2.186   2.775   2.488 -0.3323  0.6810  0.5790
15702TIP3    H168597   2.210   2.838   2.420 -0.2547  0.5809  0.5132
15702TIP3    H268598   2.099   2.743   2.462  0.4966 -0.7854 -0.5209
15703TIP3   OH268599   6.213   5.060   3.970 -0.2606 -0.4991 -0.1394
15703TIP3    H168600   6.259   5.069   3.886  2.0412 -0.0248  1.0911
15703TIP3    H268601   6.188   4.968   3.974  1.7283 -1.0897 -0.3359
15704TIP3   OH268602   2.205   4.042  14.936  0.2558  0.1767 -0.4604
15704TIP3    H168603   2.245   4.020  15.021  1.6592 -1.5979 -1.5158
15704TIP3    H268604   2.240   4.129  14.916  1.5168 -0.2254 -0.1183
15705TIP3   OH268605   4.422   5.064  16.984 -0.6282 -0.2507  0.3128
15705TIP3    H168606   4.443   5.076  17.076 -1.0728 -0.2737  0.4210
15705TIP3    H268607   4.507   5.068  16.939 -0.3875 -0.4680  0.7438
15706TIP3   OH268608   5.364   1.228   0.418  0.7245  0.4683 -0.1384
15706TIP3    H168609   5.282   1.268   0.389  0.9619  0.5418 -0.7173
15706TIP3    H268610   5.404   1.194   0.338  1.2428  0.4006  0.1432
15707TIP3   OH268611   0.990   5.579   5.618 -0.0401 -0.4008 -0.4647
15707TIP3    H168612   1.060   5.544   5.563  1.8502  0.6547  1.1393
15707TIP3    H268613   0.996   5.530   5.699  0.3626  1.2074  0.5284
15708TIP3   OH268614   4.702   3.621  14.836  0.2742  0.1394 -0.6399
15708TIP3    H168615   4.775   3.664  14.880 -0.6726 -1.0476  2.3314
15708TIP3    H268616   4.744   3.551  14.784  1.3471 -2.3050  3.0848
15709TIP3   OH268617   3.135   4.679   4.452  0.2798  0.0355 -0.3524
15709TIP3    H168618   3.080   4.660   4.527 -0.3393  1.2879 -0.4678
15709TIP3    H268619   3.138   4.597   4.403 -0.2905 -0.4481  0.4019
15710TIP3   OH268620   0.033   2.506  16.811  0.2805  0.2701 -0.1447
15710TIP3    H168621   0.063   2.597  16.807  1.0852  0.0930  1.0182
15710TIP3    H268622  -0.058   2.512  16.841  0.4605  0.6911  0.3476
15711TIP3   OH268623   2.398   3.675   4.056  0.0979 -0.6261 -0.3203
15711TIP3    H168624   2.387   3.651   4.148 -1.7724 -0.9704 -0.5828
15711TIP3    H268625   2.456   3.751   4.058  0.7220 -1.1034  1.0721
15712TIP3   OH268626   4.052   0.667   1.242 -0.4120  0.4274  0.1501
15712TIP3    H168627   4.092   0.707   1.319  0.3725  1.4050 -0.7424
15712TIP3    H268628   4.045   0.574   1.265  0.0957  0.6511  1.2825
15713TIP3   OH268629   4.431   1.703   3.434 -0.3551  0.1705 -0.3044
15713TIP3    H168630   4.410   1.644   3.361  0.0479 -0.9385  0.4441
15713TIP3    H268631   4.513   1.745   3.408  0.1051 -0.6735 -0.2465
15714TIP3   OH268632   3.231   0.384   3.599 -0.2512 -0.0045  0.2673
15714TIP3    H168633   3.149   0.335   3.607 -1.3228  1.7939  0.9154
15714TIP3    H268634   3.229   0.447   3.671  1.9407 -0.2053  0.5896
15715TIP3   OH268635   2.870   0.922  16.238  0.5106 -0.0330 -0.0700
15715TIP3    H168636   2.919   0.864  16.296  1.9015 -0.3017 -1.4390
15715TIP3    H268637   2.838   0.865  16.168 -0.8990  0.3259  0.2645
15716TIP3   OH268638   6.573   2.742   1.470 -0.2753 -0.4273 -0.1097
15716TIP3    H168639   6.546   2.816   1.416 -1.2519 -0.8158 -0.1729
15716TIP3    H268640   6.584   2.779   1.558 -0.2064 -0.1002 -0.2548
15717TIP3   OH268641   3.920   6.634   1.915  0.1596  0.2762  0.0960
15717TIP3    H168642   3.871   6.686   1.852  0.7554 -0.6811 -1.2029
15717TIP3    H268643   3.859   6.564   1.941  0.3825 -0.1490 -0.5118
15718TIP3   OH268644   3.661   5.767  12.229  0.5593  0.0634  0.4261
15718TIP3    H168645   3.596   5.821  12.275  1.5663  0.9080  0.8867
15718TIP3    H268646   3.736   5.764  12.289  0.7411 -1.3960  0.1690
15719TIP3   OH268647   3.781   0.286  13.519  0.1751  0.5800  0.2582
15719TIP3    H168648   3.741   0.357  13.569  1.5691  1.6721 -0.1025
15719TIP3    H268649   3.795   0.324  13.431 -0.2112 -0.5630 -0.3131
15720TIP3   OH268650   2.807   0.107  14.174  0.8241 -0.3183 -0.7215
15720TIP3    H168651   2.767   0.035  14.222  0.6752  0.3049  0.1060
15720TIP3    H268652   2.758   0.185  14.200  2.6193  0.4960  0.4527
15721TIP3   OH268653   6.720   5.678   1.149  0.2010  0.0152  0.0639
15721TIP3    H168654   6.736   5.770   1.170 -0.3396 -0.2269  1.6754
15721TIP3    H268655   6.733   5.673   1.054  1.6741  1.4385  0.1365
15722TIP3   OH268656   6.183   0.197   1.511 -0.0552  0.6443 -0.0878
15722TIP3    H168657   6.183   0.291   1.496  0.2784  0.8932  1.3091
15722TIP3    H268658   6.092   0.176   1.533 -0.2829  0.4974 -1.1273
15723TIP3   OH268659   1.811   1.249  16.527 -0.2723 -0.9907 -0.2394
15723TIP3    H168660   1.719   1.233  16.548 -0.6807  0.0180 -1.1588
15723TIP3    H268661   1.824   1.208  16.442  0.3617 -1.8420  0.2610
15724TIP3   OH268662   2.429   6.370  15.426  0.3933  0.2160 -0.3946
15724TIP3    H168663   2.481   6.333  15.497 -2.2754  0.0025  1.5886
15724TIP3    H268664   2.476   6.449  15.400  2.1887 -0.4857  0.5690
15725TIP3   OH268665   3.019   5.195   5.855  0.3606 -0.3229  0.1607
15725TIP3    H168666   2.930   5.228   5.864 -0.1635 -1.4793 -0.5342
15725TIP3    H268667   3.072   5.272   5.837 -0.3571  0.4917  1.4174
15726TIP3   OH268668   2.765   1.943  10.075  0.1168 -0.1839 -0.1790
15726TIP3    H168669   2.777   1.855  10.039 -1.7092 -1.6880  2.4916
15726TIP3    H268670   2.745   1.998   9.999  0.3892 -2.2550 -1.8408
15727TIP3   OH268671   5.236   5.185  12.728 -0.2547  1.0095  0.6803
15727TIP3    H168672   5.266   5.127  12.798  2.4433 -0.1483 -1.2139
15727TIP3    H268673   5.159   5.141  12.692  0.6355 -0.4802  0.4926
15728TIP3   OH268674   6.397   4.822  13.336 -0.1324 -0.2262  0.4172
15728TIP3    H168675   6.408   4.891  13.401  1.9655  0.0719 -0.1777
15728TIP3    H268676   6.378   4.869  13.254  0.4154 -0.3918  0.1889
15729TIP3   OH268677   6.685   6.294  12.383  0.6443  0.4913 -0.0156
15729TIP3    H168678   6.780   6.293  12.390  0.7007 -0.4522 -0.6848
15729TIP3    H268679   6.667   6.245  12.302 -0.3924  0.8978 -0.0426
15730TIP3   OH268680   2.521   3.120  11.365 -0.6254 -0.8495  0.5246
15730TIP3    H168681   2.481   3.034  11.380 -1.3593 -0.6246 -0.1100
15730TIP3    H268682   2.574   3.135  11.443 -3.2284 -0.3343  2.3516
15731TIP3   OH268683   6.585   0.511   2.721  0.6505  0.1345 -0.1242
15731TIP3    H168684   6.517   0.444   2.709  0.6547  0.2005 -0.5483
15731TIP3    H268685   6.537   0.594   2.716  0.7011  0.1709  0.0035
15732TIP3   OH268686   0.467   5.943   6.157 -0.0707 -0.1394 -0.5294
15732TIP3    H168687   0.540   6.004   6.161 -0.1116 -0.1043 -0.3457
15732TIP3    H268688   0.493   5.870   6.213 -1.1234  0.8797  1.3884
15733TIP3   OH268689   3.983   5.654   2.801 -0.1254  0.2949  0.1162
15733TIP3    H168690   3.971   5.617   2.714 -1.5860 -1.3823  0.9777
15733TIP3    H268691   3.906   5.627   2.850  0.3434  1.7630  1.7579
15734TIP3   OH268692   3.528   4.689   0.143 -0.0999 -0.4015 -0.3677
15734TIP3    H168693   3.599   4.628   0.162 -0.9494 -1.1410  0.5657
15734TIP3    H268694   3.449   4.634   0.143 -0.6729  0.3769 -1.4638
15735TIP3   OH268695   2.175   6.013  16.245  0.0829 -0.0465  0.2979
15735TIP3    H168696   2.208   5.968  16.322  1.8106 -1.1555 -1.0209
15735TIP3    H268697   2.152   5.942  16.184 -0.1680  0.8096 -0.6355
15736TIP3   OH268698   0.744   3.312  13.703  0.4127 -0.0554  0.1618
15736TIP3    H168699   0.726   3.352  13.618 -0.9760  1.0673  0.9421
15736TIP3    H268700   0.665   3.264  13.725  1.1015 -1.1048  0.4240
15737TIP3   OH268701   5.430   1.071   3.599  0.2159  0.0134  0.3689
15737TIP3    H168702   5.409   1.090   3.508  0.0428  1.6720  0.7263
15737TIP3    H268703   5.351   1.094   3.647  0.6698  0.1873  1.0482
15738TIP3   OH268704   3.929   3.645   1.688  0.3577  0.0529  0.3982
15738TIP3    H168705   3.917   3.740   1.683  0.6124  0.0252 -1.6062
15738TIP3    H268706   3.861   3.610   1.630  0.1068 -1.0270  1.3135
15739TIP3   OH268707   4.474   3.711  13.343 -0.0295 -0.1254 -0.2996
15739TIP3    H168708   4.446   3.798  13.314 -0.4335  0.3002  1.2480
15739TIP3    H268709   4.530   3.728  13.419 -0.6214 -1.2295  0.4176
15740TIP3   OH268710   0.960   1.230   1.201  0.2011  0.1175 -0.2188
15740TIP3    H168711   1.048   1.266   1.196 -0.4771  2.0256  0.8366
15740TIP3    H268712   0.903   1.300   1.170 -1.2647  0.4330  2.8178
15741TIP3   OH268713   2.881   0.397  11.579  0.1843 -0.0606 -0.2450
15741TIP3    H168714   2.934   0.457  11.632  0.0899 -0.3167  0.1411
15741TIP3    H268715   2.873   0.441  11.495 -0.1409  0.6193  0.1331
15742TIP3   OH268716   4.374   0.784   2.734  0.0033  0.1122  0.1419
15742TIP3    H168717   4.442   0.793   2.801 -0.4766  0.1672  0.6300
15742TIP3    H268718   4.422   0.771   2.653  0.6222 -2.1997  0.7954
15743TIP3   OH268719   6.700   6.313   1.044  0.0161 -0.3207  0.0507
15743TIP3    H168720   6.667   6.389   0.995 -0.9097 -0.7506 -0.0117
15743TIP3    H268721   6.786   6.296   1.006 -0.5620 -0.4643 -1.2564
15744TIP3   OH268722   1.784   2.230  16.086  0.6236 -0.0575  0.4399
15744TIP3    H168723   1.708   2.245  16.142  0.4022 -0.9236  0.3836
15744TIP3    H268724   1.856   2.274  16.131 -0.1212  1.7759 -0.0841
15745TIP3   OH268725   3.750   4.311   1.874 -0.1121 -0.7844  0.1641
15745TIP3    H168726   3.678   4.374   1.878  1.4784  1.0451  1.4420
15745TIP3    H268727   3.763   4.283   1.965  1.8651  0.2272  0.2410
15746TIP3   OH268728   3.685   6.580  13.038 -0.0097  0.6223  0.0004
15746TIP3    H168729   3.611   6.629  13.002  0.9124  0.2167 -2.6321
15746TIP3    H268730   3.700   6.509  12.976  1.8233 -0.0506  1.1244
15747TIP3   OH268731   2.667   1.639  11.440 -0.3118  0.1860  0.1902
15747TIP3    H168732   2.747   1.644  11.387  0.0209  0.4110  0.7076
15747TIP3    H268733   2.639   1.730  11.451 -0.7785  0.0898 -0.1976
15748TIP3   OH268734   4.472   0.173  16.723 -0.4039  0.1805 -0.0015
15748TIP3    H168735   4.396   0.213  16.765 -1.0475 -0.0884 -0.8713
15748TIP3    H268736   4.547   0.219  16.761 -0.7718 -1.4064  2.9177
15749TIP3   OH268737   4.733   5.245  15.221  0.6306  0.2280  0.3450
15749TIP3    H168738   4.785   5.324  15.236  0.2752  0.7312 -0.9810
15749TIP3    H268739   4.661   5.274  15.166 -1.2156 -0.4091  2.3004
15750TIP3   OH268740   0.636   1.940   0.411 -0.0713  0.0255 -0.0145
15750TIP3    H168741   0.626   1.941   0.316  0.4069  2.6988 -0.1055
15750TIP3    H268742   0.558   1.985   0.444  0.5528  0.5823  0.7483
15751TIP3   OH268743   5.442   0.136  16.384  0.0903 -0.3919 -0.3524
15751TIP3    H168744   5.534   0.112  16.375  0.1422 -0.6209  0.6863
15751TIP3    H268745   5.404   0.066  16.438 -0.1677  0.8745  1.1655
15752TIP3   OH268746   6.332   0.455  15.226  1.3627 -0.2728 -0.5725
15752TIP3    H168747   6.414   0.452  15.178  3.2431 -0.0210  2.3247
15752TIP3    H268748   6.308   0.363  15.240  1.0261 -0.3443 -1.5736
15753TIP3   OH268749   6.586   1.020  11.555  0.1921  0.6049 -0.0846
15753TIP3    H168750   6.658   0.997  11.496  0.1317 -0.2435  0.1491
15753TIP3    H268751   6.605   0.970  11.635 -0.7856  0.1647 -0.1094
15754TIP3   OH268752   2.154   1.166   0.435  0.1613  0.3222  0.1432
15754TIP3    H168753   2.139   1.118   0.353 -1.0142 -0.0260  0.5498
15754TIP3    H268754   2.236   1.130   0.468 -0.4077 -1.0112  0.1452
15755TIP3   OH268755   5.189   1.532  14.134  0.3774 -0.0143 -0.5105
15755TIP3    H168756   5.101   1.509  14.163  0.3036  0.1362 -0.6163
15755TIP3    H268757   5.182   1.539  14.039  0.5992 -0.4220 -0.5640
15756TIP3   OH268758   2.059   3.039   3.807  0.0052  0.2965  0.2461
15756TIP3    H168759   2.104   2.985   3.872  0.1010 -0.7402 -0.6514
15756TIP3    H268760   1.998   3.092   3.858  1.2864  0.7910  1.3559
15757TIP3   OH268761   3.349   4.040   4.834  0.3761  0.5044  0.1885
15757TIP3    H168762   3.373   3.947   4.831  1.2223  0.7010  0.7366
15757TIP3    H268763   3.356   4.069   4.743  1.1039  0.2718  0.1633
15758TIP3   OH268764   6.604   4.095   5.936  0.4151  0.0299 -0.0085
15758TIP3    H168765   6.616   4.025   5.872  0.0217 -0.1277  0.0872
15758TIP3    H268766   6.668   4.077   6.004  0.5352 -0.0510 -0.1434
15759TIP3   OH268767   1.056   1.240   1.961 -0.3815  0.5782 -0.5538
15759TIP3    H168768   0.990   1.307   1.980 -1.5129 -1.0694  1.8775
15759TIP3    H268769   1.118   1.283   1.903 -3.1865  2.4388 -2.4434
15760TIP3   OH268770   1.988   2.521  10.265  0.0010  0.2059  0.1203
15760TIP3    H168771   2.022   2.493  10.179 -0.6615 -0.1834 -0.0175
15760TIP3    H268772   2.066   2.524  10.321  0.6325  1.5918 -0.7768
15761TIP3   OH268773   3.842   5.682   2.307 -0.2485  0.2703 -0.1123
15761TIP3    H168774   3.828   5.637   2.224  2.5989 -0.8067 -0.1251
15761TIP3    H268775   3.868   5.771   2.282  1.7704 -0.3828 -0.5077
15762TIP3   OH268776   0.206   2.519   3.842  0.1662  0.0706 -0.5627
15762TIP3    H168777   0.274   2.487   3.783  0.8089  0.7126 -0.1833
15762TIP3    H268778   0.233   2.489   3.929 -1.5311 -2.1373 -0.7216
15763TIP3   OH268779   4.584   5.623  11.537 -0.7469  0.1319 -0.2684
15763TIP3    H168780   4.609   5.714  11.555  2.4657 -0.8555  0.9711
15763TIP3    H268781   4.549   5.592  11.621  0.2590 -0.3568 -0.0185
15764TIP3   OH268782   6.160   6.680   3.075 -0.2622  0.6326 -0.3718
15764TIP3    H168783   6.128   6.675   2.985 -1.4735  0.5168  0.0438
15764TIP3    H268784   6.182   6.590   3.099 -2.6095  0.1786  0.3416
15765TIP3   OH268785   2.661   0.806   0.822  0.3215  0.1752 -0.3316
15765TIP3    H168786   2.624   0.799   0.910 -1.0511 -3.1648 -1.0318
15765TIP3    H268787   2.752   0.781   0.832 -0.3627 -2.4802 -0.0783
15766TIP3   OH268788   3.070   0.060   3.737  0.1915 -0.3950 -0.1812
15766TIP3    H168789   3.146   0.018   3.698  0.3424  0.6205 -1.0030
15766TIP3    H268790   3.105   0.110   3.811  0.1613 -0.7895  0.1058
15767TIP3   OH268791   6.651   6.827   0.676  0.1239  0.0923 -0.0913
15767TIP3    H168792   6.560   6.818   0.703  0.0990  0.9457  0.1520
15767TIP3    H268793   6.699   6.840   0.758  0.2978  0.7963 -0.2937
15768TIP3   OH268794   5.565   0.321  11.915 -0.6946 -0.3733  0.1844
15768TIP3    H168795   5.540   0.309  11.823 -1.2994 -0.1158  0.3081
15768TIP3    H268796   5.555   0.415  11.930  0.3799 -0.2517  0.2432
15769TIP3   OH268797   5.686   4.181   0.798  0.1960  0.3072 -0.0647
15769TIP3    H168798   5.696   4.190   0.703  0.0849 -2.4251 -0.4127
15769TIP3    H268799   5.600   4.143   0.810 -0.1895  1.4894  1.2525
15770TIP3   OH268800   1.664   5.873   3.137 -0.1135 -0.8776  0.6974
15770TIP3    H168801   1.647   5.888   3.230  1.5320 -1.4525  1.1357
15770TIP3    H268802   1.745   5.822   3.136  1.5539  1.5596 -1.1122
15771TIP3   OH268803   4.481   3.078   4.022  0.3008  0.1006 -0.7601
15771TIP3    H168804   4.547   3.014   4.050  0.4655  0.0096 -1.3276
15771TIP3    H268805   4.531   3.143   3.972  0.1385  0.6964 -0.1545
15772TIP3   OH268806   0.643   5.004   1.936 -0.5339 -0.1631 -0.0687
15772TIP3    H168807   0.600   4.970   2.014 -0.8347 -0.8438 -0.5239
15772TIP3    H268808   0.675   4.927   1.890  0.3052  0.2743 -0.2518
15773TIP3   OH268809   4.537   5.581   5.970 -0.0440  0.2641  0.3556
15773TIP3    H168810   4.462   5.554   6.023 -0.3518  0.1611 -0.1216
15773TIP3    H268811   4.500   5.639   5.903 -0.2535 -2.1803 -1.8195
15774TIP3   OH268812   0.345   3.494   0.460  0.5191 -0.2349 -0.5972
15774TIP3    H168813   0.310   3.517   0.547 -0.9241 -2.3755 -0.5430
15774TIP3    H268814   0.270   3.459   0.412  1.3414  0.6878 -2.6710
15775TIP3   OH268815   6.047   6.485  14.999  0.0096  0.2562 -0.6308
15775TIP3    H168816   5.980   6.431  14.958  0.3343  0.0304 -0.8710
15775TIP3    H268817   6.018   6.494  15.090  1.6900 -3.3060  0.4430
15776TIP3   OH268818   0.268   3.432  15.776  0.5912 -0.1460  0.2640
15776TIP3    H168819   0.320   3.354  15.759  1.2387  0.4997 -0.8511
15776TIP3    H268820   0.281   3.487  15.699 -0.9637  0.4753  0.3972
15777TIP3   OH268821   4.737   6.499   2.936 -0.1380 -0.0835 -0.1326
15777TIP3    H168822   4.727   6.520   3.029 -1.3737 -1.1789  0.0054
15777TIP3    H268823   4.831   6.486   2.924  0.0901  0.5879  0.8405
15778TIP3   OH268824   0.029   5.063   0.445  0.3743  0.0701  0.0658
15778TIP3    H168825   0.093   5.134   0.457  1.6899 -0.9292 -0.7890
15778TIP3    H268826   0.047   5.029   0.358  1.1348 -2.6058  1.1735
15779TIP3   OH268827   2.815   1.779   3.067 -0.7106  0.3801 -0.2208
15779TIP3    H168828   2.729   1.738   3.062  0.2102 -1.7557  0.1665
15779TIP3    H268829   2.805   1.862   3.020 -2.3612 -0.8895 -2.3015
15780TIP3   OH268830   2.125   2.950   0.081 -0.3778  0.6482  0.7028
15780TIP3    H168831   2.155   2.883   0.143  1.1164  0.7573  0.1508
15780TIP3    H268832   2.101   3.025   0.135  0.5403  0.6053  1.1897
15781TIP3   OH268833   5.075   1.698   2.920  0.2775  0.2222 -0.6666
15781TIP3    H168834   5.114   1.785   2.912  0.8974  0.0590  0.3738
15781TIP3    H268835   5.147   1.643   2.951 -0.7773 -0.0808  1.4087
15782TIP3   OH268836   2.755   6.532  12.332 -0.6725  0.7165  0.4878
15782TIP3    H168837   2.786   6.454  12.377  0.9456  1.1957  0.2757
15782TIP3    H268838   2.821   6.598  12.350 -1.2430  1.6183 -0.5725
15783TIP3   OH268839   2.797   4.932   4.959 -0.0911  0.5564  0.6967
15783TIP3    H168840   2.763   4.911   4.872 -0.5899 -0.6669  1.1639
15783TIP3    H268841   2.719   4.946   5.012  0.1374 -0.8253  1.4354
15784TIP3   OH268842   4.908   1.828  16.326 -0.3933 -0.1823 -0.1705
15784TIP3    H168843   4.925   1.740  16.294 -0.3872  0.2324 -1.3394
15784TIP3    H268844   4.982   1.847  16.384 -0.1126 -0.7304 -0.3424
15785TIP3   OH268845   2.077   6.087   3.195  0.3549  0.3146  0.3145
15785TIP3    H168846   2.051   6.155   3.132  1.0044  0.0461 -0.2620
15785TIP3    H268847   2.170   6.073   3.176  0.2309 -0.7159  0.4520
15786TIP3   OH268848   2.668   2.145  15.830 -0.2501 -0.7338 -0.1003
15786TIP3    H168849   2.757   2.140  15.795  0.1410  0.3957  0.6598
15786TIP3    H268850   2.643   2.237  15.817 -1.3055 -1.0428 -0.2925
15787TIP3   OH268851   0.203   1.911  16.006  0.4826  0.2786 -0.4810
15787TIP3    H168852   0.148   1.836  16.030  1.9571 -0.6717  0.0523
15787TIP3    H268853   0.166   1.984  16.055 -1.3365  0.0591 -1.4506
15788TIP3   OH268854   0.578   5.404   4.176  0.2317 -0.6290 -0.0319
15788TIP3    H168855   0.671   5.384   4.192  0.4583  1.0992  1.0584
15788TIP3    H268856   0.531   5.337   4.224  0.9324 -0.8061  0.4273
15789TIP3   OH268857   0.524   4.452   2.280  0.2254 -0.4526 -0.3223
15789TIP3    H168858   0.606   4.500   2.295  0.9128 -2.2289  2.3847
15789TIP3    H268859   0.472   4.510   2.225  2.8527  1.2283 -1.2455
15790TIP3   OH268860   0.208   0.478   1.443  0.6046 -0.0847 -0.1649
15790TIP3    H168861   0.130   0.505   1.491 -1.8651 -0.0760 -3.7949
15790TIP3    H268862   0.220   0.386   1.465  0.5862  0.3047  1.6069
15791TIP3   OH268863   6.105   4.360  12.681 -0.0077 -0.7241 -0.2064
15791TIP3    H168864   6.019   4.358  12.721  0.5593  0.2597  1.1289
15791TIP3    H268865   6.089   4.393  12.592 -0.9016  0.3235  0.3236
15792TIP3   OH268866   4.643   4.736  13.148 -0.3055 -0.2027 -0.0286
15792TIP3    H168867   4.639   4.647  13.183  0.0376  0.5791  2.0977
15792TIP3    H268868   4.645   4.723  13.053 -1.2645 -2.4216  0.1765
15793TIP3   OH268869   1.919   1.207  12.413 -0.1001 -0.0138  0.2017
15793TIP3    H168870   1.945   1.253  12.334  1.8062  0.1702  0.8889
15793TIP3    H268871   1.853   1.263  12.454  0.1344  0.7139 -0.4098
15794TIP3   OH268872   0.449   6.149  15.837  0.5702  0.2897  0.1775
15794TIP3    H168873   0.532   6.172  15.880  0.3176  2.2572 -0.3135
15794TIP3    H268874   0.394   6.114  15.907  1.0330  1.1001  0.9557
15795TIP3   OH268875   5.734   1.071  12.767 -0.0792 -0.0401  0.2222
15795TIP3    H168876   5.714   1.079  12.674 -0.6542  0.6121  0.3879
15795TIP3    H268877   5.804   1.005  12.772 -0.8404 -0.9334 -0.5650
15796TIP3   OH268878   1.170   3.256  11.905  0.1808 -0.5115 -0.0353
15796TIP3    H168879   1.208   3.329  11.953 -0.9213 -0.4630  0.8044
15796TIP3    H268880   1.224   3.248  11.826  0.3332  1.1832 -0.1357
15797TIP3   OH268881   1.892   5.302  10.964  0.0592  0.3300  0.0693
15797TIP3    H168882   1.907   5.371  10.900  0.8667  0.1578  0.0583
15797TIP3    H268883   1.899   5.220  10.914  0.7205  0.1940  0.3691
15798TIP3   OH268884   5.715   0.856  14.941 -0.4737  0.5916 -0.5897
15798TIP3    H168885   5.708   0.806  15.023 -0.6286  0.0902 -0.9026
15798TIP3    H268886   5.637   0.912  14.940 -1.2692 -0.4805 -1.0949
15799TIP3   OH268887   4.345   3.981  11.047 -0.1582 -0.1788  0.5648
15799TIP3    H168888   4.433   3.951  11.022  0.6536  2.1032  0.5013
15799TIP3    H268889   4.299   3.901  11.071  0.8086 -1.9194 -2.6833
15800TIP3   OH268890   5.814   4.859   5.051  0.5758  0.4899  0.0805
15800TIP3    H168891   5.730   4.815   5.039  0.5942  0.5642 -0.3325
15800TIP3    H268892   5.826   4.862   5.146  0.8402 -0.8952  0.1088
15801TIP3   OH268893   6.645   5.472   2.622  0.0931  0.2796  0.0958
15801TIP3    H168894   6.659   5.410   2.551 -1.1162 -0.0322  0.0992
15801TIP3    H268895   6.703   5.545   2.602  1.6594 -0.8976  0.1753
15802TIP3   OH268896   0.950   1.734  14.089  0.3522  0.6349 -0.1004
15802TIP3    H168897   0.906   1.783  14.019 -0.0762  1.0660  0.4608
15802TIP3    H268898   1.029   1.700  14.048 -0.4067 -0.0110 -1.0892
15803TIP3   OH268899   6.231   1.103  10.487  0.2621 -0.4216 -0.0043
15803TIP3    H168900   6.315   1.059  10.497  0.1513 -1.1166 -1.6692
15803TIP3    H268901   6.249   1.195  10.504  1.6216 -0.3907 -1.3568
15804TIP3   OH268902   6.373   3.060   5.213 -0.3960 -0.7230  0.5852
15804TIP3    H168903   6.348   3.010   5.291  0.8888 -0.1239  1.4137
15804TIP3    H268904   6.316   3.137   5.215  0.9367  0.2859  2.0680
15805TIP3   OH268905   1.536   3.409   0.236 -0.0155  0.1571  0.0428
15805TIP3    H168906   1.615   3.393   0.184  1.2031 -0.0587  1.8574
15805TIP3    H268907   1.524   3.504   0.232 -0.5017  0.0604 -1.3542
15806TIP3   OH268908   0.486   4.107  11.264 -0.3375 -0.3210 -0.2186
15806TIP3    H168909   0.522   4.138  11.182 -0.7943  1.4681  0.2172
15806TIP3    H268910   0.470   4.186  11.315 -2.0009 -1.2398  0.7912
15807TIP3   OH268911   5.481   2.037  11.945 -0.5595  0.1013  0.3346
15807TIP3    H168912   5.479   2.004  12.034 -0.8394 -0.7506  0.0226
15807TIP3    H268913   5.391   2.068  11.929 -1.1839 -1.8998 -0.4109
15808TIP3   OH268914   1.863   0.073   1.161  0.3740  0.3914 -0.5110
15808TIP3    H168915   1.826   0.016   1.094 -0.4561 -0.0254  0.2928
15808TIP3    H268916   1.885   0.014   1.233 -3.3229  1.3162  1.6253
15809TIP3   OH268917   2.032   6.303  10.826  0.7392 -0.2850  0.2065
15809TIP3    H168918   1.964   6.362  10.795  0.3532 -0.7590  0.1442
15809TIP3    H268919   2.101   6.361  10.858  1.3381  0.2541 -1.8873
15810TIP3   OH268920   4.800   3.328   4.195  0.2855 -0.4678  0.0247
15810TIP3    H168921   4.709   3.351   4.178  0.3525  0.8578  1.2174
15810TIP3    H268922   4.839   3.317   4.109 -0.7565  0.0212 -0.5237
15811TIP3   OH268923   2.385   1.281  12.935 -0.0383  0.3562  0.2865
15811TIP3    H168924   2.364   1.250  13.023  0.6466  0.3714  0.4589
15811TIP3    H268925   2.322   1.352  12.919 -0.6890 -0.1688  0.4379
15812TIP3   OH268926   5.814   2.717  11.198 -0.1648  0.2984 -0.0442
15812TIP3    H168927   5.902   2.686  11.219  0.1635  1.1069 -0.1894
15812TIP3    H268928   5.757   2.643  11.219  0.7286 -0.9455 -1.7798
15813TIP3   OH268929   0.413   1.951   5.261 -0.1827 -0.4898 -0.0298
15813TIP3    H168930   0.394   1.912   5.175 -0.6955  1.3133 -0.7794
15813TIP3    H268931   0.503   1.925   5.279 -0.0074 -0.7705 -1.1932
15814TIP3   OH268932   5.491   0.634   3.203 -0.1829  0.6927  0.7471
15814TIP3    H168933   5.399   0.617   3.187  0.5596 -2.8562 -0.7596
15814TIP3    H268934   5.522   0.559   3.253  2.2702  0.6202 -0.6740
15815TIP3   OH268935   1.867   2.237   2.969 -0.1962 -0.0827 -0.6182
15815TIP3    H168936   1.798   2.180   2.935 -1.7704  0.6395  1.1620
15815TIP3    H268937   1.894   2.289   2.894 -2.2519  0.2109 -1.2111
15816TIP3   OH268938   4.623   1.082  11.585  0.2963 -0.2295  0.2234
15816TIP3    H168939   4.706   1.091  11.633 -0.2634  1.0500  0.9802
15816TIP3    H268940   4.561   1.052  11.651 -0.6818  2.3460  0.5818
15817TIP3   OH268941   0.933   3.789  11.065  0.3807  0.2406  0.2213
15817TIP3    H168942   0.990   3.865  11.075 -0.0123  0.4320  1.1516
15817TIP3    H268943   0.891   3.779  11.151 -1.1579  0.2486 -0.5002
15818TIP3   OH268944   3.894   3.813   6.016  0.0683 -0.2968 -0.6380
15818TIP3    H168945   3.854   3.900   6.012 -0.5776 -0.3151  2.5275
15818TIP3    H268946   3.825   3.754   5.986 -0.4275  0.0998 -0.3009
15819TIP3   OH268947   0.066   0.904  16.720  0.9246 -0.0508  0.0200
15819TIP3    H168948  -0.005   0.963  16.694  2.6716  2.4935  0.6442
15819TIP3    H268949   0.127   0.906  16.647 -0.1636 -3.3480 -1.1381
15820TIP3   OH268950   2.273   5.546  15.603 -0.3493 -0.0455  0.1492
15820TIP3    H168951   2.355   5.582  15.636 -0.7026  0.7797  0.1448
15820TIP3    H268952   2.294   5.456  15.579  0.7596  0.4039 -0.6277
15821TIP3   OH268953   3.349   0.861  11.246  0.2782 -0.4753 -0.7728
15821TIP3    H168954   3.321   0.857  11.338  1.3899 -0.4334 -0.4164
15821TIP3    H268955   3.363   0.954  11.230 -2.0387 -0.2094 -1.6870
15822TIP3   OH268956   3.357   2.349  10.983  0.1006 -0.0968 -1.2001
15822TIP3    H168957   3.447   2.382  10.971  0.4351 -0.9042 -0.9658
15822TIP3    H268958   3.326   2.333  10.894  0.0713  0.4714 -1.3003
15823TIP3   OH268959   1.958   2.457   2.734  0.4087  0.1769 -0.1590
15823TIP3    H168960   1.950   2.453   2.639  0.2273 -0.2712 -0.1292
15823TIP3    H268961   2.049   2.483   2.749  0.4436  0.2302 -0.4538
15824TIP3   OH268962   1.909   5.337  11.866  0.3101 -0.0481  0.1045
15824TIP3    H168963   2.001   5.335  11.841  0.2377 -1.1995 -0.1148
15824TIP3    H268964   1.880   5.246  11.860 -0.9006  0.3256 -0.0489
15825TIP3   OH268965   4.046   1.334   2.547 -0.2920  0.1087  0.1999
15825TIP3    H168966   3.961   1.363   2.579 -1.0297 -0.5858 -1.0466
15825TIP3    H268967   4.058   1.381   2.465  0.3236 -0.1353  0.1464
15826TIP3   OH268968   3.150   0.059   5.478  0.3361 -0.4913  0.1237
15826TIP3    H168969   3.074   0.088   5.528 -0.9174  0.5276 -2.2493
15826TIP3    H268970   3.220   0.053   5.544 -0.7586  2.4576  1.7779
15827TIP3   OH268971   2.733   4.782   5.223  0.6652  0.1772  0.7549
15827TIP3    H168972   2.677   4.842   5.272  0.3754  1.1655 -0.7308
15827TIP3    H268973   2.674   4.739   5.162  1.2701  0.1525  0.1788
15828TIP3   OH268974   1.977   3.638   1.421 -0.0777  1.0013 -0.2936
15828TIP3    H168975   1.886   3.663   1.404  0.0449  1.7220  0.1104
15828TIP3    H268976   1.977   3.608   1.512 -0.0524  0.2916 -0.5170
15829TIP3   OH268977   1.682   4.364   3.592 -0.1867 -0.3689 -0.3802
15829TIP3    H168978   1.713   4.409   3.513 -1.3292  0.0176 -0.6276
15829TIP3    H268979   1.698   4.425   3.663  0.1529 -0.4115 -0.4183
15830TIP3   OH268980   4.252   0.612   2.948 -0.0991 -0.2338 -0.0135
15830TIP3    H168981   4.264   0.643   3.037  2.4823  1.1682 -0.7349
15830TIP3    H268982   4.231   0.690   2.897  1.7925 -0.3586 -1.1068
15831TIP3   OH268983   5.558   2.280   4.090  0.4779 -0.0333 -0.8118
15831TIP3    H168984   5.652   2.300   4.087  0.9085 -1.4018  1.4145
15831TIP3    H268985   5.521   2.329   4.016  3.1963 -0.9685 -2.9789
15832TIP3   OH268986   0.599   4.918  14.421 -0.0211 -0.7635 -0.3438
15832TIP3    H168987   0.680   4.875  14.450  1.0700 -0.0699 -2.1351
15832TIP3    H268988   0.529   4.859  14.448  1.1587 -1.8688  0.4235
15833TIP3   OH268989   2.164   6.660   3.961 -0.2478  0.7519 -0.4037
15833TIP3    H168990   2.241   6.626   4.005  0.4481  0.7434 -1.5894
15833TIP3    H268991   2.126   6.584   3.916 -0.3141  0.9699 -0.7255
15834TIP3   OH268992   0.395   6.717  12.832  0.5299  0.1109  0.1621
15834TIP3    H168993   0.416   6.811  12.836  1.1671 -0.0535  0.7829
15834TIP3    H268994   0.315   6.709  12.884 -0.8479  0.6487 -1.7539
15835TIP3   OH268995   0.385   1.431   4.854 -0.7505 -0.6272  0.1594
15835TIP3    H168996   0.384   1.526   4.864 -1.5865 -0.5541 -0.4773
15835TIP3    H268997   0.414   1.398   4.938  0.7912  0.2327  0.0110
15836TIP3   OH268998   1.174   6.343  11.142 -0.0544  0.2538 -0.2379
15836TIP3    H168999   1.081   6.324  11.144 -0.4086  1.9204  1.2431
15836TIP3    H269000   1.213   6.269  11.095 -2.2176  0.0542 -1.8730
15837TIP3   OH269001   3.559   3.732   1.805  0.4855 -0.0820 -0.1983
15837TIP3    H169002   3.619   3.764   1.737 -1.2895  0.4253 -1.6090
15837TIP3    H269003   3.513   3.659   1.764 -0.1870 -0.1666  0.6804
15838TIP3   OH269004   6.755   6.648  14.900  0.2890  0.2174 -0.1148
15838TIP3    H169005   6.817   6.689  14.841  0.9480  0.6084  0.8338
15838TIP3    H269006   6.764   6.554  14.884  1.6776  0.2235  0.5406
15839TIP3   OH269007   2.314   4.296  13.498  0.1311  0.3033 -0.0664
15839TIP3    H169008   2.372   4.320  13.426  0.1548  0.8897  0.1372
15839TIP3    H269009   2.295   4.203  13.484  2.0800 -0.2314  0.5432
15840TIP3   OH269010   1.699   1.871  14.649 -0.2653  0.3956 -0.2814
15840TIP3    H169011   1.641   1.920  14.708 -1.2427 -0.4783 -0.4891
15840TIP3    H269012   1.728   1.936  14.585  0.7783  1.3487  1.1175
15841TIP3   OH269013   4.658   1.416   1.740 -0.3922  0.3942  0.4491
15841TIP3    H169014   4.667   1.494   1.793  0.2673  2.0531 -1.9305
15841TIP3    H269015   4.571   1.382   1.761 -0.6791  1.7540  1.5570
15842TIP3   OH269016   6.041   3.567  11.632 -0.0290 -0.2368  0.4578
15842TIP3    H169017   5.995   3.609  11.559 -0.9703 -0.5083  0.8706
15842TIP3    H269018   6.132   3.596  11.623  0.0713 -0.9592 -1.3262
15843TIP3   OH269019   6.221   6.031  14.817 -0.7999  0.4425 -0.1616
15843TIP3    H169020   6.136   6.002  14.851 -2.0819  1.5098 -2.2673
15843TIP3    H269021   6.218   6.011  14.724  1.7572 -0.5075 -0.1131
15844TIP3   OH269022   2.234   1.270  16.396 -0.6797 -0.3173 -0.5486
15844TIP3    H169023   2.235   1.364  16.413  0.1808 -0.4715  0.2908
15844TIP3    H269024   2.161   1.258  16.334 -0.0252  1.0639 -1.6390
15845TIP3   OH269025   5.545   2.283   3.691  0.3221 -0.5558  0.3241
15845TIP3    H169026   5.557   2.353   3.755 -2.3123 -0.1935  0.5345
15845TIP3    H269027   5.458   2.248   3.710  0.8338 -2.6903 -0.9522
15846TIP3   OH269028   3.397   1.555  10.668 -0.2266 -0.0591  0.2224
15846TIP3    H169029   3.380   1.521  10.756 -0.0702  0.3651  0.4205
15846TIP3    H269030   3.414   1.648  10.682 -1.0644  0.1869 -0.3600
15847TIP3   OH269031   3.179   4.123  12.170 -0.2315 -0.0119  0.0635
15847TIP3    H169032   3.134   4.053  12.124 -0.1054  0.5906 -1.0094
15847TIP3    H269033   3.116   4.153  12.235  0.7593 -3.1145  2.7460
15848TIP3   OH269034   1.470   5.415  13.109  0.1430  0.2837  0.3789
15848TIP3    H169035   1.506   5.397  13.196  0.1831  0.9813  0.5110
15848TIP3    H269036   1.478   5.332  13.062  1.9518  0.4270  0.3910
15849TIP3   OH269037   1.869   3.066   2.521  0.5386  0.0171  0.1775
15849TIP3    H169038   1.853   3.029   2.434 -1.6490  0.3940  0.3490
15849TIP3    H269039   1.830   3.003   2.581  0.5684  0.5517  0.7674
15850TIP3   OH269040   0.221   3.727  12.595 -0.3686  0.6159 -0.2952
15850TIP3    H169041   0.163   3.725  12.519 -2.8515  0.3450  1.4825
15850TIP3    H269042   0.270   3.645  12.589  0.3517  1.1315 -2.1712
15851TIP3   OH269043   4.396   1.821  11.602 -0.1165  0.3201  0.1575
15851TIP3    H169044   4.356   1.742  11.638 -0.2549  0.5407  0.4929
15851TIP3    H269045   4.424   1.796  11.514 -1.0780  0.1809 -0.1260
15852TIP3   OH269046   1.391   3.208  16.347  0.3779  0.0144 -0.0602
15852TIP3    H169047   1.436   3.221  16.430 -0.5539  1.1924  0.2940
15852TIP3    H269048   1.436   3.266  16.285  2.8624 -2.8489 -1.1626
15853TIP3   OH269049   0.140   2.729   6.060 -0.5349  0.6284  0.4901
15853TIP3    H169050   0.093   2.676   5.996 -0.1325 -0.2002  0.8754
15853TIP3    H269051   0.160   2.669   6.132  1.1650  0.9306  0.2998
15854TIP3   OH269052   1.843   1.787   0.289  0.0026 -0.0957 -0.1720
15854TIP3    H169053   1.909   1.738   0.239  0.9729  0.7271  0.2887
15854TIP3    H269054   1.893   1.842   0.348 -1.1201  0.1147  0.6070
15855TIP3   OH269055   5.120   1.486  13.256  0.0598  0.3749 -0.0975
15855TIP3    H169056   5.130   1.423  13.328 -0.0353  0.2801 -0.1661
15855TIP3    H269057   5.191   1.549  13.269 -0.4685  0.8549  0.5792
15856TIP3   OH269058   1.214   5.018  11.528  0.1047  0.6155  0.6444
15856TIP3    H169059   1.130   5.052  11.558 -0.9358  1.2550 -2.5880
15856TIP3    H269060   1.204   4.923  11.533 -2.3699  0.4758 -2.9661
15857TIP3   OH269061   5.873   6.141   4.370 -0.3398  0.2584  0.6723
15857TIP3    H169062   5.799   6.094   4.409 -0.8171  1.6427  1.5038
15857TIP3    H269063   5.944   6.130   4.433 -0.0439 -0.4048  0.2448
15858TIP3   OH269064   4.435   5.773   0.348 -0.3368 -0.4999  0.2793
15858TIP3    H169065   4.357   5.763   0.403 -0.4695 -0.6057  0.0742
15858TIP3    H269066   4.411   5.840   0.284 -0.0301 -0.0649  0.6179
15859TIP3   OH269067   0.144   2.417  17.096  0.3803 -0.3124  0.2253
15859TIP3    H169068   0.143   2.438  17.003 -0.0934  0.3473  0.3785
15859TIP3    H269069   0.217   2.467  17.132  0.9493 -1.0337  0.1132
15860TIP3   OH269070   3.453   0.466  13.850 -0.7031 -0.0966  0.3902
15860TIP3    H169071   3.389   0.438  13.916 -0.8123  0.1367  0.3859
15860TIP3    H269072   3.538   0.448  13.889 -0.7687 -1.5241 -0.0857
15861TIP3   OH269073   1.333   5.350   3.532  0.1129 -0.3285  0.1706
15861TIP3    H169074   1.427   5.345   3.515 -0.0834 -0.2317 -1.0569
15861TIP3    H269075   1.326   5.391   3.618  1.1690  1.4689 -0.5496
15862TIP3   OH269076   0.055   1.735  16.469  0.0079  0.3250  0.0417
15862TIP3    H169077   0.134   1.789  16.478  1.0077 -1.2643  1.3686
15862TIP3    H269078  -0.005   1.789  16.417  2.0880  1.4426 -1.3356
15863TIP3   OH269079   2.458   2.214   1.312 -0.1404 -0.5466  0.4122
15863TIP3    H169080   2.423   2.127   1.334 -1.3944 -0.0775  0.3226
15863TIP3    H269081   2.415   2.237   1.230  1.4715 -0.5439 -0.4766
15864TIP3   OH269082   1.499   2.980  12.181 -0.3631 -0.1836 -0.2693
15864TIP3    H169083   1.534   3.009  12.265 -1.8260 -1.5053  0.8788
15864TIP3    H269084   1.412   3.020  12.176 -0.4757 -0.4884 -0.9214
15865TIP3   OH269085   1.444   1.290  14.493  0.2803 -0.2196 -0.2675
15865TIP3    H169086   1.475   1.276  14.583  0.8579  0.4024 -0.3609
15865TIP3    H269087   1.519   1.266  14.438  0.3644  0.6270 -0.5286
15866TIP3   OH269088   2.240   4.372  11.986 -0.2553 -0.4236 -1.0479
15866TIP3    H169089   2.312   4.391  11.926  1.1288 -1.1577  0.2998
15866TIP3    H269090   2.177   4.323  11.933  0.1861  0.3100 -2.2821
15867TIP3   OH269091   5.859   6.272  12.604 -0.4703  0.4014  0.7668
15867TIP3    H169092   5.915   6.212  12.652 -0.6498 -0.3896  0.0094
15867TIP3    H269093   5.770   6.239  12.619 -0.4338 -0.7615 -1.2805
15868TIP3   OH269094   4.044   1.371  10.386  0.3216 -0.0718 -0.2398
15868TIP3    H169095   4.084   1.322  10.458 -0.2591 -1.2248 -0.6589
15868TIP3    H269096   3.953   1.384  10.413  0.7681  1.9459  0.4204
15869TIP3   OH269097   6.360   2.178   0.728  0.0387 -1.0173 -0.8088
15869TIP3    H169098   6.348   2.265   0.689  0.2334 -1.4891 -1.9855
15869TIP3    H269099   6.434   2.140   0.679  2.6215 -0.4041  2.2712
15870TIP3   OH269100   5.454   3.701  10.976  1.1882 -0.4494  0.4668
15870TIP3    H169101   5.448   3.651  10.894  2.0703 -0.4236  0.3810
15870TIP3    H269102   5.363   3.719  10.999  0.9304  0.8451 -1.3067
15871TIP3   OH269103   1.985   2.529   1.499 -0.2340 -0.5079 -0.1482
15871TIP3    H169104   1.943   2.467   1.558 -1.1033 -1.0150 -1.2700
15871TIP3    H269105   1.945   2.512   1.414  0.3122  0.8444 -0.6999
15872TIP3   OH269106   1.191   0.664   4.911  0.0598 -0.9872  0.7603
15872TIP3    H169107   1.158   0.746   4.946 -2.2769 -1.7165  0.4868
15872TIP3    H269108   1.218   0.614   4.988  1.5477 -0.0055  0.9241
15873TIP3   OH269109   1.830   0.211  11.265  0.1587 -0.2773  0.3909
15873TIP3    H169110   1.818   0.306  11.259 -1.6035 -0.5587 -1.9786
15873TIP3    H269111   1.756   0.181  11.318  1.1968 -0.2926  1.8813
15874TIP3   OH269112   5.647   2.769  13.937  0.4615  0.3079  0.2315
15874TIP3    H169113   5.645   2.823  14.017 -2.3327  1.4046 -0.4536
15874TIP3    H269114   5.659   2.680  13.969 -2.5081  0.4616  2.1535
15875TIP3   OH269115   6.034   4.374   3.746  0.5669 -0.1184 -0.1682
15875TIP3    H169116   5.982   4.296   3.765  1.0828 -0.7818 -1.4324
15875TIP3    H269117   5.998   4.407   3.664  1.2074  0.2404 -0.3064
15876TIP3   OH269118   4.967   1.875  16.039  0.2030 -0.3102  0.1581
15876TIP3    H169119   5.014   1.952  16.070 -3.5523  3.0931 -1.7501
15876TIP3    H269120   4.924   1.840  16.118 -0.1165  1.1844  0.6745
15877TIP3   OH269121   2.529   5.658  13.922 -0.4653 -0.1057  0.4563
15877TIP3    H169122   2.534   5.750  13.894 -0.4108  0.1555  1.2926
15877TIP3    H269123   2.572   5.657  14.008  1.1404 -1.2400 -0.2948
15878TIP3   OH269124   1.560   0.614   3.632  0.2754  0.0336 -0.0320
15878TIP3    H169125   1.556   0.699   3.677  1.2506 -1.1233  2.3959
15878TIP3    H269126   1.650   0.606   3.603  0.5067 -0.6480  0.8222
15879TIP3   OH269127   0.548   0.704  10.883  0.5537 -0.3927 -0.0294
15879TIP3    H169128   0.559   0.676  10.792 -0.4944  0.2405 -0.3649
15879TIP3    H269129   0.468   0.757  10.883  1.6431  1.3404  0.8700
15880TIP3   OH269130   4.855   0.069  15.941  0.2964 -0.2242  0.5019
15880TIP3    H169131   4.835  -0.018  15.977  2.8565 -1.1711 -0.1268
15880TIP3    H269132   4.816   0.130  16.002 -0.7145 -1.8195  1.5244
15881TIP3   OH269133   5.685   6.557   6.689 -0.2231 -0.4519 -0.0702
15881TIP3    H169134   5.681   6.638   6.739 -0.9824  0.3100 -1.3236
15881TIP3    H269135   5.685   6.488   6.756  1.6659  0.5607  1.0734
15882TIP3   OH269136   2.380   1.841   4.605 -0.0204  0.0589 -0.0819
15882TIP3    H169137   2.465   1.874   4.634  0.3195 -1.2522  0.5181
15882TIP3    H269138   2.401   1.790   4.526 -0.4566  0.8052 -0.6956
15883TIP3   OH269139   4.760   4.817   1.437  0.4818 -0.0645 -0.9959
15883TIP3    H169140   4.852   4.827   1.461  0.6734 -0.8094 -1.3748
15883TIP3    H269141   4.753   4.859   1.351  0.5503 -0.2849 -1.1124
15884TIP3   OH269142   2.540   3.711   4.534  0.0365  0.3792 -0.3976
15884TIP3    H169143   2.549   3.627   4.579 -1.3143 -0.0769 -0.9155
15884TIP3    H269144   2.612   3.712   4.470  0.4892 -0.0625  0.0963
15885TIP3   OH269145   3.362   6.029   1.508  0.1873 -0.2368  0.3097
15885TIP3    H169146   3.413   6.071   1.438 -0.6970 -1.1942 -0.9456
15885TIP3    H269147   3.427   5.979   1.558  0.9635  1.1503  0.7442
15886TIP3   OH269148   0.162   5.058   5.122  0.0937 -0.1473  0.0948
15886TIP3    H169149   0.139   5.148   5.146 -1.3018 -0.3572 -0.3344
15886TIP3    H269150   0.087   5.006   5.151  0.3653 -1.0075 -0.6882
15887TIP3   OH269151   6.300   3.474  12.319 -0.4433  0.6580 -0.0670
15887TIP3    H169152   6.377   3.426  12.349 -1.1970 -0.3159  0.3938
15887TIP3    H269153   6.278   3.434  12.235 -1.8050 -0.7264  0.8900
15888TIP3   OH269154   0.071   0.153   1.410  0.0097  0.9241  0.5221
15888TIP3    H169155   0.161   0.118   1.414 -0.8829 -1.8964 -1.1068
15888TIP3    H269156   0.055   0.165   1.316 -1.8315 -0.2858  0.6312
15889TIP3   OH269157   1.062   0.739  13.560  0.5414 -0.0747 -0.6996
15889TIP3    H169158   1.016   0.822  13.573  2.0296  0.7651 -0.6237
15889TIP3    H269159   1.134   0.741  13.623  0.1914 -1.7495 -0.2162
15890TIP3   OH269160   4.045   1.345   4.097  0.1287  0.2479  0.0391
15890TIP3    H169161   3.953   1.343   4.071  0.4780 -1.8370 -1.2333
15890TIP3    H269162   4.093   1.322   4.018  1.5918 -1.0561  1.2326
15891TIP3   OH269163   5.629   6.815  16.174 -0.1801  0.4325 -0.2391
15891TIP3    H169164   5.666   6.860  16.097  1.1185  0.1217  0.1867
15891TIP3    H269165   5.536   6.807  16.154  0.3040 -0.7092 -2.3360
15892TIP3   OH269166   2.183   6.789   2.618 -0.5949  0.3705  0.3166
15892TIP3    H169167   2.231   6.788   2.701  0.1132  1.6361 -0.0447
15892TIP3    H269168   2.231   6.728   2.562 -0.2642  0.5196  0.4285
15893TIP3   OH269169   0.666   6.417  16.207  0.1847  0.3715  0.0376
15893TIP3    H169170   0.692   6.456  16.124  0.3580  0.4430  0.1237
15893TIP3    H269171   0.742   6.428  16.264 -0.0381  0.5915  0.2977
15894TIP3   OH269172   3.724   2.199  16.053 -0.5703 -0.4774  0.4375
15894TIP3    H169173   3.693   2.191  15.962 -1.6725  0.3194  0.7257
15894TIP3    H269174   3.819   2.187  16.047 -0.3500  1.5317 -1.0989
15895TIP3   OH269175   3.926   3.026  15.618  0.3436 -0.2848 -0.4678
15895TIP3    H169176   3.916   3.071  15.702  0.6890 -1.8963  0.4796
15895TIP3    H269177   3.931   3.097  15.554 -0.1999  0.9871  0.8253
15896TIP3   OH269178   3.118   6.227   5.739  0.3163 -0.7016 -0.2502
15896TIP3    H169179   3.058   6.219   5.665  0.7698 -0.2710 -0.6714
15896TIP3    H269180   3.062   6.215   5.816 -0.0852 -1.5414 -0.6679
15897TIP3   OH269181   4.181   1.489   1.596  0.0340 -0.2875 -0.0219
15897TIP3    H169182   4.090   1.509   1.619 -0.3583 -1.6919 -0.2901
15897TIP3    H269183   4.178   1.400   1.562  1.0488  0.6275 -2.8144
15898TIP3   OH269184   2.657   6.018   0.821 -0.0684 -0.0429 -0.4477
15898TIP3    H169185   2.726   6.022   0.755  1.3210  0.3396  0.9666
15898TIP3    H269186   2.643   6.109   0.847  0.1335 -0.2809  0.5122
15899TIP3   OH269187   3.063   1.347   4.435 -0.0085  0.5337  0.5390
15899TIP3    H169188   3.088   1.439   4.434  1.4154  0.2041  1.8339
15899TIP3    H269189   3.107   1.311   4.512 -0.6624 -1.2020  0.1501
15900TIP3   OH269190   1.601   0.338   2.335  0.1319  0.4697 -0.3295
15900TIP3    H169191   1.577   0.353   2.243  2.5506  2.1032 -0.7794
15900TIP3    H269192   1.619   0.425   2.370  0.1126 -0.2105  1.4604
15901TIP3   OH269193   1.377   4.308   3.190 -0.2650 -0.0480 -0.0575
15901TIP3    H169194   1.406   4.242   3.253 -0.6292 -0.6465 -0.4992
15901TIP3    H269195   1.457   4.354   3.164  0.3281 -1.5779 -1.1642
15902TIP3   OH269196   6.691   0.660   1.889 -0.2483 -0.5407 -0.5191
15902TIP3    H169197   6.782   0.676   1.864 -0.4442  1.6120 -0.0130
15902TIP3    H269198   6.672   0.572   1.854  1.5792 -0.4760 -1.8306
15903TIP3   OH269199   0.116   2.215   0.973 -0.8217  0.1949 -0.5931
15903TIP3    H169200   0.167   2.194   0.895 -1.2968  1.9297 -1.4228
15903TIP3    H269201   0.031   2.173   0.958 -0.9158  0.5311 -1.0336
15904TIP3   OH269202   4.728   4.669   3.866 -0.0739 -0.3259  0.4255
15904TIP3    H169203   4.683   4.585   3.854  0.5101 -0.3991 -1.6694
15904TIP3    H269204   4.819   4.651   3.845  0.2306  0.6459  0.8436
15905TIP3   OH269205   3.702   0.620  15.461 -0.0670  0.7302  0.1676
15905TIP3    H169206   3.649   0.669  15.397 -0.8094  0.7547  0.7861
15905TIP3    H269207   3.677   0.657  15.546  0.9131  0.7036  0.4800
15906TIP3   OH269208   4.442   3.807  11.624 -0.2306 -0.1412 -0.4666
15906TIP3    H169209   4.409   3.757  11.550  1.5600 -1.5946 -0.3634
15906TIP3    H269210   4.498   3.875  11.584 -1.9198  1.2557 -0.5588
15907TIP3   OH269211   2.750   3.731   4.366  0.8630  0.1299 -0.3178
15907TIP3    H169212   2.827   3.731   4.310  1.1829  1.3694  0.1012
15907TIP3    H269213   2.781   3.764   4.450  0.1710 -0.7410  0.3041
15908TIP3   OH269214   1.169   0.616   0.333 -0.3635 -0.8037  0.3395
15908TIP3    H169215   1.245   0.583   0.285 -2.2016 -1.5902 -2.2714
15908TIP3    H269216   1.190   0.708   0.350  0.3969 -0.4240 -2.1805
15909TIP3   OH269217   3.822   4.572   2.130  0.6997  0.0951  0.1466
15909TIP3    H169218   3.912   4.585   2.161 -0.0150  0.0177  2.4818
15909TIP3    H269219   3.806   4.479   2.145  0.3046  0.0556 -0.5032
15910TIP3   OH269220   1.637   3.980   5.934  0.4889 -0.9590 -0.1541
15910TIP3    H169221   1.716   4.023   5.967  0.1911 -1.1880  0.8685
15910TIP3    H269222   1.566   4.042   5.953  0.2162 -1.3994  0.2869
15911TIP3   OH269223   2.845   6.807  12.029 -0.5380 -0.1333 -0.3042
15911TIP3    H169224   2.817   6.884  12.077 -1.5584 -0.5483 -0.2128
15911TIP3    H269225   2.771   6.746  12.034  0.6874 -1.6265  0.6851
15912TIP3   OH269226   5.748   4.349   6.608  0.0685  0.3739  0.0747
15912TIP3    H169227   5.803   4.415   6.565 -0.5325  1.5721  1.0672
15912TIP3    H269228   5.714   4.394   6.685 -2.1233 -0.3914 -0.3857
15913TIP3   OH269229   0.945   2.944   6.470  0.0286 -0.4311  0.3729
15913TIP3    H169230   0.935   2.849   6.471  0.2892 -0.5195  3.3391
15913TIP3    H269231   0.861   2.978   6.499 -0.1266  0.2971 -0.8420
15914TIP3   OH269232   2.778   0.733   1.989 -0.2374  0.0345 -0.5675
15914TIP3    H169233   2.741   0.761   2.073 -1.9285 -1.0024 -0.9316
15914TIP3    H269234   2.749   0.643   1.978 -0.4275  0.2820 -2.4597
15915TIP3   OH269235   5.827   6.283   1.039 -0.1336  0.2280 -0.2267
15915TIP3    H169236   5.824   6.378   1.026 -1.0445  0.4596  1.3655
15915TIP3    H269237   5.762   6.249   0.977 -0.6098  0.7520 -0.0255
15916TIP3   OH269238   3.262   0.381  13.690 -0.6725  0.1554 -0.2068
15916TIP3    H169239   3.343   0.423  13.720 -0.6895  1.5042 -1.8538
15916TIP3    H269240   3.193   0.440  13.719 -1.0324 -0.6458  0.6046
15917TIP3   OH269241   0.348   0.044  14.366 -0.9545 -0.0320  0.5845
15917TIP3    H169242   0.342   0.138  14.351 -0.8579  0.0176  0.8621
15917TIP3    H269243   0.260   0.018  14.391 -0.9658 -0.0030  0.5747
15918TIP3   OH269244   4.606   4.337  11.450  0.4289  0.0956  0.0891
15918TIP3    H169245   4.605   4.369  11.540  1.5994  1.6089 -0.3962
15918TIP3    H269246   4.518   4.302  11.435 -0.7593  2.5543  0.8788
15919TIP3   OH269247   3.925   0.007  13.317 -0.0929  0.2217 -0.0186
15919TIP3    H169248   3.970   0.060  13.382 -1.3914  0.4722  0.6930
15919TIP3    H269249   3.842   0.052  13.301 -0.8333 -1.0998 -0.0566
15920TIP3   OH269250   3.819   5.235  13.157 -0.6195  0.3762 -0.2944
15920TIP3    H169251   3.737   5.280  13.138 -1.3151 -0.9403 -0.5469
15920TIP3    H269252   3.793   5.147  13.183  0.6500  0.3770  1.1006
15921TIP3   OH269253   4.230   3.150  10.270  0.5285  0.5386 -0.4308
15921TIP3    H169254   4.226   3.097  10.350 -1.5947  0.2552 -0.6738
15921TIP3    H269255   4.239   3.085  10.200  0.2298  0.6344 -0.5604
15922TIP3   OH269256   0.779   3.830   4.160  0.4171  0.0489  0.0549
15922TIP3    H169257   0.715   3.792   4.221  0.5162  0.9084  0.7239
15922TIP3    H269258   0.850   3.766   4.158  0.5184  0.1041  1.0463
15923TIP3   OH269259   3.728   1.621   0.506  0.2916 -0.4764 -0.2568
15923TIP3    H169260   3.808   1.592   0.463 -0.8595 -2.3240 -1.2933
15923TIP3    H269261   3.682   1.673   0.440 -0.1526 -0.8936 -0.2826
15924TIP3   OH269262   2.613   0.761   1.473  0.4685  0.2103  0.8431
15924TIP3    H169263   2.707   0.778   1.474  0.4500  0.2795  1.4462
15924TIP3    H269264   2.577   0.818   1.540 -0.1198  0.8100  0.0388
15925TIP3   OH269265   0.166   0.885   2.538  0.1865 -0.1331  0.9142
15925TIP3    H169266   0.101   0.871   2.608  1.0631 -1.5696  1.4770
15925TIP3    H269267   0.239   0.928   2.582  0.4391 -0.3622  0.7175
15926TIP3   OH269268   3.590   0.810   5.858  0.8286  0.0168  0.5392
15926TIP3    H169269   3.664   0.834   5.802  0.1792  0.0291 -0.3407
15926TIP3    H269270   3.588   0.877   5.926  0.2559  1.3653 -0.7465
15927TIP3   OH269271   3.588   3.697  15.839 -0.4801 -0.0732  0.2041
15927TIP3    H169272   3.527   3.763  15.808  0.0773  1.1711  1.6256
15927TIP3    H269273   3.532   3.623  15.866 -1.5115  1.3514  2.2518
15928TIP3   OH269274   3.973   4.947   4.319 -0.0126  0.1757  0.3333
15928TIP3    H169275   4.009   4.904   4.396 -1.8120  1.4073  1.9844
15928TIP3    H269276   3.986   5.040   4.335  0.1144  0.4476 -1.1654
15929TIP3   OH269277   6.239   3.616   4.389  0.7435 -0.2697  0.0355
15929TIP3    H169278   6.330   3.632   4.362  0.5600  0.8953  0.0909
15929TIP3    H269279   6.237   3.522   4.410  1.2277 -0.9561 -2.6799
15930TIP3   OH269280   1.089   1.765  15.842  0.3180 -0.4257 -0.4461
15930TIP3    H169281   1.037   1.708  15.785 -0.4380  0.7688 -0.9958
15930TIP3    H269282   1.168   1.784  15.792 -0.5875  1.0613 -1.3687
15931TIP3   OH269283   4.989   3.403   4.848  0.3868  0.6416  0.1181
15931TIP3    H169284   4.911   3.347   4.849  1.2096 -0.5309  0.6914
15931TIP3    H269285   5.014   3.408   4.756  0.5949 -0.3729  0.1145
15932TIP3   OH269286   2.218   1.641  13.303 -0.1018 -0.3141 -0.5673
15932TIP3    H169287   2.230   1.686  13.220  0.1458 -0.4277 -0.5942
15932TIP3    H269288   2.270   1.562  13.295 -0.2932 -0.4572 -0.4042
15933TIP3   OH269289   3.042   0.188   4.750 -0.1898  0.0672 -0.4041
15933TIP3    H169290   3.088   0.199   4.833 -0.5220 -1.0244 -0.0574
15933TIP3    H269291   3.054   0.272   4.704  1.8411 -0.0650 -0.1884
15934TIP3   OH269292   1.938   3.474  12.724  0.1856  0.2051 -0.0351
15934TIP3    H169293   2.022   3.451  12.683  0.8519 -1.0931  1.9163
15934TIP3    H269294   1.945   3.568  12.743  0.4185  0.5182 -1.5560
15935TIP3   OH269295   0.476   1.723  15.473  0.5060  0.4613 -0.4618
15935TIP3    H169296   0.571   1.714  15.463  0.7847  0.5316  1.7058
15935TIP3    H269297   0.466   1.789  15.541 -1.0688 -0.5778  0.3528
15936TIP3   OH269298   3.753   1.961   2.823 -0.1335  0.0441  0.1900
15936TIP3    H169299   3.841   1.922   2.820 -0.0505  0.0122  1.8384
15936TIP3    H269300   3.713   1.923   2.902 -0.8611  1.6177  0.6196
15937TIP3   OH269301   1.233   5.924  15.250  0.0173  0.4122 -0.4306
15937TIP3    H169302   1.319   5.964  15.263  0.2225  0.0552 -0.6728
15937TIP3    H269303   1.172   5.983  15.294  0.5632 -0.2048  1.2309
15938TIP3   OH269304   0.407   5.329   0.269 -0.6684 -0.1784 -0.5939
15938TIP3    H169305   0.330   5.383   0.253 -0.6161 -0.2925 -1.2298
15938TIP3    H269306   0.376   5.239   0.258  0.1405 -0.1883 -3.6404
15939TIP3   OH269307   2.736   5.180  16.581 -0.2381  0.2170  0.2048
15939TIP3    H169308   2.796   5.165  16.508 -0.0387 -1.8715  0.7174
15939TIP3    H269309   2.791   5.210  16.653  0.0097 -0.3612  0.2670
15940TIP3   OH269310   1.062   4.787   0.232 -0.5000 -0.1657  0.1712
15940TIP3    H169311   1.005   4.757   0.161  0.4966  1.2272 -1.2847
15940TIP3    H269312   1.071   4.711   0.289 -3.9799 -0.3762  0.6457
15941TIP3   OH269313   3.002   3.721  11.242  0.2901 -0.7229 -0.6667
15941TIP3    H169314   3.041   3.765  11.166  1.0767 -2.3131 -1.2325
15941TIP3    H269315   3.066   3.734  11.312  0.1662 -0.3531 -0.6162
15942TIP3   OH269316   2.013   0.862  14.421 -0.1000  0.0970  0.3207
15942TIP3    H169317   1.933   0.814  14.446 -0.4598  1.2547  1.5090
15942TIP3    H269318   1.985   0.953  14.414  1.0803  0.4864  0.5411
15943TIP3   OH269319   6.329   4.639   2.110  0.0656 -0.1635 -0.0290
15943TIP3    H169320   6.399   4.608   2.167  1.3080 -0.2929 -1.5781
15943TIP3    H269321   6.274   4.693   2.167  1.3490 -0.1645  1.2514
15944TIP3   OH269322   5.746   4.216  16.486  0.2367  0.2881 -0.0129
15944TIP3    H169323   5.697   4.258  16.556 -0.9031  1.7697 -1.6100
15944TIP3    H269324   5.804   4.285  16.453  0.5705 -0.3039 -0.6822
15945TIP3   OH269325   6.023   0.815   5.618  0.1009 -0.2812  0.3792
15945TIP3    H169326   6.096   0.866   5.582  1.7653 -2.0828  1.0285
15945TIP3    H269327   6.012   0.742   5.557  1.3953 -2.0727  2.1795
15946TIP3   OH269328   4.039   2.052  16.906  0.5157  0.1611 -0.3021
15946TIP3    H169329   4.032   2.007  16.821 -0.3196 -1.1852  0.4255
15946TIP3    H269330   3.959   2.105  16.911  0.0071 -0.6177  0.0835
15947TIP3   OH269331   5.095   3.410   0.380 -0.6493  0.5613  0.3573
15947TIP3    H169332   5.022   3.348   0.383  0.6026 -0.9869  0.2826
15947TIP3    H269333   5.086   3.461   0.461 -1.8628  0.4788  0.2896
15948TIP3   OH269334   4.646   3.271  10.875  0.4736 -1.0706 -0.0663
15948TIP3    H169335   4.721   3.236  10.828  0.2289 -0.3915 -0.9898
15948TIP3    H269336   4.615   3.343  10.821  0.6923  0.3081  1.5398
15949TIP3   OH269337   6.029   5.097   2.824  1.0862  0.4343 -0.2984
15949TIP3    H169338   5.952   5.149   2.800 -0.9624 -2.9974 -2.0060
15949TIP3    H269339   6.093   5.117   2.756 -0.3705 -0.5102 -2.0608
15950TIP3   OH269340   2.012   4.412   5.916 -0.1501  0.4533  0.5676
15950TIP3    H169341   1.995   4.448   6.003  1.1465 -0.0106  1.0477
15950TIP3    H269342   2.106   4.392   5.917 -0.1636  0.2246 -0.8619
15951TIP3   OH269343   6.362   3.836   5.214  0.2684  0.1738 -0.2507
15951TIP3    H169344   6.350   3.752   5.257  0.6827 -0.2886 -1.0222
15951TIP3    H269345   6.406   3.815   5.132  0.9015  1.1975 -0.1952
15952TIP3   OH269346   5.890   4.742  15.522 -0.2578  0.0082  0.0481
15952TIP3    H169347   5.801   4.723  15.551  0.0723  0.0714  1.1572
15952TIP3    H269348   5.902   4.835  15.538  0.7537 -0.4176  2.1242
15953TIP3   OH269349   1.161   1.525   4.248 -0.1031 -0.5112 -0.0480
15953TIP3    H169350   1.232   1.468   4.277  0.5089 -1.1496 -2.5371
15953TIP3    H269351   1.114   1.472   4.183 -1.1127  0.9096 -0.5216
15954TIP3   OH269352   0.852   1.060  11.278  0.3908  0.4978  0.5266
15954TIP3    H169353   0.926   1.035  11.334  1.7437  1.6088 -0.6746
15954TIP3    H269354   0.805   1.126  11.329  1.0101  0.7470  0.7881
15955TIP3   OH269355   6.069   6.684   1.034  0.3618  0.5668  0.2994
15955TIP3    H169356   6.059   6.770   0.992  1.4121  0.3431 -0.4573
15955TIP3    H269357   6.141   6.643   0.986  0.0700 -0.6200  0.8596
15956TIP3   OH269358   3.007   2.282  15.068  0.2875  0.7327 -0.2086
15956TIP3    H169359   3.006   2.378  15.060  2.0403  0.8299  0.2368
15956TIP3    H269360   3.100   2.260  15.073  0.1650 -1.3342 -3.9157
15957TIP3   OH269361   3.675   6.329   3.721  0.6594 -0.3831  0.0192
15957TIP3    H169362   3.680   6.420   3.751 -1.1094 -0.5662  0.9643
15957TIP3    H269363   3.584   6.318   3.693  0.8031 -1.9115  0.0841
15958TIP3   OH269364   3.458   1.600   1.854  0.7712  0.2234  0.6907
15958TIP3    H169365   3.488   1.617   1.943  0.7526  2.5212  0.3439
15958TIP3    H269366   3.365   1.625   1.855  0.3791 -1.1452  0.3607
15959TIP3   OH269367   1.603   3.460  14.376  0.3337  0.0331  0.2856
15959TIP3    H169368   1.688   3.416  14.371  0.9328  1.2875 -1.3523
15959TIP3    H269369   1.621   3.550  14.349 -1.2243  0.7943  1.5855
15960TIP3   OH269370   0.714   5.462  16.874  0.1613  0.1768 -0.0789
15960TIP3    H169371   0.770   5.430  16.804 -2.3953  0.4507 -2.4196
15960TIP3    H269372   0.693   5.383  16.925  0.2093 -0.4743 -1.0414
15961TIP3   OH269373   4.545   6.785  13.745  0.2365  0.4062  0.2267
15961TIP3    H169374   4.511   6.870  13.719 -0.4120  0.1048  0.0708
15961TIP3    H269375   4.632   6.780  13.706  0.8321  1.5513  1.3480
15962TIP3   OH269376   0.528   1.398   0.181  0.0569 -0.0150  0.1524
15962TIP3    H169377   0.615   1.424   0.151  0.5534 -1.9128 -0.1861
15962TIP3    H269378   0.532   1.408   0.276  0.1828  1.1710  0.0319
15963TIP3   OH269379   3.824   3.272  14.605 -0.4043 -0.7584 -0.3799
15963TIP3    H169380   3.795   3.363  14.609 -2.0872 -1.3101  0.8937
15963TIP3    H269381   3.907   3.276  14.557  0.0032  1.5484  0.3731
15964TIP3   OH269382   5.176   3.596  13.843 -0.3872 -0.3775  0.1859
15964TIP3    H169383   5.082   3.610  13.837 -0.0164  2.8619  0.0809
15964TIP3    H269384   5.207   3.597  13.753 -0.2244 -1.6297  0.2063
15965TIP3   OH269385   5.681   1.541  15.385 -0.2538  0.3072  0.1745
15965TIP3    H169386   5.685   1.454  15.426  1.0164  0.0807 -0.3917
15965TIP3    H269387   5.763   1.582  15.409 -1.2441  1.7627  1.2559
15966TIP3   OH269388   3.316   5.099   2.707 -0.3412  0.0849 -0.0768
15966TIP3    H169389   3.404   5.119   2.675 -0.7490  0.0114 -1.2818
15966TIP3    H269390   3.260   5.163   2.664 -0.9139  0.0074  0.5374
15967TIP3   OH269391   5.819   5.290   2.848 -0.6500  0.6535 -0.4317
15967TIP3    H169392   5.879   5.365   2.853  0.2827  0.0365 -1.6691
15967TIP3    H269393   5.793   5.287   2.756 -0.2076 -0.8682 -0.5387
15968TIP3   OH269394   5.493   1.194  12.785 -0.2303  0.1321  0.7132
15968TIP3    H169395   5.466   1.152  12.704  1.5002 -0.2919  0.3143
15968TIP3    H269396   5.570   1.145  12.813  0.3154  1.4338  1.6049
15969TIP3   OH269397   4.318   2.381  13.316 -0.9180 -0.5033  0.3703
15969TIP3    H169398   4.304   2.380  13.410 -2.2075  0.6225  0.2114
15969TIP3    H269399   4.394   2.323  13.302 -1.6812 -1.9449  1.9195
15970TIP3   OH269400   4.236   6.135  13.461  0.0813  1.1287 -0.5336
15970TIP3    H169401   4.147   6.106  13.481  0.6471 -0.1858  0.2194
15970TIP3    H269402   4.284   6.055  13.442  1.6924  1.4999  1.5616
15971TIP3   OH269403   4.310   6.722  14.681 -0.1034  0.3620 -0.0537
15971TIP3    H169404   4.366   6.748  14.608  0.3553  0.2157  0.2392
15971TIP3    H269405   4.355   6.646  14.720 -0.2655  0.5245  0.4637
15972TIP3   OH269406   2.781   0.832  12.463 -0.1636  0.8383 -0.5005
15972TIP3    H169407   2.824   0.802  12.383 -0.7128 -1.2192 -0.0662
15972TIP3    H269408   2.694   0.793  12.460  0.3554 -0.7205  1.8665
15973TIP3   OH269409   5.480   2.335  10.522 -0.1701 -0.0968  0.6848
15973TIP3    H169410   5.535   2.342  10.599 -0.4161 -0.4824  0.9037
15973TIP3    H269411   5.481   2.422  10.483  2.3013 -0.5812 -0.5087
15974TIP3   OH269412   6.039   1.539   0.260 -0.4261 -0.3116 -0.1555
15974TIP3    H169413   6.047   1.634   0.270 -1.1531 -0.2515 -0.1061
15974TIP3    H269414   6.040   1.506   0.350  1.1563 -0.4850 -0.1961
15975TIP3   OH269415   6.084   1.530   3.275  0.7774 -0.2062 -0.0928
15975TIP3    H169416   6.126   1.611   3.304  0.7821  0.3464 -1.5722
15975TIP3    H269417   6.018   1.513   3.342  0.7337  1.0533  0.2194
15976TIP3   OH269418   5.593   5.659  11.315  0.1556 -0.0070  0.2610
15976TIP3    H169419   5.686   5.677  11.327  0.3692 -1.5825  1.2045
15976TIP3    H269420   5.578   5.671  11.221  1.6336 -1.1265 -0.1458
15977TIP3   OH269421   6.799   2.713  16.179 -0.1059 -0.0514 -0.1010
15977TIP3    H169422   6.732   2.669  16.126  0.3421 -0.9547  0.0508
15977TIP3    H269423   6.851   2.762  16.116  1.8759 -2.9648 -0.9379
15978TIP3   OH269424   3.463   4.009   0.019 -0.3899  0.0116 -0.4959
15978TIP3    H169425   3.458   4.001   0.114  1.1566  0.5860 -0.3479
15978TIP3    H269426   3.516   3.934  -0.009  0.0527  0.4260 -0.7860
15979TIP3   OH269427   1.605   4.105  13.018 -0.4700  0.3903 -0.5940
15979TIP3    H169428   1.670   4.146  12.961  0.8668  0.9225  1.2180
15979TIP3    H269429   1.521   4.121  12.974  0.4174  1.5017 -1.9757
15980TIP3   OH269430   3.017   5.661   0.429 -0.0691 -0.0413 -0.0768
15980TIP3    H169431   3.060   5.692   0.349 -0.9645 -2.5754 -1.6591
15980TIP3    H269432   2.939   5.716   0.436 -0.0151  0.1836 -1.0013
15981TIP3   OH269433   5.972   3.810   4.046 -0.0546  0.6298 -0.0415
15981TIP3    H169434   5.981   3.723   4.008 -1.5336 -0.2789  1.5588
15981TIP3    H269435   6.059   3.830   4.082 -0.1186 -0.9568  1.0860
15982TIP3   OH269436   2.740   3.895   1.226  0.2638  0.0507 -0.0665
15982TIP3    H169437   2.799   3.882   1.300  1.9598 -1.1684 -1.5723
15982TIP3    H269438   2.684   3.817   1.226 -1.0513  0.9316  1.0008
15983TIP3   OH269439   4.697   0.667   0.808  0.0571 -0.3371 -0.3331
15983TIP3    H169440   4.767   0.699   0.751  0.6812 -1.3896 -0.1881
15983TIP3    H269441   4.742   0.642   0.889 -0.0948 -2.9755 -0.9502
15984TIP3   OH269442   4.372   5.053  15.470  0.3158 -0.2285 -0.1854
15984TIP3    H169443   4.280   5.030  15.455  0.5629  0.0669 -2.6519
15984TIP3    H269444   4.383   5.051  15.565 -2.2959  0.0144  0.1767
15985TIP3   OH269445   4.257   2.949   0.195  0.7906 -0.6774 -0.4074
15985TIP3    H169446   4.311   2.978   0.121  0.5811  0.2248 -0.2221
15985TIP3    H269447   4.203   2.879   0.159  0.5568 -0.1188 -1.1751
15986TIP3   OH269448   6.105   2.046  10.844 -0.1583  0.5780  0.5968
15986TIP3    H169449   6.184   1.993  10.852 -0.3233 -0.2407 -2.0967
15986TIP3    H269450   6.135   2.136  10.861  0.7070  0.0035  2.4141
15987TIP3   OH269451   1.809   4.831   0.004 -0.5085  0.0849  0.1550
15987TIP3    H169452   1.822   4.806   0.095  0.1771 -0.5789 -0.1099
15987TIP3    H269453   1.858   4.765  -0.046  0.2321  1.2077 -0.6325
15988TIP3   OH269454   1.921   3.418  13.653 -0.4375 -0.0157 -0.2051
15988TIP3    H169455   1.955   3.359  13.585 -0.5363 -1.4424  0.9295
15988TIP3    H269456   1.834   3.384  13.673 -0.9980  1.2673 -0.3582
15989TIP3   OH269457   1.688   4.669  16.796  0.2233 -0.0786  0.1513
15989TIP3    H169458   1.670   4.575  16.785 -0.2375 -0.1107  1.0838
15989TIP3    H269459   1.602   4.710  16.792  0.4869  0.3887 -0.9323
15990TIP3   OH269460   3.761   5.302  13.672  0.3802  0.5035  0.2430
15990TIP3    H169461   3.782   5.296  13.765  0.7540  1.0030  0.1967
15990TIP3    H269462   3.818   5.237  13.630  0.4629  0.5204  0.3289
15991TIP3   OH269463   6.128   3.866   4.937  0.1212  0.5732 -0.5773
15991TIP3    H169464   6.037   3.894   4.949 -0.2071  0.1193 -1.7786
15991TIP3    H269465   6.121   3.777   4.904  1.0344  0.3148 -0.1029
15992TIP3   OH269466   6.647   3.030  15.448 -0.6102  0.2233  0.4158
15992TIP3    H169467   6.665   2.940  15.421  0.3797  0.3505  0.6427
15992TIP3    H269468   6.731   3.075  15.443 -1.0978  1.1463  0.2894
15993TIP3   OH269469   1.560   2.957   3.924 -0.0626  1.0753  0.8246
15993TIP3    H169470   1.498   2.884   3.936  0.6553  0.5723  1.5533
15993TIP3    H269471   1.621   2.949   3.997  1.7170  0.7289 -0.6312
15994TIP3   OH269472   5.676   4.282   4.333  0.1523 -0.6979  0.5962
15994TIP3    H169473   5.670   4.365   4.285 -1.0827 -0.9843  0.2172
15994TIP3    H269474   5.615   4.292   4.406 -0.0806 -1.3095  0.4890
15995TIP3   OH269475   1.715   0.737   0.916  0.2576  0.3168  0.6394
15995TIP3    H169476   1.636   0.771   0.874 -1.7783 -2.3421  1.9885
15995TIP3    H269477   1.702   0.754   1.009  0.7852 -0.9918  0.9798
15996TIP3   OH269478   1.973   6.696   0.054 -0.2917  0.0056 -0.1626
15996TIP3    H169479   1.989   6.660   0.142 -0.4572  1.5019  0.5147
15996TIP3    H269480   2.010   6.631  -0.006  1.8505 -0.0112  1.0765
15997TIP3   OH269481   2.331   3.563   2.751 -0.1002  0.4840 -0.1592
15997TIP3    H169482   2.342   3.472   2.778  0.0432  0.9046  1.2923
15997TIP3    H269483   2.326   3.560   2.655 -1.8700 -1.2224 -0.0564
15998TIP3   OH269484   3.161   6.519   5.614  0.1031 -0.4377 -0.1578
15998TIP3    H169485   3.066   6.532   5.623 -0.0805 -1.4605 -0.5402
15998TIP3    H269486   3.186   6.472   5.693  0.2536 -0.3831 -0.1726
15999TIP3   OH269487   5.807   1.301  14.109  0.1798 -0.2494  0.1704
15999TIP3    H169488   5.860   1.272  14.183  0.2546  0.7221  0.5040
15999TIP3    H269489   5.717   1.284  14.137  0.1708  0.7191  0.7614
16000TIP3   OH269490   5.040   5.010   6.770  0.2783  0.2473  0.3985
16000TIP3    H169491   5.111   4.947   6.779 -0.0163  0.0113  1.1587
16000TIP3    H269492   5.080   5.085   6.725  0.5859 -0.5263 -0.6451
16001TIP3   OH269493   3.830   0.659  14.381  0.2631  0.6695 -0.1187
16001TIP3    H169494   3.911   0.644  14.429 -0.3596 -0.9159  0.5214
16001TIP3    H269495   3.785   0.728  14.429  0.3298  0.1358  0.7313
16002TIP3   OH269496   4.732   3.798  11.203 -0.4173 -0.2847 -0.4221
16002TIP3    H169497   4.665   3.809  11.136 -0.0467 -0.1925 -0.7767
16002TIP3    H269498   4.779   3.882  11.204  1.2148 -1.1418 -1.8166
16003TIP3   OH269499   6.676   6.099   1.820  0.0283  0.2027  0.1790
16003TIP3    H169500   6.682   6.128   1.911  2.2020 -1.3642  0.6064
16003TIP3    H269501   6.756   6.132   1.778 -1.1952  1.3907 -1.3745
16004TIP3   OH269502   3.427   6.009  14.249  0.4722 -0.2762  0.2981
16004TIP3    H169503   3.350   5.986  14.197  0.1253  1.1275  0.1434
16004TIP3    H269504   3.482   5.931  14.246  0.8510 -0.0171 -2.8649
16005TIP3   OH269505   3.957   3.522  13.407  0.4924  0.0395  0.6930
16005TIP3    H169506   3.888   3.548  13.347  1.0634  0.6941  0.3034
16005TIP3    H269507   4.022   3.592  13.401  1.9447 -1.3280 -0.1498
16006TIP3   OH269508   4.977   2.186  12.969  0.0704 -0.0417  0.1906
16006TIP3    H169509   4.959   2.273  13.005 -0.2949  0.6570 -1.5632
16006TIP3    H269510   5.069   2.189  12.946  0.0715 -0.1466  0.1841
16007TIP3   OH269511   3.547   4.556   3.190 -0.6234  0.3584  0.0630
16007TIP3    H169512   3.548   4.471   3.234 -1.1862 -0.4452 -1.4227
16007TIP3    H269513   3.638   4.571   3.165 -0.7115 -0.4026 -0.7503
16008TIP3   OH269514   3.205   2.747  13.205 -0.2708  0.0577 -0.2530
16008TIP3    H169515   3.118   2.729  13.241  0.3451 -1.1198  0.7108
16008TIP3    H269516   3.265   2.702  13.264  0.9852  0.6362 -1.0549
16009TIP3   OH269517   2.699   2.808   4.632 -0.0214  0.2302 -0.0447
16009TIP3    H169518   2.710   2.785   4.539  1.3641 -1.4611  0.4812
16009TIP3    H269519   2.605   2.806   4.647 -0.2139 -0.2028 -1.2394
16010TIP3   OH269520   5.830   0.916  14.165  0.0198  0.7455  0.2523
16010TIP3    H169521   5.833   0.897  14.259 -0.7333  1.9688  0.5388
16010TIP3    H269522   5.915   0.954  14.145  0.8028 -1.0125  0.0763
16011TIP3   OH269523   3.582   4.003  13.222 -0.7457 -0.3218  0.8919
16011TIP3    H169524   3.558   4.092  13.199  1.7916  0.3800  0.6974
16011TIP3    H269525   3.648   4.012  13.291 -0.0410 -2.0052  0.5054
16012TIP3   OH269526   0.993   6.222  15.633 -0.0312 -0.1132 -0.1807
16012TIP3    H169527   1.073   6.244  15.585  0.1619 -0.0631  0.1594
16012TIP3    H269528   1.008   6.134  15.666 -0.6686 -0.6558 -1.2528
16013TIP3   OH269529   0.170   4.454  15.395 -0.2262 -0.1931  0.2395
16013TIP3    H169530   0.195   4.430  15.306  1.7139  0.0628  0.6528
16013TIP3    H269531   0.094   4.400  15.414  0.8392 -2.1434 -0.7167
16014TIP3   OH269532   6.636   1.929   4.281 -0.0745  0.2267  0.2133
16014TIP3    H169533   6.696   1.903   4.352  2.8663  0.5065 -1.9867
16014TIP3    H269534   6.648   2.023   4.273 -1.4226  0.4106  0.1979
16015TIP3   OH269535   5.337   1.086   4.891 -0.4238 -0.4186  0.8114
16015TIP3    H169536   5.299   1.004   4.860 -0.4582 -0.0587 -0.1374
16015TIP3    H269537   5.375   1.126   4.813 -0.8775  0.7244  1.1553
16016TIP3   OH269538   5.229   1.663   3.276 -0.1250  0.0159 -0.2745
16016TIP3    H169539   5.149   1.614   3.258 -0.4809  0.6451 -0.4354
16016TIP3    H269540   5.289   1.598   3.313 -1.5263  0.0138  2.1970
16017TIP3   OH269541   5.685   2.456   0.819  0.0257 -0.1352 -0.2101
16017TIP3    H169542   5.617   2.472   0.884  1.3400  1.2345  0.9314
16017TIP3    H269543   5.671   2.523   0.752 -0.0859 -0.1905 -0.2405
16018TIP3   OH269544   4.370   1.073   1.188  0.0276  0.3464  0.3007
16018TIP3    H169545   4.300   1.138   1.193  0.0456  0.3642  0.3219
16018TIP3    H269546   4.359   1.032   1.102  1.0354  1.5363 -0.4377
16019TIP3   OH269547   6.480   2.707   1.029 -0.4932 -0.0428 -0.2340
16019TIP3    H169548   6.517   2.732   1.114  0.0903  0.2200 -0.5581
16019TIP3    H269549   6.412   2.772   1.013 -1.2259 -0.6318  0.4495
16020TIP3   OH269550   6.581   1.344   3.108 -0.3226  1.0341 -0.6632
16020TIP3    H169551   6.608   1.263   3.152  3.2181  1.6585 -1.3606
16020TIP3    H269552   6.486   1.335   3.098 -0.3034 -2.2958  0.6805
16021TIP3   OH269553   0.340   3.018   3.741 -0.1755 -0.6894  0.5242
16021TIP3    H169554   0.410   3.010   3.806  0.6915 -1.3045 -0.4452
16021TIP3    H269555   0.259   3.015   3.792  0.4930 -0.1463  1.6573
16022TIP3   OH269556   3.041   6.347  11.268 -0.1337  0.1232  0.1869
16022TIP3    H169557   3.029   6.439  11.247  0.4718  0.3696  0.8974
16022TIP3    H269558   2.982   6.331  11.342 -0.0031  0.0212  0.2700
16023TIP3   OH269559   2.183   1.557  16.406 -0.2703 -0.1612  0.2966
16023TIP3    H169560   2.219   1.638  16.442  2.3815 -0.4102 -1.5104
16023TIP3    H269561   2.167   1.576  16.314  0.8597 -1.7553 -0.2808
16024TIP3   OH269562   0.710   0.382  13.313  0.1005  0.1951 -0.6988
16024TIP3    H169563   0.650   0.453  13.332  0.8138  1.5436 -3.1201
16024TIP3    H269564   0.655   0.313  13.275 -0.0454  1.1856 -2.3482
16025TIP3   OH269565   0.487   5.800   1.700  0.1585  0.1229  0.3627
16025TIP3    H169566   0.560   5.844   1.744 -0.6656  0.1534  1.7591
16025TIP3    H269567   0.422   5.869   1.686  0.1167 -0.0387 -0.2547
16026TIP3   OH269568   4.193   6.697  10.847  0.3925  0.2575  0.7186
16026TIP3    H169569   4.144   6.652  10.778  1.6969 -0.3423  0.1544
16026TIP3    H269570   4.200   6.788  10.817 -1.0650  0.5711  1.2137
16027TIP3   OH269571   3.421   0.404  11.311 -0.3559 -0.2530  0.3079
16027TIP3    H169572   3.494   0.458  11.344 -2.5157  2.1007  1.5553
16027TIP3    H269573   3.342   0.449  11.342 -2.3992 -2.1877 -1.7667
16028TIP3   OH269574   2.061   5.079   2.115  0.0042  0.4461  0.1138
16028TIP3    H169575   2.006   5.151   2.144  0.3781  0.2389  1.4187
16028TIP3    H269576   2.027   5.003   2.162 -1.4137 -0.5976 -2.4318
16029TIP3   OH269577   1.945   0.909   1.886 -0.1248 -0.0970  0.4661
16029TIP3    H169578   1.960   0.954   1.803  0.2224  0.6430  0.9048
16029TIP3    H269579   1.865   0.859   1.874 -0.1421  0.1065 -0.2702
16030TIP3   OH269580   4.058   5.295   5.589  0.0855 -0.6500  0.1578
16030TIP3    H169581   3.985   5.315   5.648  1.0596 -0.9857  1.5201
16030TIP3    H269582   4.049   5.202   5.569  0.5950 -0.8825  0.9872
16031TIP3   OH269583   4.424   6.399  15.684  0.0920 -0.0138 -0.3222
16031TIP3    H169584   4.497   6.453  15.715 -1.0043  1.2438  0.1415
16031TIP3    H269585   4.396   6.349  15.761  0.1762 -0.1850 -0.3995
16032TIP3   OH269586   2.617   4.758  17.148 -0.2275  0.2704 -0.3848
16032TIP3    H169587   2.542   4.813  17.124 -0.4475  0.2506  0.2449
16032TIP3    H269588   2.580   4.690  17.204  0.2880  0.3526  0.0556
16033TIP3   OH269589   4.900   5.756  14.396 -0.1768 -0.1308 -0.1409
16033TIP3    H169590   4.947   5.682  14.357  0.2450  0.1364 -0.1435
16033TIP3    H269591   4.904   5.825  14.330 -0.4053 -0.0398 -0.0624
16034TIP3   OH269592   4.139   0.086   5.038  0.2792  0.0388 -0.1637
16034TIP3    H169593   4.050   0.090   5.003  0.7040 -1.3582 -1.5322
16034TIP3    H269594   4.128   0.093   5.133 -1.1125  1.7495 -0.4000
16035TIP3   OH269595   1.454   2.511  13.246 -0.5827  0.2352 -0.0155
16035TIP3    H169596   1.391   2.479  13.311 -1.1272  1.2241 -0.0412
16035TIP3    H269597   1.519   2.559  13.296  0.2208 -0.8284  0.0164
16036TIP3   OH269598   4.908   2.176  15.659 -0.4288  0.0959  0.1012
16036TIP3    H169599   4.829   2.221  15.632  0.1450  1.2879  0.3475
16036TIP3    H269600   4.877   2.105  15.715 -1.2991  0.7788  0.5109
16037TIP3   OH269601   2.536   2.713  15.858  0.5176 -0.1440 -0.3356
16037TIP3    H169602   2.509   2.805  15.857 -0.1750 -0.3366 -2.1091
16037TIP3    H269603   2.597   2.705  15.785  1.3609 -0.8997  0.4210
16038TIP3   OH269604   5.516   0.042   6.377 -0.1699 -0.4690 -0.0606
16038TIP3    H169605   5.503   0.134   6.399 -0.9626 -0.0621 -2.0826
16038TIP3    H269606   5.429   0.003   6.381 -0.2175 -0.5630 -1.5555
16039TIP3   OH269607   1.408   3.921   2.629  0.0615 -0.2989 -0.4528
16039TIP3    H169608   1.457   3.840   2.647  0.4876 -0.0805 -0.6355
16039TIP3    H269609   1.474   3.989   2.625 -0.3238  0.1059 -0.0557
16040TIP3   OH269610   4.950   4.742   2.064  0.6207 -0.5556 -0.0964
16040TIP3    H169611   5.031   4.724   2.111 -0.0264 -1.7199  0.6176
16040TIP3    H269612   4.924   4.829   2.093  1.2057 -0.4896  0.2576
16041TIP3   OH269613   6.260   3.275   2.647 -0.2043  0.1358  1.2072
16041TIP3    H169614   6.347   3.314   2.641 -0.1907 -0.0438 -0.2067
16041TIP3    H269615   6.236   3.284   2.739  1.3954 -0.0118  1.6800
16042TIP3   OH269616   4.188   3.328  10.599 -0.2584 -0.3258 -0.1219
16042TIP3    H169617   4.241   3.408  10.603 -0.7935  0.0290 -0.1066
16042TIP3    H269618   4.108   3.349  10.646  0.4032 -1.5065  1.6663
16043TIP3   OH269619   5.815   4.476  16.192  0.2690  0.7500  0.4343
16043TIP3    H169620   5.720   4.482  16.188  0.3402  1.1502 -1.6541
16043TIP3    H269621   5.834   4.383  16.197 -0.2174  0.7090  2.9869
16044TIP3   OH269622   4.176   0.394   5.339 -0.2039  0.0443 -0.0758
16044TIP3    H169623   4.135   0.330   5.397  0.3082 -1.4575 -1.2776
16044TIP3    H269624   4.269   0.371   5.341 -0.1311  0.1723 -1.1797
16045TIP3   OH269625   2.404   4.694   4.847  0.2254 -0.5416  0.4269
16045TIP3    H169626   2.373   4.731   4.764  0.2646  0.1539  0.7144
16045TIP3    H269627   2.324   4.680   4.898  0.3727  2.0421  1.4946
16046TIP3   OH269628   3.677   0.674  16.354  0.2072 -1.0948 -0.6390
16046TIP3    H169629   3.599   0.710  16.397  0.2696 -0.3842 -1.0977
16046TIP3    H269630   3.644   0.638  16.272  0.1202 -2.2667 -0.1027
16047TIP3   OH269631   1.070   2.958   0.966 -0.0972 -0.5052  0.1886
16047TIP3    H169632   1.004   2.907   1.012 -2.4443  1.7036 -0.5405
16047TIP3    H269633   1.022   3.008   0.901  2.3043  1.1650 -0.4595
16048TIP3   OH269634   1.553   2.525   1.030 -0.4216 -0.0627  0.0386
16048TIP3    H169635   1.459   2.520   1.013 -0.0528 -0.1389 -2.3421
16048TIP3    H269636   1.581   2.433   1.036 -0.1898 -0.0965 -1.3788
16049TIP3   OH269637   5.617   4.975   6.226 -0.0489 -0.1191  0.1081
16049TIP3    H169638   5.663   4.988   6.142 -0.5333 -2.3834 -0.5756
16049TIP3    H269639   5.610   4.880   6.234  0.8739 -0.0254  3.2534
16050TIP3   OH269640   0.254   6.064   4.535 -0.1487 -0.1930 -0.2317
16050TIP3    H169641   0.193   6.059   4.461  0.0917 -1.0388 -0.3733
16050TIP3    H269642   0.298   5.979   4.536  0.6036  0.1946  0.2399
16051TIP3   OH269643   2.141   2.028   4.587 -0.3609  0.1780  0.1893
16051TIP3    H169644   2.172   2.088   4.519 -0.7609 -1.4242 -1.4771
16051TIP3    H269645   2.196   1.950   4.577 -2.2355 -1.1593 -0.1645
16052TIP3   OH269646   1.199   4.411  14.033  0.6507  0.3519  0.2606
16052TIP3    H169647   1.203   4.339  13.970 -0.7110  1.1639 -0.8129
16052TIP3    H269648   1.242   4.484  13.988  1.2292  0.4664  0.9852
16053TIP3   OH269649   2.876   4.238  14.011  0.2453 -0.0208 -0.1223
16053TIP3    H169650   2.914   4.323  13.990 -0.5545 -0.1678 -2.3936
16053TIP3    H269651   2.932   4.203  14.080  1.3477  1.7906 -0.0499
16054TIP3   OH269652   3.628   4.970  11.398 -0.0808  0.2234 -0.0766
16054TIP3    H169653   3.680   4.903  11.442 -0.9297 -0.3003  0.1434
16054TIP3    H269654   3.592   4.926  11.321  0.5946  0.8573 -0.7740
16055TIP3   OH269655   6.401   5.358   5.420  0.3833 -0.2113 -0.2352
16055TIP3    H169656   6.432   5.268   5.429  0.4223 -0.1018  0.7603
16055TIP3    H269657   6.374   5.365   5.328  1.6523 -0.8263 -0.6713
16056TIP3   OH269658   5.552   5.668  12.698  0.2135 -0.1339 -0.5720
16056TIP3    H169659   5.505   5.678  12.615  0.3089 -0.0365 -0.6139
16056TIP3    H269660   5.501   5.602  12.746 -0.6093  0.7716 -0.1598
16057TIP3   OH269661   6.543   1.741  12.811  0.4949  0.2442 -0.3774
16057TIP3    H169662   6.542   1.751  12.906 -2.3509 -0.0435 -0.2998
16057TIP3    H269663   6.531   1.648  12.796 -0.2256  0.4262 -0.9969
16058TIP3   OH269664   0.093   2.872   0.348 -0.1397 -0.1184  0.4062
16058TIP3    H169665   0.128   2.959   0.326  0.0727  0.2168  1.9400
16058TIP3    H269666   0.004   2.888   0.377 -0.3337 -0.5113  0.0400
16059TIP3   OH269667   2.944   2.140  14.844 -0.6882  0.0047 -0.7645
16059TIP3    H169668   2.979   2.185  14.922 -1.3337 -0.2870 -0.3016
16059TIP3    H269669   2.996   2.175  14.772  0.8757 -0.7390 -0.0457
16060TIP3   OH269670   3.288   2.629   3.585 -0.2028  0.6045 -0.0786
16060TIP3    H169671   3.315   2.558   3.527 -0.5277  0.1421  0.3284
16060TIP3    H269672   3.197   2.647   3.561 -0.5754 -0.0805  0.7550
16061TIP3   OH269673   0.894   0.089   0.908 -0.6506 -0.2321 -0.6328
16061TIP3    H169674   0.800   0.089   0.926 -0.3346 -0.0085  1.2702
16061TIP3    H269675   0.923   0.001   0.932 -0.0047  0.4495  1.3021
16062TIP3   OH269676   1.579   0.254   5.488  0.0549  0.0707 -0.3513
16062TIP3    H169677   1.639   0.239   5.414 -0.7957 -1.0976 -0.8405
16062TIP3    H269678   1.637   0.265   5.563  0.9565 -2.6373 -0.5136
16063TIP3   OH269679   2.577   5.744  14.564 -0.2501 -0.3945 -0.3163
16063TIP3    H169680   2.495   5.707  14.530 -0.8692  0.9891 -0.3957
16063TIP3    H269681   2.571   5.731  14.658 -1.2757  1.0052 -0.1558
16064TIP3   OH269682   3.353   3.678  16.289 -0.0870  0.2062  0.2205
16064TIP3    H169683   3.409   3.633  16.352 -0.3656 -1.3565 -0.5755
16064TIP3    H269684   3.266   3.638  16.301 -0.4427  0.8056 -0.2706
16065TIP3   OH269685   4.834   4.316   4.041  0.3958  0.1501 -0.4622
16065TIP3    H169686   4.791   4.388   4.087 -0.5228 -0.6107 -0.0944
16065TIP3    H269687   4.926   4.324   4.064  0.2915  1.1518 -0.3605
16066TIP3   OH269688   4.909   5.449  12.317 -0.2908 -0.6947  0.3313
16066TIP3    H169689   4.877   5.454  12.407 -0.7980  2.0853  0.0928
16066TIP3    H269690   4.880   5.363  12.286 -0.6068 -1.4781  2.6074
16067TIP3   OH269691   5.522   0.850  14.215 -0.0347 -0.0822  0.0453
16067TIP3    H169692   5.614   0.830  14.235 -1.0183 -3.3008  2.0477
16067TIP3    H269693   5.503   0.799  14.137 -0.2238  0.3741 -0.2125
16068TIP3   OH269694   3.576   1.286   1.603 -0.2746 -0.0327 -0.0987
16068TIP3    H169695   3.616   1.373   1.602 -0.8873  0.2838 -2.9326
16068TIP3    H269696   3.519   1.287   1.680 -0.1101  1.9829  0.0431
16069TIP3   OH269697   6.315   1.082  14.167  0.2772 -0.1845 -0.4659
16069TIP3    H169698   6.334   1.159  14.221  1.0505 -0.3112 -0.5499
16069TIP3    H269699   6.385   1.081  14.102 -0.4043 -0.2779 -1.2142
16070TIP3   OH269700   3.768   4.012  13.451  0.3733  0.0669  0.6406
16070TIP3    H169701   3.711   3.999  13.527  0.4181  0.0150  0.6647
16070TIP3    H269702   3.800   3.925  13.429 -0.1760 -0.0096  0.1417
16071TIP3   OH269703   0.873   4.121  15.313  0.2951  0.0948 -0.0888
16071TIP3    H169704   0.859   4.030  15.289 -0.2990  0.4302 -1.0722
16071TIP3    H269705   0.799   4.143  15.369  1.2206 -0.4369  1.3880
16072TIP3   OH269706   4.687   1.564   3.323  0.2940  0.5219  0.1085
16072TIP3    H169707   4.651   1.553   3.235 -0.6383 -0.2269  0.5635
16072TIP3    H269708   4.642   1.498   3.376  1.4632  0.3834  0.9755
16073TIP3   OH269709   4.437   3.276  11.057 -0.3783  0.4207  0.0503
16073TIP3    H169710   4.521   3.261  11.015  1.2341  5.7668  0.6814
16073TIP3    H269711   4.380   3.308  10.987 -0.3433  1.2815  0.3980
16074TIP3   OH269712   5.547   6.341  15.467  0.0636 -0.2885  0.2279
16074TIP3    H169713   5.562   6.258  15.512 -1.6138 -0.9080 -0.2893
16074TIP3    H269714   5.593   6.332  15.384 -0.1275 -0.7064  0.1671
16075TIP3   OH269715   1.899   1.702   5.012 -0.3532 -0.0892 -0.0393
16075TIP3    H169716   1.928   1.793   5.017 -0.6653 -0.0355  3.8050
16075TIP3    H269717   1.977   1.651   5.035 -0.5265 -0.7445 -0.8528
16076TIP3   OH269718   4.469   5.554   2.252 -0.2125  0.3547  0.4036
16076TIP3    H169719   4.461   5.551   2.157  1.8146 -2.2820  0.2101
16076TIP3    H269720   4.387   5.594   2.281 -1.2154  0.5568 -2.3778
16077TIP3   OH269721   0.201   3.478   5.787  0.6873  0.7896 -0.3283
16077TIP3    H169722   0.214   3.481   5.882  1.1465 -1.6412 -0.2582
16077TIP3    H269723   0.244   3.558   5.755 -0.8349  2.4874  1.5771
16078TIP3   OH269724   3.932   0.600  16.035  0.2666  0.2837 -0.0928
16078TIP3    H169725   4.004   0.658  16.061  0.6954  0.3644 -1.4021
16078TIP3    H269726   3.930   0.533  16.104  1.4412  0.4095  0.0967
16079TIP3   OH269727   4.404   4.086  15.255 -0.4216 -0.5997 -0.1329
16079TIP3    H169728   4.401   4.000  15.297  0.4364  0.1034  1.4615
16079TIP3    H269729   4.332   4.134  15.295 -0.1898 -0.2137 -0.1815
16080TIP3   OH269730   3.285   6.282   5.402 -0.1215 -0.3544  0.0765
16080TIP3    H169731   3.339   6.274   5.481  1.6300 -0.9212 -1.1219
16080TIP3    H269732   3.226   6.207   5.407  0.0046 -0.4156  0.8244
16081TIP3   OH269733   4.685   2.591   5.392 -0.2947 -0.6392 -0.4595
16081TIP3    H169734   4.749   2.534   5.349 -0.9153 -2.8255  1.3009
16081TIP3    H269735   4.718   2.601   5.481 -0.7098  1.0202 -0.4653
16082TIP3   OH269736   0.258   0.810  11.686 -0.1494 -0.0204  0.4635
16082TIP3    H169737   0.193   0.749  11.653 -2.0507  2.4461 -0.6741
16082TIP3    H269738   0.253   0.886  11.628  2.2966  1.1582  1.5838
16083TIP3   OH269739   0.706   3.612  12.932 -0.3829  0.0603 -0.7720
16083TIP3    H169740   0.620   3.652  12.946 -0.4092  0.5435 -2.1396
16083TIP3    H269741   0.694   3.520  12.956 -0.0239  0.9194  3.5437
16084TIP3   OH269742   3.297   5.165   0.701 -0.2575  0.0577  0.6256
16084TIP3    H169743   3.312   5.084   0.651 -0.1395 -0.2494  1.1450
16084TIP3    H269744   3.384   5.188   0.735 -0.4836 -0.2554  1.4476
16085TIP3   OH269745   2.054   5.668  12.904 -0.5870 -0.0145  0.1209
16085TIP3    H169746   2.003   5.738  12.944  0.0634  0.3640  0.3164
16085TIP3    H269747   1.990   5.609  12.866 -1.2144 -0.0776  1.2238
16086TIP3   OH269748   3.559   0.760  15.272  0.0669  0.3949  0.2577
16086TIP3    H169749   3.546   0.740  15.180  2.0833  1.4893 -0.3251
16086TIP3    H269750   3.583   0.853  15.274 -2.1409  1.0394  2.1433
16087TIP3   OH269751   2.225   1.400  12.533 -0.2685  0.1090 -0.3135
16087TIP3    H169752   2.276   1.469  12.577 -1.1495  0.8248 -0.3816
16087TIP3    H269753   2.263   1.395  12.446 -0.1968  0.5101 -0.3078
16088TIP3   OH269754   2.898   2.085  15.688 -0.0827  0.0183 -0.2756
16088TIP3    H169755   2.875   2.052  15.602  0.1766 -1.7893  0.2910
16088TIP3    H269756   2.981   2.041  15.709  1.0007  2.0692  0.0357
16089TIP3   OH269757   3.061   1.823   4.665 -0.1569  0.1054 -0.5829
16089TIP3    H169758   3.061   1.828   4.761 -1.2612 -0.8958 -0.5076
16089TIP3    H269759   3.015   1.742   4.645  0.8193 -0.1446 -1.9578
16090TIP3   OH269760   1.783   6.699  16.155  0.1095  0.3201 -0.1576
16090TIP3    H169761   1.782   6.781  16.106 -1.6080  0.2129 -0.3669
16090TIP3    H269762   1.691   6.677  16.167  0.5194 -0.8776  1.0912
16091TIP3   OH269763   6.702   4.657  16.288 -0.5129  0.2097  0.8551
16091TIP3    H169764   6.698   4.752  16.277 -0.0252  0.2178  0.7460
16091TIP3    H269765   6.726   4.645  16.380  1.0419  0.2177  0.4637
16092TIP3   OH269766   3.302   4.101   3.932  0.0912 -0.5676  0.0645
16092TIP3    H169767   3.388   4.064   3.913  0.9558  0.6595  1.4108
16092TIP3    H269768   3.298   4.180   3.880 -0.2315 -0.6339 -0.0114
16093TIP3   OH269769   4.443   4.543  12.030  0.0840 -0.3837  0.3699
16093TIP3    H169770   4.492   4.621  12.057 -1.4396  0.2367  1.4250
16093TIP3    H269771   4.352   4.563  12.050 -0.5509 -1.7794 -0.9400
16094TIP3   OH269772   4.850   5.598  12.774 -0.4669  0.3092 -0.1525
16094TIP3    H169773   4.897   5.515  12.769  1.7019  1.4043  0.6984
16094TIP3    H269774   4.919   5.665  12.778 -2.0705  2.0065  1.6382
16095TIP3   OH269775   4.597   2.983   5.535  0.6109 -0.1413  0.1376
16095TIP3    H169776   4.621   2.897   5.568  2.7727  0.4688  0.3056
16095TIP3    H269777   4.600   2.974   5.440 -0.0204 -0.4536  0.1430
16096TIP3   OH269778   1.197   1.059   2.974 -0.8530 -0.1640 -0.2652
16096TIP3    H169779   1.236   1.146   2.976 -1.1745 -0.0247  0.3691
16096TIP3    H269780   1.269   0.999   2.990 -0.5703 -0.0399 -1.0472
16097TIP3   OH269781   2.714   2.041   3.004 -0.1881  0.0222  0.5038
16097TIP3    H169782   2.625   2.005   3.012 -0.5095 -0.4732 -3.3492
16097TIP3    H269783   2.707   2.128   3.042 -2.4127  0.0658  0.1565
16098TIP3   OH269784   0.964   4.881  17.078  0.4391 -0.4338 -0.2730
16098TIP3    H169785   1.049   4.915  17.104 -0.3278  1.1776  0.2785
16098TIP3    H269786   0.964   4.886  16.983  0.7138  0.2446 -0.2427
16099TIP3   OH269787   4.860   5.656  16.174 -0.2388  0.0255  0.0902
16099TIP3    H169788   4.813   5.704  16.242 -1.1347 -1.7958  0.8296
16099TIP3    H269789   4.945   5.635  16.213  0.0578  0.7615 -0.1447
16100TIP3   OH269790   1.015   3.725  11.527 -0.2520 -0.9598  0.2474
16100TIP3    H169791   1.019   3.679  11.611 -2.7488 -0.2791  0.8228
16100TIP3    H269792   0.923   3.747  11.517  0.3353  0.8553 -1.6744
16101TIP3   OH269793   4.776   1.811   2.003  0.2145 -0.2770  0.2206
16101TIP3    H169794   4.845   1.751   1.976  0.3815  0.7391 -1.7751
16101TIP3    H269795   4.695   1.765   1.982  0.3086 -0.5599  0.4697
16102TIP3   OH269796   3.052   6.719  13.221  0.0043  0.1366  0.8166
16102TIP3    H169797   3.129   6.761  13.183  0.0836 -0.7839 -0.0983
16102TIP3    H269798   2.984   6.729  13.154  0.5713 -2.8556 -0.3704
16103TIP3   OH269799   2.523   3.454   1.173 -0.3967 -0.2031  0.2419
16103TIP3    H169800   2.449   3.428   1.119 -0.9657 -0.6318  1.1923
16103TIP3    H269801   2.582   3.378   1.171 -0.0109  0.1090 -0.4532
16104TIP3   OH269802   6.428   2.266   3.691  0.4646 -0.6424  0.2863
16104TIP3    H169803   6.375   2.341   3.664  0.8133 -0.8388 -1.0234
16104TIP3    H269804   6.414   2.259   3.786 -0.1732  0.5953  0.3000
16105TIP3   OH269805   4.778   0.297   0.546  0.7843  0.4578  0.3567
16105TIP3    H169806   4.809   0.300   0.637 -0.9015  0.9735  0.9375
16105TIP3    H269807   4.724   0.218   0.542  0.6923  0.5419 -0.1432
16106TIP3   OH269808   0.880   3.058   4.534  0.5603  0.1192  0.3168
16106TIP3    H169809   0.838   3.007   4.604 -1.8247  1.2484 -0.1658
16106TIP3    H269810   0.943   3.113   4.580  0.1915 -0.2975  1.3687
16107TIP3   OH269811   1.717   5.811  12.441 -0.0808 -0.2493  0.2622
16107TIP3    H169812   1.648   5.792  12.376 -0.0180 -2.0798  0.7009
16107TIP3    H269813   1.777   5.870  12.395 -0.4492 -0.8935 -1.0887
16108TIP3   OH269814   1.484   4.345  14.744  0.4774 -0.1458 -0.3920
16108TIP3    H169815   1.438   4.429  14.750  1.3363  0.2678  0.9129
16108TIP3    H269816   1.517   4.342  14.654 -0.0718  0.6424 -0.6259
16109TIP3   OH269817   4.649   5.141   3.289  0.1936  0.4832 -0.1980
16109TIP3    H169818   4.654   5.236   3.300  1.7986  0.4096 -0.0360
16109TIP3    H269819   4.655   5.127   3.195  2.4110  0.4822 -0.1072
16110TIP3   OH269820   6.386   0.043   4.009  0.0871 -0.0939  0.4547
16110TIP3    H169821   6.359   0.101   4.080  1.7242  1.7229 -0.3291
16110TIP3    H269822   6.440   0.098   3.952  1.3296 -2.2686 -0.5912
16111TIP3   OH269823   0.385   6.760   1.884  0.0993 -0.3324  0.0674
16111TIP3    H169824   0.460   6.710   1.917  0.6581  0.5201  0.1294
16111TIP3    H269825   0.424   6.837   1.843 -0.7915  1.2326  1.9951
16112TIP3   OH269826   4.898   2.299  14.881 -0.0293  0.1520 -0.1445
16112TIP3    H169827   4.843   2.251  14.942  1.4174 -2.6010 -0.8514
16112TIP3    H269828   4.987   2.267  14.897  1.3066  3.5722  0.1583
16113TIP3   OH269829   2.633   0.252  12.469  0.2128  0.2409 -0.2777
16113TIP3    H169830   2.563   0.315  12.456 -1.4891 -1.2568  1.1183
16113TIP3    H269831   2.588   0.169  12.487  2.3458 -0.9486 -0.0623
16114TIP3   OH269832   5.081   0.116   1.238 -0.1924 -0.4377  0.0779
16114TIP3    H169833   5.155   0.118   1.178 -0.6266 -2.1897 -0.5999
16114TIP3    H269834   5.062   0.023   1.249 -1.9034 -0.0595  0.7003
16115TIP3   OH269835   1.236   4.968   1.548  0.4305  0.3583 -0.2987
16115TIP3    H169836   1.158   4.918   1.573  1.2728 -0.8404  0.0013
16115TIP3    H269837   1.215   5.058   1.573 -0.6874 -0.0136  0.1838
16116TIP3   OH269838   0.881   0.763   6.709  1.3361 -0.3271  0.6510
16116TIP3    H169839   0.790   0.784   6.688  1.1800 -2.5514 -1.1817
16116TIP3    H269840   0.915   0.844   6.748 -1.2468  0.7367  0.9163
16117TIP3   OH269841   1.566   5.761   2.478 -0.4867 -0.7488 -0.5295
16117TIP3    H169842   1.614   5.746   2.396  0.9484  0.6811  0.0036
16117TIP3    H269843   1.540   5.853   2.473  1.1329 -0.1390  1.3546
16118TIP3   OH269844   3.660   3.162   3.355  0.0762  0.0999 -0.1387
16118TIP3    H169845   3.610   3.137   3.432 -2.2734  0.0256 -1.5758
16118TIP3    H269846   3.688   3.079   3.316 -2.3191 -0.1746 -1.5071
16119TIP3   OH269847   6.651   4.108  16.904 -0.3013 -0.0607 -0.0040
16119TIP3    H169848   6.687   4.055  16.833  3.0093 -0.6235  1.8885
16119TIP3    H269849   6.601   4.047  16.958 -0.6113 -0.1879 -0.4368
16120TIP3   OH269850   6.656   4.230   2.483 -0.2285  0.4223 -0.3379
16120TIP3    H169851   6.588   4.233   2.550  0.9649  0.8730  0.9002
16120TIP3    H269852   6.636   4.152   2.432 -0.5894 -0.5187  1.1745
16121TIP3   OH269853   2.998   3.064  14.060  0.4507 -0.6840  0.2223
16121TIP3    H169854   2.917   3.055  14.010  0.6011  1.2532 -0.4358
16121TIP3    H269855   2.971   3.103  14.142  0.8148  1.0550 -0.4498
16122TIP3   OH269856   5.642   3.865   0.616 -0.2190 -0.1208  0.2104
16122TIP3    H169857   5.691   3.810   0.677  0.1116  0.8049  0.8078
16122TIP3    H269858   5.687   3.854   0.533  0.6630  0.2691  0.6227
16123TIP3   OH269859   5.356   6.078  16.486  0.1828  0.1373 -0.1593
16123TIP3    H169860   5.370   6.104  16.395  1.1556  0.2392  0.0139
16123TIP3    H269861   5.378   6.156  16.537 -0.7295  0.2050  0.1578
16124TIP3   OH269862   4.004   6.274  12.570 -0.0615  0.1620  0.3151
16124TIP3    H169863   3.963   6.224  12.640  0.3471 -0.2612  0.2573
16124TIP3    H269864   4.096   6.248  12.572 -0.2376 -0.7344 -1.0883
16125TIP3   OH269865   1.167   4.716  13.623  0.2480 -0.9450 -0.1553
16125TIP3    H169866   1.105   4.691  13.691  2.2646  0.8965  2.5799
16125TIP3    H269867   1.250   4.677  13.651  1.4906  1.2422 -0.6228
16126TIP3   OH269868   0.440   2.414  11.117  0.5955 -0.1092 -0.6449
16126TIP3    H169869   0.484   2.420  11.032  2.6401 -0.8505  0.2951
16126TIP3    H269870   0.491   2.470  11.174 -0.2622 -0.2766  0.3088
16127TIP3   OH269871   0.414   4.621  12.428  0.0509  0.3944 -0.4805
16127TIP3    H169872   0.440   4.564  12.500  0.8676  0.8330 -0.4102
16127TIP3    H269873   0.397   4.562  12.355  1.8951  0.1055 -0.7185
16128TIP3   OH269874   0.412   4.051  17.019 -0.2356 -0.6799  0.2833
16128TIP3    H169875   0.436   4.096  17.100  1.1183  0.1876 -0.5620
16128TIP3    H269876   0.377   3.967  17.048  0.5858 -0.5550  1.7433
16129TIP3   OH269877   0.830   5.840  17.007 -0.1438 -0.5139  0.0900
16129TIP3    H169878   0.895   5.891  17.054 -0.9886 -0.7115  1.5483
16129TIP3    H269879   0.781   5.794  17.076 -0.2564 -2.2670 -1.0914
16130TIP3   OH269880   4.289   5.306  16.829 -0.7851  0.6471  0.0827
16130TIP3    H169881   4.317   5.230  16.778  1.6326  0.7221  1.1183
16130TIP3    H269882   4.364   5.324  16.886 -1.9851  2.7482  1.0968
16131TIP3   OH269883   3.025   5.397   5.534  0.2971 -0.2342 -0.7925
16131TIP3    H169884   3.108   5.350   5.526  1.3005  1.3654 -0.3680
16131TIP3    H269885   2.958   5.329   5.531  1.6330 -1.6007 -0.8741
16132TIP3   OH269886   5.467   1.362   0.982 -0.0900 -0.7579  0.1467
16132TIP3    H169887   5.409   1.286   0.973 -0.1559 -0.9991  2.2185
16132TIP3    H269888   5.408   1.436   0.992 -0.0190 -0.5755 -0.6971
16133TIP3   OH269889   0.632   1.768   3.181 -0.0710  0.7793  0.4478
16133TIP3    H169890   0.551   1.802   3.142  0.2520  2.1917  0.9501
16133TIP3    H269891   0.685   1.742   3.105 -0.7470  0.4000  0.0936
16134TIP3   OH269892   3.332   6.099  11.829  0.4214  0.8164 -0.3335
16134TIP3    H169893   3.318   6.190  11.857  0.9219  0.3002  1.7743
16134TIP3    H269894   3.274   6.088  11.754  0.9233  3.0931 -1.1671
16135TIP3   OH269895   3.229   1.350   3.983 -0.1435 -0.1950 -0.5755
16135TIP3    H169896   3.231   1.420   4.049 -0.7463 -0.5063 -0.2180
16135TIP3    H269897   3.188   1.276   4.027 -0.4075 -0.4616 -1.2505
16136TIP3   OH269898   0.005   2.718  13.622 -0.1464 -0.4177  0.3222
16136TIP3    H169899  -0.020   2.758  13.539  0.1864 -0.3464  0.2547
16136TIP3    H269900   0.089   2.677  13.604  0.0183 -0.2356  0.6771
16137TIP3   OH269901   3.236   3.843  16.611 -0.0411  0.4880 -0.1725
16137TIP3    H169902   3.199   3.889  16.687 -0.3738  0.5334 -0.3619
16137TIP3    H269903   3.161   3.801  16.570  0.1189  0.5819 -0.5603
16138TIP3   OH269904   2.134   1.837   4.048  0.3130  0.7542  0.0934
16138TIP3    H169905   2.055   1.875   4.087  0.7572  2.9884 -1.0203
16138TIP3    H269906   2.184   1.912   4.016  2.4563 -0.6552 -0.1062
16139TIP3   OH269907   1.988   4.110   4.412 -0.2962  0.6163 -0.0020
16139TIP3    H169908   1.925   4.177   4.440 -0.3046 -0.2014  2.1500
16139TIP3    H269909   2.074   4.146   4.436 -0.2141  0.3207  0.1519
16140TIP3   OH269910   0.515   5.502   5.375  0.1173  0.5498 -0.4630
16140TIP3    H169911   0.555   5.479   5.292  0.8444 -3.5500  0.7964
16140TIP3    H269912   0.588   5.527   5.432  0.4051 -1.8285  0.3316
16141TIP3   OH269913   2.598   4.173   5.724  0.0988  0.2307 -0.3748
16141TIP3    H169914   2.603   4.080   5.700 -1.1482 -0.0638  0.4020
16141TIP3    H269915   2.606   4.220   5.641 -1.1657 -0.6545 -1.0351
16142TIP3   OH269916   5.511   6.200   4.641 -0.0552  0.3291 -0.1855
16142TIP3    H169917   5.486   6.221   4.731 -0.2988 -2.3546  0.4659
16142TIP3    H269918   5.429   6.202   4.592 -0.4442 -1.1475  0.3487
16143TIP3   OH269919   3.529   3.316   1.406 -0.3926  0.0313  0.1546
16143TIP3    H169920   3.510   3.409   1.404 -0.9835 -0.0766  0.6226
16143TIP3    H269921   3.499   3.284   1.320  1.5956  0.5881 -0.8148
16144TIP3   OH269922   0.660   6.145   5.538 -0.1366 -0.1381  0.1378
16144TIP3    H169923   0.709   6.127   5.618 -2.6765 -0.8185  1.6671
16144TIP3    H269924   0.702   6.222   5.501  1.1614  0.1840  2.1153
16145TIP3   OH269925   4.829   6.750   4.537 -0.0287 -0.5762  0.0254
16145TIP3    H169926   4.793   6.669   4.501 -0.2316 -0.1991 -0.6368
16145TIP3    H269927   4.759   6.785   4.592 -0.4543 -0.1827 -0.7402
16146TIP3   OH269928   3.710   1.270   5.320  0.3396 -0.1860  0.1376
16146TIP3    H169929   3.675   1.257   5.232 -0.5736 -0.1246  0.4818
16146TIP3    H269930   3.636   1.305   5.370  0.3880 -1.6474  1.3099
16147TIP3   OH269931   3.095   1.678   1.013  0.1537  0.0589 -0.4348
16147TIP3    H169932   3.087   1.756   1.069 -0.4953  1.2019 -2.0595
16147TIP3    H269933   3.130   1.611   1.072 -0.8866  1.0740  1.4454
16148TIP3   OH269934   0.817   5.785  14.837  0.3585  0.1120  0.2424
16148TIP3    H169935   0.739   5.769  14.783 -0.2747  2.4775  0.3317
16148TIP3    H269936   0.791   5.756  14.925 -1.0594  2.2686  0.6059
16149TIP3   OH269937   5.600   3.318  15.246  0.1825 -0.1343  0.2745
16149TIP3    H169938   5.622   3.297  15.337  0.5534 -0.1688  0.1772
16149TIP3    H269939   5.683   3.345  15.207  0.4338 -2.0908 -0.6120
16150TIP3   OH269940   1.032   1.775   0.029  0.0386 -0.7250 -0.3032
16150TIP3    H169941   0.939   1.798   0.036  0.2670  0.2946 -0.4518
16150TIP3    H269942   1.078   1.852   0.062  0.9389  0.6595 -4.2531
16151TIP3   OH269943   5.486   3.506   0.014  0.2026 -0.0794  0.0732
16151TIP3    H169944   5.566   3.458   0.039 -0.1478 -1.4868 -1.3631
16151TIP3    H269945   5.421   3.477   0.077  0.1771 -0.9732 -0.3514
16152TIP3   OH269946   0.277   3.937   3.754  0.1947 -0.1075 -0.3545
16152TIP3    H169947   0.294   3.968   3.843 -2.1394 -0.4759  0.2908
16152TIP3    H269948   0.341   3.867   3.741 -0.2632 -0.9550  1.5864
16153TIP3   OH269949   4.055   0.226  16.771  0.2875 -0.0317 -0.5509
16153TIP3    H169950   4.136   0.269  16.747  2.3782 -3.3692 -0.1005
16153TIP3    H269951   4.019   0.280  16.842  2.3304  1.2825 -0.4419
16154TIP3   OH269952   2.271   6.728  14.721  0.0856 -0.0367 -0.3812
16154TIP3    H169953   2.197   6.710  14.779 -0.5274  0.5439 -0.9731
16154TIP3    H269954   2.347   6.691  14.767 -0.7559 -1.9551 -0.4184
16155TIP3   OH269955   0.821   6.235   3.233  0.2950  0.0129  0.1482
16155TIP3    H169956   0.765   6.175   3.183  2.4028 -0.9586 -1.1724
16155TIP3    H269957   0.867   6.286   3.166  0.0525  1.7148  1.2229
16156TIP3   OH269958   5.140   0.154  14.081  0.2727  0.0906 -0.1568
16156TIP3    H169959   5.129   0.101  14.159  0.2902  0.0069 -0.2110
16156TIP3    H269960   5.170   0.239  14.113  0.1807  0.0882 -0.0654
16157TIP3   OH269961   6.280   0.118  14.393  0.1392  0.5263  0.2020
16157TIP3    H169962   6.210   0.183  14.386 -0.7532 -0.5612 -1.7996
16157TIP3    H269963   6.238   0.043  14.436  0.8626  0.8266  1.4846
16158TIP3   OH269964   1.780   4.500  17.192 -0.0579  0.8614  0.4870
16158TIP3    H169965   1.753   4.414  17.159  0.8061  0.2814  1.2400
16158TIP3    H269966   1.873   4.505  17.170 -0.3481  2.1168 -0.6007
16159TIP3   OH269967   3.812   1.342  15.006  0.2139 -0.2344 -0.5943
16159TIP3    H169968   3.889   1.327  15.060 -0.1683 -0.1247 -0.0117
16159TIP3    H269969   3.815   1.435  14.985 -0.5131  0.0964  0.6326
16160TIP3   OH269970   2.164   5.576   0.207  0.2607 -0.4561  0.2271
16160TIP3    H169971   2.240   5.622   0.172 -1.2087  1.2145 -0.9521
16160TIP3    H269972   2.108   5.560   0.131  0.0205 -2.9638  0.8293
16161TIP3   OH269973   6.677   3.883  15.210  0.0485 -0.1982  0.7707
16161TIP3    H169974   6.629   3.831  15.274 -0.7261 -0.7521 -0.2259
16161TIP3    H269975   6.768   3.852  15.218 -0.2534 -1.1292  0.7790
16162TIP3   OH269976   5.307   4.445   1.692  0.0866 -0.1136  0.1052
16162TIP3    H169977   5.271   4.499   1.622  0.5881  0.6969  0.4619
16162TIP3    H269978   5.396   4.476   1.704 -0.8009  1.7431  2.9973
16163TIP3   OH269979   2.721   1.255   0.517  0.3483  0.3830  0.2243
16163TIP3    H169980   2.766   1.322   0.569  1.1520 -1.4213  1.9646
16163TIP3    H269981   2.692   1.190   0.581 -1.2288 -0.5099 -1.3065
16164TIP3   OH269982   3.985   5.210   0.807  0.0785  0.7353 -1.0209
16164TIP3    H169983   3.925   5.227   0.880 -0.4585 -0.6113 -1.1314
16164TIP3    H269984   3.928   5.186   0.734  0.7058  0.3185 -1.3805
16165TIP3   OH269985   4.966   2.508  11.037 -0.1008 -0.0157  0.8276
16165TIP3    H169986   4.909   2.569  10.990  0.3074 -1.2163 -1.3821
16165TIP3    H269987   4.971   2.431  10.980  0.7840 -1.4250  2.7039
16166TIP3   OH269988   5.692   5.285  12.898 -0.6484  0.0883  0.0056
16166TIP3    H169989   5.729   5.199  12.920  1.1485  0.9241  0.4473
16166TIP3    H269990   5.709   5.295  12.805 -2.6821 -0.8387 -0.5189
16167TIP3   OH269991   4.230   3.172  15.652  0.6787 -0.6643  0.4253
16167TIP3    H169992   4.186   3.125  15.582  0.7379 -3.0706  1.8648
16167TIP3    H269993   4.224   3.113  15.728  0.2096  1.9735  2.6056
16168TIP3   OH269994   0.628   3.504  15.748  0.7064  0.2507 -0.4296
16168TIP3    H169995   0.582   3.580  15.784 -1.7460 -1.7578  1.1078
16168TIP3    H269996   0.706   3.494  15.803  0.1470  0.6960  0.4660
16169TIP3   OH269997   1.897   3.799  13.678 -0.5692  0.2388  0.4296
16169TIP3    H169998   1.804   3.785  13.692 -0.8091  1.0619 -0.2995
16169TIP3    H269999   1.940   3.736  13.736 -1.5785 -0.7394  0.1429
16170TIP3   OH270000   1.020   4.619  13.837 -0.0836 -0.0771 -0.1771
16170TIP3    H170001   0.976   4.621  13.922 -0.6245 -1.5317 -0.3849
16170TIP3    H270002   1.113   4.622  13.857 -0.2036  2.0043  0.3225
16171TIP3   OH270003   4.209   1.207  15.606  0.0512  0.1718 -0.0982
16171TIP3    H170004   4.128   1.256  15.590 -0.1155  0.5670  1.6978
16171TIP3    H270005   4.278   1.273  15.595  0.2766 -0.3806 -2.5991
16172TIP3   OH270006   0.636   0.366   3.306 -0.4382 -0.4975  0.2503
16172TIP3    H170007   0.680   0.285   3.332  0.6128 -0.2187 -0.5911
16172TIP3    H270008   0.702   0.415   3.258 -0.7332  1.3792  1.6796
16173TIP3   OH270009   0.736   0.552  15.902 -0.5360 -0.3298 -0.3468
16173TIP3    H170010   0.706   0.632  15.859  2.0938  0.5166 -0.7729
16173TIP3    H270011   0.715   0.566  15.995 -0.8159  0.4960 -0.5255
16174TIP3   OH270012   1.256   1.279  15.290  0.3227  0.5845  0.1361
16174TIP3    H170013   1.328   1.234  15.246 -0.0799 -0.5180  0.5691
16174TIP3    H270014   1.208   1.322  15.219  1.0547  0.8240 -0.2181
16175TIP3   OH270015   1.480   0.572   5.656 -0.1736 -0.2038  0.1113
16175TIP3    H170016   1.495   0.655   5.702  2.0399  0.0714 -0.9589
16175TIP3    H270017   1.560   0.558   5.606 -2.0301 -0.9331 -2.9522
16176TIP3   OH270018   2.044   2.055   0.884  0.2419 -0.1247  0.5480
16176TIP3    H170019   2.034   2.151   0.882  1.0681 -0.0305  0.5771
16176TIP3    H270020   1.974   2.023   0.828 -0.4593  0.4599  1.0573
16177TIP3   OH270021   1.745   4.121   1.225  0.7746 -0.0849  0.3496
16177TIP3    H170022   1.740   4.133   1.320 -0.7653  1.8450  0.0844
16177TIP3    H270023   1.808   4.187   1.196 -0.3635  0.8070 -0.1583
16178TIP3   OH270024   6.396   3.344   1.382 -0.4472 -0.0399 -0.3472
16178TIP3    H170025   6.334   3.389   1.324  0.3931  1.0936 -0.3983
16178TIP3    H270026   6.343   3.276   1.425 -1.0582 -1.0581 -2.5556
16179TIP3   OH270027   2.782   6.311  13.518 -0.0494  0.2902  0.3624
16179TIP3    H170028   2.814   6.385  13.570  0.2125  1.6359 -1.6260
16179TIP3    H270029   2.860   6.274  13.477 -0.5545  1.3099 -1.6187
16180TIP3   OH270030   4.474   5.403  16.539  0.0988 -0.7628 -0.1030
16180TIP3    H170031   4.434   5.461  16.605  0.7249  0.2190 -0.5689
16180TIP3    H270032   4.557   5.377  16.577 -0.9968 -2.9946  0.9657
16181TIP3   OH270033   0.398   3.509   5.542 -0.1158 -0.0130 -0.4666
16181TIP3    H170034   0.483   3.506   5.585  0.1408 -0.8452 -0.9951
16181TIP3    H270035   0.399   3.433   5.483 -0.9912  0.3090 -0.9075
16182TIP3   OH270036   1.642   1.265   0.303  0.5714 -0.3788  0.3257
16182TIP3    H170037   1.692   1.238   0.226  1.5900  0.6390  0.5871
16182TIP3    H270038   1.704   1.257   0.376  0.7031  1.7980  0.5209
16183TIP3   OH270039   5.777   6.354   5.643 -0.1218 -0.8483 -0.2890
16183TIP3    H170040   5.792   6.446   5.621  0.2083 -0.7599  0.2859
16183TIP3    H270041   5.717   6.355   5.717 -0.1193 -1.0942 -0.2798
16184TIP3   OH270042   5.143   5.200   4.588 -0.4984  0.1368  0.2109
16184TIP3    H170043   5.103   5.223   4.672  0.2394  0.7741  0.4105
16184TIP3    H270044   5.223   5.153   4.613  0.9341  2.2890 -0.0192
16185TIP3   OH270045   2.612   6.159  13.712 -0.3079 -0.0523  0.0012
16185TIP3    H170046   2.593   6.239  13.760  2.0559  0.0633  0.8646
16185TIP3    H270047   2.661   6.188  13.635 -0.4876 -0.5949 -0.3311
16186TIP3   OH270048   4.427   6.081   3.422 -0.7198  0.4048  0.8060
16186TIP3    H170049   4.469   6.021   3.361  0.9496 -0.8348  3.0028
16186TIP3    H270050   4.460   6.168   3.398 -0.8814  0.0907 -0.6151
16187TIP3   OH270051   1.467   4.472   4.830 -0.2856  0.6459 -0.5543
16187TIP3    H170052   1.542   4.414   4.841 -1.6837 -0.8624  1.7169
16187TIP3    H270053   1.492   4.552   4.876 -0.7586 -0.5849  1.9912
16188TIP3   OH270054   6.027   4.394   5.755 -0.0819  0.1798 -0.0962
16188TIP3    H170055   6.007   4.316   5.806  1.7251  0.4992  1.2332
16188TIP3    H270056   6.037   4.463   5.820  1.4373  0.8013 -0.9313
16189TIP3   OH270057   2.154   4.489   2.820  0.0521 -0.8613  0.4927
16189TIP3    H170058   2.209   4.420   2.857 -1.1755 -1.0922  2.0199
16189TIP3    H270059   2.071   4.445   2.800 -0.1467 -0.1904 -0.2130
16190TIP3   OH270060   4.449   0.993   5.147  0.3167 -0.0815 -0.3471
16190TIP3    H170061   4.472   0.917   5.094 -1.4137 -0.8601 -0.0478
16190TIP3    H270062   4.426   0.957   5.233 -0.1227  0.8126 -0.0735
16191TIP3   OH270063   5.739   6.491   1.488 -0.2245 -0.6134  0.2397
16191TIP3    H170064   5.757   6.537   1.406 -1.5357 -0.6049 -0.0670
16191TIP3    H270065   5.693   6.555   1.541  1.1289 -0.4278  1.2383
16192TIP3   OH270066   0.231   0.978  12.868  0.1712 -0.3776  0.9071
16192TIP3    H170067   0.159   0.928  12.829  0.8619 -0.2940 -0.5373
16192TIP3    H270068   0.284   0.911  12.913  0.4318 -0.8042  0.0047
16193TIP3   OH270069   3.132   2.364  13.220  0.1614 -0.1648  0.4813
16193TIP3    H170070   3.069   2.409  13.164 -1.3547 -0.4790  1.8432
16193TIP3    H270071   3.210   2.419  13.219 -0.4474  0.7157 -0.5380
16194TIP3   OH270072   2.970   2.222  16.734  0.4626  0.4917  0.2770
16194TIP3    H170073   2.951   2.139  16.778  2.3932 -0.3525 -0.3815
16194TIP3    H270074   2.950   2.206  16.642 -2.4307  1.8887  0.5483
16195TIP3   OH270075   3.724   5.793  15.547  0.2442  0.2294  0.2484
16195TIP3    H170076   3.798   5.737  15.523 -0.2748 -1.2333  1.7754
16195TIP3    H270077   3.648   5.747  15.513 -0.0595  1.0155 -0.1353
16196TIP3   OH270078   0.347   2.710   4.383  0.3830  0.3818  0.5299
16196TIP3    H170079   0.295   2.631   4.400 -0.2822  1.1784  2.4084
16196TIP3    H270080   0.391   2.691   4.300 -2.4571 -0.5618 -0.9295
16197TIP3   OH270081   1.918   6.068   3.583  0.2331 -0.0887 -0.2072
16197TIP3    H170082   1.961   5.985   3.604 -0.8190 -0.9032 -1.1816
16197TIP3    H270083   1.849   6.077   3.648 -2.8526 -2.4808 -2.8460
16198TIP3   OH270084   6.190   3.426   3.973  0.6013  0.6722  0.3715
16198TIP3    H170085   6.204   3.409   3.880  0.5510 -1.7801  0.7614
16198TIP3    H270086   6.251   3.498   3.994  1.7437  0.1984 -1.2021
16199TIP3   OH270087   5.419   1.806  11.608 -0.2095  0.2626  0.1427
16199TIP3    H170088   5.352   1.738  11.620  0.2261 -0.0219  1.0895
16199TIP3    H270089   5.492   1.777  11.664  0.8253  0.4147 -1.0844
16200TIP3   OH270090   2.943   5.750  16.934 -0.5760  0.0879 -0.0010
16200TIP3    H170091   2.855   5.734  16.966 -1.1962  0.2447 -1.5432
16200TIP3    H270092   2.931   5.791  16.848  0.9776  2.3717  0.7723
16201TIP3   OH270093   0.978   2.002  15.886 -0.2983 -0.1776  0.2528
16201TIP3    H170094   1.017   1.915  15.889  0.0800 -0.0256 -0.1675
16201TIP3    H270095   0.987   2.030  15.795 -0.2746  0.3632  0.4142
16202TIP3   OH270096   3.217   5.445   2.888  0.6092  0.2768 -0.3944
16202TIP3    H170097   3.190   5.485   2.970 -0.5131  1.6065 -1.3827
16202TIP3    H270098   3.184   5.355   2.893  0.4442  0.3784  0.5290
16203TIP3   OH270099   1.822   0.268   4.513 -0.0286 -0.3157 -0.2589
16203TIP3    H170100   1.910   0.231   4.523  0.7954  0.7073 -2.9309
16203TIP3    H270101   1.764   0.199   4.544  1.6516 -1.1612  1.2741
16204TIP3   OH270102   5.362   6.365   1.180  0.5497 -0.2333 -0.4019
16204TIP3    H170103   5.405   6.285   1.210  0.8674  0.4582  1.0821
16204TIP3    H270104   5.305   6.390   1.252  0.1369  0.6570 -1.0188
16205TIP3   OH270105   0.287   3.308   1.449 -0.2592  0.4577  0.4652
16205TIP3    H170106   0.216   3.338   1.506 -0.1816  0.7189  0.4240
16205TIP3    H270107   0.319   3.228   1.491 -1.8636 -0.7703 -0.5512
16206TIP3   OH270108   1.617   0.014   2.709 -0.5067  0.0740 -0.4174
16206TIP3    H170109   1.679   0.087   2.702  0.0512 -0.4763 -1.3380
16206TIP3    H270110   1.533   0.056   2.731 -0.2219  1.0053 -1.0674
16207TIP3   OH270111   1.164   1.066  11.841 -0.3646 -0.9401  0.0868
16207TIP3    H170112   1.095   0.999  11.843  1.0261 -2.4443  1.8196
16207TIP3    H270113   1.146   1.121  11.918  0.5161 -1.5500  0.7479
16208TIP3   OH270114   6.062   4.931  14.806  0.0327 -0.2167 -0.3604
16208TIP3    H170115   6.013   4.870  14.861 -0.1626 -0.1199 -0.4249
16208TIP3    H270116   6.000   5.003  14.790  0.9468  1.0605  1.5134
16209TIP3   OH270117   2.096   1.013   5.159 -0.0284 -0.0831  0.3475
16209TIP3    H170118   2.030   1.007   5.090  2.1273 -0.0136 -1.8545
16209TIP3    H270119   2.101   1.106   5.178  0.6320  0.1167 -0.7443
16210TIP3   OH270120   3.647   5.783  14.161  0.0674  0.1456 -0.7696
16210TIP3    H170121   3.593   5.709  14.187  0.2136 -0.2056 -1.4602
16210TIP3    H270122   3.720   5.781  14.224 -0.2943  0.1373 -0.3439
16211TIP3   OH270123   1.900   2.916  13.429  0.2091 -0.2841 -0.0636
16211TIP3    H170124   1.992   2.943  13.435  0.1521 -0.0406 -0.2742
16211TIP3    H270125   1.905   2.821  13.413  0.5346  0.1566 -3.1655
16212TIP3   OH270126   2.939   2.484   0.324 -0.2274 -0.2887 -0.0895
16212TIP3    H170127   3.021   2.532   0.335 -0.2365 -0.0214 -1.1046
16212TIP3    H270128   2.964   2.392   0.332 -0.2011 -0.1575  1.8246
16213TIP3   OH270129   5.804   1.434  12.655 -0.0969 -0.3042  0.4378
16213TIP3    H170130   5.756   1.394  12.583 -1.5248  0.0847  1.1347
16213TIP3    H270131   5.745   1.501  12.689  1.0959  0.4294  1.1109
16214TIP3   OH270132   5.717   4.979  10.718 -0.3924 -0.3635  0.2234
16214TIP3    H170133   5.806   5.013  10.708 -0.0714 -1.4501 -0.8123
16214TIP3    H270134   5.672   5.005  10.638 -0.4978 -1.2667 -0.0240
16215TIP3   OH270135   6.058   0.552   2.643 -0.0990  0.0227  0.1604
16215TIP3    H170136   6.009   0.487   2.694  0.8890 -1.6640 -0.9185
16215TIP3    H270137   5.999   0.627   2.637 -0.0274  0.5874  4.2179
16216TIP3   OH270138   6.696   4.281  12.941  0.0858 -0.0206 -0.0398
16216TIP3    H170139   6.619   4.226  12.922  0.4892 -0.1313 -1.5098
16216TIP3    H270140   6.769   4.220  12.943  0.3834  0.3146 -0.5110
16217TIP3   OH270141   4.775   4.185  15.837 -0.2703 -0.3553  0.0582
16217TIP3    H170142   4.803   4.172  15.747  0.0634 -0.0806  0.1228
16217TIP3    H270143   4.695   4.133  15.845 -0.2475 -0.4551 -0.3668
16218TIP3   OH270144   4.409   5.824   4.122 -0.4502 -0.1266 -0.1690
16218TIP3    H170145   4.375   5.741   4.087  0.6517  0.3171 -2.5177
16218TIP3    H270146   4.416   5.881   4.045 -0.3364  1.8654  1.2415
16219TIP3   OH270147   3.538   0.702  11.723 -0.7373  0.3702  0.4510
16219TIP3    H170148   3.528   0.767  11.653 -1.4793 -0.1797  0.0386
16219TIP3    H270149   3.451   0.694  11.761 -0.8848 -1.1031 -0.1534
16220TIP3   OH270150   0.054   6.224  14.332  0.4195 -0.1166  0.5356
16220TIP3    H170151   0.001   6.304  14.336  2.8654  1.6083  0.5627
16220TIP3    H270152   0.062   6.204  14.239  0.9770  0.5329  0.4387
16221TIP3   OH270153   0.232   4.346  15.950  0.0988  0.2436 -0.2377
16221TIP3    H170154   0.291   4.368  15.877  0.3069 -1.6090 -0.6917
16221TIP3    H270155   0.222   4.251  15.944 -1.8440  0.3444  0.6958
16222TIP3   OH270156   5.764   4.568   3.297 -0.4411 -0.0703  0.5891
16222TIP3    H170157   5.793   4.483   3.266  0.2215  0.5781 -0.6590
16222TIP3    H270158   5.672   4.573   3.271 -0.3036 -0.1548  0.0772
16223TIP3   OH270159   3.317   1.166  15.000 -0.1797  0.0807 -0.3752
16223TIP3    H170160   3.334   1.189  15.091  1.0777 -1.6909 -0.0935
16223TIP3    H270161   3.247   1.225  14.973 -0.2456  0.9923  1.5760
16224TIP3   OH270162   4.370   4.572  13.202  0.1247 -0.1788  0.1349
16224TIP3    H170163   4.442   4.525  13.242  0.4247  0.1129 -0.0537
16224TIP3    H270164   4.312   4.504  13.168  0.4259 -0.4113  0.0906
16225TIP3   OH270165   1.659   3.059   0.120 -0.7616  0.3810 -0.7631
16225TIP3    H170166   1.679   2.975   0.159 -0.3460  0.7273 -0.2221
16225TIP3    H270167   1.682   3.123   0.187 -0.2221  0.9726 -1.4952
16226TIP3   OH270168   1.084   3.193  14.488 -0.1857  0.2742 -0.0602
16226TIP3    H170169   1.007   3.242  14.515  0.1110  1.7997 -1.7288
16226TIP3    H270170   1.157   3.238  14.531  0.0897  1.3727 -1.5982
16227TIP3   OH270171   4.524   4.492  11.703  0.2497 -0.7625 -0.0929
16227TIP3    H170172   4.573   4.565  11.666 -1.5384  0.8399  0.5400
16227TIP3    H270173   4.535   4.500  11.798  0.3179 -1.5422 -0.0230
16228TIP3   OH270174   4.446   0.457   3.485  0.0971 -0.1701 -0.2773
16228TIP3    H170175   4.512   0.390   3.506 -2.3431 -1.9329  2.5470
16228TIP3    H270176   4.412   0.430   3.399  0.2847 -1.6288  0.0751
16229TIP3   OH270177   3.672   4.824   4.684 -0.0528 -0.1929 -0.1994
16229TIP3    H170178   3.722   4.781   4.614  0.0514 -0.4895  0.0560
16229TIP3    H270179   3.674   4.762   4.756 -0.5459 -0.0748 -0.0862
16230TIP3   OH270180   0.701   5.800  15.996 -0.5862  0.1305  0.2546
16230TIP3    H170181   0.694   5.705  15.986  0.5770 -0.0324  0.8955
16230TIP3    H270182   0.649   5.835  15.924 -1.8894 -0.9793  0.6158
16231TIP3   OH270183   0.856   1.241   5.353 -0.4371 -0.4002 -0.2143
16231TIP3    H170184   0.819   1.244   5.441 -0.0054 -0.2471 -0.0364
16231TIP3    H270185   0.838   1.327   5.316 -1.9225 -0.9476 -0.8199
16232TIP3   OH270186   6.464   5.073   0.898  0.0777  0.8824  0.3791
16232TIP3    H170187   6.496   5.150   0.944  0.6637 -0.4238  2.3086
16232TIP3    H270188   6.483   5.000   0.957 -0.6265 -0.7325 -1.2684
16233TIP3   OH270189   4.582   6.242   2.394 -0.4801  0.3592  0.4013
16233TIP3    H170190   4.662   6.260   2.444  1.3131 -2.8959 -0.9647
16233TIP3    H270191   4.560   6.152   2.416 -3.1659  0.7940 -0.2013
16234TIP3   OH270192   0.015   3.474  13.824 -0.2360 -0.3361 -0.3744
16234TIP3    H170193  -0.031   3.391  13.835  2.9716 -2.1941  0.1956
16234TIP3    H270194   0.024   3.508  13.913  0.1385 -0.3859 -0.3913
16235TIP3   OH270195   4.895   6.192  16.099 -0.4490 -0.6244  0.5034
16235TIP3    H170196   4.851   6.117  16.059 -1.6238 -0.7175  1.9217
16235TIP3    H270197   4.863   6.267  16.050  0.2413 -0.9620 -0.5042
16236TIP3   OH270198   2.494   3.009  14.500 -0.3368  0.5015 -0.4297
16236TIP3    H170199   2.509   3.026  14.407 -0.8049  0.3469 -0.5351
16236TIP3    H270200   2.580   2.983  14.534 -0.3447 -0.2753 -1.0001
16237TIP3   OH270201   1.472   2.927  16.408  0.7702 -0.2768  0.1400
16237TIP3    H170202   1.449   2.886  16.491 -0.4574 -2.6206 -1.2302
16237TIP3    H270203   1.462   3.021  16.423 -0.7442 -0.7121  2.2458
16238TIP3   OH270204   0.903   4.358  17.138  0.6563  0.6271 -0.0166
16238TIP3    H170205   0.835   4.325  17.080  0.2189  2.6172 -0.6866
16238TIP3    H270206   0.873   4.445  17.164  2.1441  0.8648  1.0240
16239TIP3   OH270207   3.283   4.500   4.045  0.0598 -0.9908  0.0357
16239TIP3    H170208   3.203   4.461   4.009  0.1226 -0.9052 -0.1987
16239TIP3    H270209   3.285   4.588   4.007 -2.3453  0.9436  3.7544
16240TIP3   OH270210   3.218   1.323   4.677 -0.2313  0.3101  0.2388
16240TIP3    H170211   3.296   1.285   4.719 -0.1039  0.8557  0.4953
16240TIP3    H270212   3.180   1.380   4.743 -0.3647  0.7139 -0.1799
16241TIP3   OH270213   6.457   0.584  11.764 -0.0901  0.0611  0.1913
16241TIP3    H170214   6.488   0.598  11.854 -0.8814  1.2949  0.2904
16241TIP3    H270215   6.403   0.661  11.745 -1.4045 -1.0412 -0.6995
16242TIP3   OH270216   2.678   0.645  12.904  0.1286  0.0973  0.1568
16242TIP3    H170217   2.732   0.724  12.908 -1.2468  1.0717  0.1814
16242TIP3    H270218   2.721   0.590  12.839  0.8196  1.0942 -0.2547
16243TIP3   OH270219   2.715   0.679   6.045 -0.0891 -0.3656 -0.0692
16243TIP3    H170220   2.629   0.680   6.087 -0.4293 -0.9770 -0.7401
16243TIP3    H270221   2.762   0.608   6.090 -0.3113 -0.7484 -0.4393
16244TIP3   OH270222   3.271   0.700   0.722  0.1194  0.0628  0.2928
16244TIP3    H170223   3.283   0.744   0.638  2.2149  0.0086  0.4988
16244TIP3    H270224   3.239   0.613   0.700  0.2935  0.1793 -0.4336
16245TIP3   OH270225   5.817   0.810  14.697  0.2258  0.2520  0.0711
16245TIP3    H170226   5.891   0.774  14.746  0.2840 -0.1025 -0.2679
16245TIP3    H270227   5.765   0.856  14.762  1.0952  1.0862  0.2066
16246TIP3   OH270228   5.346   0.869  17.129  0.3184 -0.3939 -0.5675
16246TIP3    H170229   5.379   0.959  17.126 -1.2718  0.3756  2.1634
16246TIP3    H270230   5.405   0.823  17.188 -1.1240 -0.0124  1.2618
16247TIP3   OH270231   5.511   4.807  14.561  0.2096 -0.1629 -0.2249
16247TIP3    H170232   5.559   4.741  14.612  0.3503  1.2001  1.5283
16247TIP3    H270233   5.470   4.758  14.490  2.0374 -1.7866 -0.2369
16248TIP3   OH270234   4.210   5.494  14.506 -0.0050 -0.0989 -0.2261
16248TIP3    H170235   4.133   5.530  14.550 -0.7607  0.1601 -1.6699
16248TIP3    H270236   4.176   5.464  14.421  1.6883  1.1182 -1.3985
16249TIP3   OH270237   2.973   1.006   4.208  0.1338  0.3743  0.5841
16249TIP3    H170238   2.983   1.094   4.174  1.3352 -0.1781 -0.5519
16249TIP3    H270239   3.057   0.986   4.250 -0.1676 -0.1903  0.9425
16250TIP3   OH270240   6.581   0.582  16.489  0.4896 -0.0549 -0.0790
16250TIP3    H170241   6.491   0.554  16.505 -0.0816  2.0146  0.5782
16250TIP3    H270242   6.629   0.557  16.567  0.4109 -0.8069 -0.2647
16251TIP3   OH270243   3.995   2.175   3.831 -0.1592 -0.1995  0.0216
16251TIP3    H170244   3.900   2.183   3.820 -0.4428 -0.1579  2.1323
16251TIP3    H270245   4.028   2.265   3.819 -0.2559 -0.3456 -1.5214
16252TIP3   OH270246   2.734   3.953  13.163 -0.4395  1.1056  0.4898
16252TIP3    H170247   2.816   3.904  13.159 -1.2824 -0.5826  2.3805
16252TIP3    H270248   2.727   3.994  13.077  1.1574 -0.7160 -0.5990
16253TIP3   OH270249   6.253   1.095   1.312  0.7053  0.1506 -0.3517
16253TIP3    H170250   6.256   1.112   1.406 -1.2287  2.7742 -0.6623
16253TIP3    H270251   6.227   1.178   1.272  2.7955 -0.4641 -3.4037
16254TIP3   OH270252   6.329   5.761   4.188 -0.0253 -0.3592 -0.1733
16254TIP3    H170253   6.360   5.717   4.109 -0.9696 -2.8393  0.7534
16254TIP3    H270254   6.240   5.728   4.201  0.3311 -0.5397  2.2730
16255TIP3   OH270255   0.669   3.572   6.865  0.0523  0.1156 -0.3245
16255TIP3    H170256   0.584   3.536   6.887 -0.6010  0.7741 -1.6084
16255TIP3    H270257   0.677   3.651   6.918 -0.0439 -0.0545 -0.0579
16256TIP3   OH270258   4.391   2.832  12.472  0.2196  0.4405  0.2509
16256TIP3    H170259   4.351   2.759  12.425  1.0562  0.2215 -0.1415
16256TIP3    H270260   4.390   2.806  12.564 -1.4585  0.8838  0.3792
16257TIP3   OH270261   0.253   5.994  12.719 -0.1772 -0.4623  0.5253
16257TIP3    H170262   0.281   5.916  12.767  1.0153 -1.1173 -1.1582
16257TIP3    H270263   0.209   5.960  12.642  1.1596  0.4804 -0.7063
16258TIP3   OH270264   3.231   3.016  13.751 -0.0004 -0.1184  0.0461
16258TIP3    H170265   3.232   3.038  13.658  2.6013  1.0736  0.2719
16258TIP3    H270266   3.206   2.923  13.753  0.8952 -0.4608 -1.9540
16259TIP3   OH270267   5.026   0.499  12.191  0.2021 -0.2304 -0.0095
16259TIP3    H170268   4.961   0.455  12.245  2.0668 -2.7189  0.3786
16259TIP3    H270269   4.985   0.503  12.104 -1.5727  0.9455  0.8309
16260TIP3   OH270270   1.383   3.532   3.776 -0.0086 -0.0456 -0.1069
16260TIP3    H170271   1.302   3.566   3.737 -0.5441 -2.0824 -0.8875
16260TIP3    H270272   1.450   3.546   3.709 -0.0627  0.1255 -0.1257
16261TIP3   OH270273   3.973   4.941   2.680  0.2542 -0.1191 -0.2507
16261TIP3    H170274   4.015   4.937   2.594 -1.2940 -3.5997 -1.0048
16261TIP3    H270275   3.993   4.857   2.721  0.1575  1.0827  2.4678
16262TIP3   OH270276   0.677   1.258  14.485  0.1291 -0.9840 -0.1868
16262TIP3    H170277   0.671   1.246  14.391  1.6007  2.3667 -0.8572
16262TIP3    H270278   0.608   1.320  14.507  0.5137 -0.8581  0.7479
16263TIP3   OH270279   4.934   4.535  14.467 -0.0860 -0.3211 -0.3849
16263TIP3    H170280   4.881   4.517  14.545 -1.2477 -0.6178 -1.2049
16263TIP3    H270281   4.928   4.454  14.416  0.1823  0.0759 -1.0484
16264TIP3   OH270282   6.135   0.221   1.941  0.0172 -0.3864 -0.1157
16264TIP3    H170283   6.101   0.223   1.852  0.4337 -1.5728 -0.3125
16264TIP3    H270284   6.085   0.153   1.985 -0.5372  0.5277  0.7216
16265TIP3   OH270285   2.295   4.538  14.710  0.0890 -0.4553  0.5444
16265TIP3    H170286   2.302   4.632  14.725 -1.5900 -0.4270  1.3826
16265TIP3    H270287   2.346   4.522  14.631  0.7824  1.0777  0.6524
16266TIP3   OH270288   2.340   4.396   0.278  0.0943 -0.4553  0.0974
16266TIP3    H170289   2.387   4.377   0.359  1.5168  0.3197 -0.5067
16266TIP3    H270290   2.281   4.321   0.265 -0.2575 -0.5182  1.8977
16267TIP3   OH270291   0.160   3.957  15.006 -0.1592  0.1370 -0.2330
16267TIP3    H170292   0.099   4.031  15.008  0.1773  0.3942  1.1715
16267TIP3    H270293   0.247   3.998  15.005  0.0242 -0.2446 -0.1334
16268TIP3   OH270294   6.221   3.123   3.363 -0.8825 -0.7796 -0.1867
16268TIP3    H170295   6.306   3.163   3.383 -0.3800 -1.3092 -1.2163
16268TIP3    H270296   6.171   3.133   3.444  0.3249 -0.8889  0.5981
16269TIP3   OH270297   0.634   2.392   4.941  0.0622 -0.9135  0.0116
16269TIP3    H170298   0.555   2.440   4.964  0.5420  0.5188 -1.1868
16269TIP3    H270299   0.629   2.311   4.992 -0.3453  0.7515  2.8193
16270TIP3   OH270300   3.220   2.745   3.011 -0.3300 -0.1497 -0.1302
16270TIP3    H170301   3.214   2.840   3.004  0.7074  0.1484  2.1385
16270TIP3    H270302   3.132   2.717   3.035 -0.2377  0.4535  0.9467
16271TIP3   OH270303   4.194   0.559   0.660  0.7087  0.2840 -0.3580
16271TIP3    H170304   4.220   0.485   0.714 -0.4616 -1.2003 -1.7269
16271TIP3    H270305   4.271   0.577   0.606  0.6000 -0.7983 -0.9014
16272TIP3   OH270306   1.460   0.728  12.625  0.6016  0.2147 -0.3148
16272TIP3    H170307   1.467   0.820  12.652  0.6834  0.1641 -0.1692
16272TIP3    H270308   1.521   0.721  12.552  0.2471  0.3962 -0.6359
16273TIP3   OH270309   0.789   6.469   1.476 -0.4889 -0.7542 -0.4782
16273TIP3    H170310   0.749   6.499   1.558 -0.8883 -0.8622 -0.6342
16273TIP3    H270311   0.881   6.494   1.485 -1.1545  2.5212 -1.5223
16274TIP3   OH270312   2.353   4.134   5.481 -0.1796  0.2272 -0.1357
16274TIP3    H170313   2.446   4.110   5.481 -0.4757 -0.9786 -0.0910
16274TIP3    H270314   2.329   4.134   5.574 -0.6062 -1.1325 -0.2130
16275TIP3   OH270315   2.238   6.324  11.660  0.2036 -0.2728 -0.8150
16275TIP3    H170316   2.206   6.278  11.582  1.0760 -1.7260 -0.3569
16275TIP3    H270317   2.237   6.257  11.728  0.7418  0.6295  0.0934
16276TIP3   OH270318   0.417   5.504   4.721  0.0513 -0.2881  0.2428
16276TIP3    H170319   0.366   5.531   4.644 -0.0162  1.6741  0.9110
16276TIP3    H270320   0.507   5.500   4.691 -0.1460 -1.0553 -0.2830
16277TIP3   OH270321   1.803   5.503  16.489 -0.0086 -0.1499 -0.0634
16277TIP3    H170322   1.805   5.597  16.512 -1.2159 -0.0515 -0.3287
16277TIP3    H270323   1.755   5.462  16.561  0.1156 -0.5065 -0.1825
16278TIP3   OH270324   5.514   0.946  13.605  0.3242 -0.4962 -0.3643
16278TIP3    H170325   5.521   0.857  13.637  2.7625 -0.6210 -1.0397
16278TIP3    H270326   5.588   0.992  13.644 -1.2157  1.4427  0.4741
16279TIP3   OH270327   5.176   5.702  17.049 -0.4585 -0.5489  0.0151
16279TIP3    H170328   5.217   5.788  17.059  1.6460 -1.3222 -1.2460
16279TIP3    H270329   5.140   5.702  16.960 -0.4253 -0.9648 -0.0024
16280TIP3   OH270330   3.474   5.593   1.452 -0.4041  0.0833 -0.2194
16280TIP3    H170331   3.479   5.598   1.357  0.3516  0.8457 -0.1509
16280TIP3    H270332   3.407   5.526   1.469 -2.0713  1.3871 -1.2710
16281TIP3   OH270333   4.685   4.419  12.128  0.3077  0.5157  0.3803
16281TIP3    H170334   4.590   4.425  12.123  0.2450 -0.8568 -0.6233
16281TIP3    H270335   4.707   4.340  12.079  1.8852  0.1722  1.5478
16282TIP3   OH270336   1.848   1.531   2.608 -0.3789 -0.1036  0.3027
16282TIP3    H170337   1.939   1.533   2.638 -0.2209 -1.7537  0.0371
16282TIP3    H270338   1.849   1.472   2.533 -1.5187  0.6082 -0.2931
16283TIP3   OH270339   6.307   2.088   2.354  0.6057 -0.5541 -0.1153
16283TIP3    H170340   6.232   2.113   2.301  0.4785  0.4024  0.5017
16283TIP3    H270341   6.302   1.993   2.359 -0.5191 -0.5099 -0.1457
16284TIP3   OH270342   3.802   3.626   1.919 -0.1015  0.3369 -0.0495
16284TIP3    H170343   3.851   3.621   1.837  0.8428 -0.5998  0.5488
16284TIP3    H270344   3.711   3.634   1.892  0.0834 -1.0419 -1.2051
16285TIP3   OH270345   5.176   2.052  16.881 -0.1423 -0.3631  0.2511
16285TIP3    H170346   5.094   2.015  16.848 -0.9875  0.4452  1.3555
16285TIP3    H270347   5.200   1.996  16.954 -1.9293  1.6442  2.5406
16286TIP3   OH270348   3.019   4.123   1.889 -0.2184  0.0023 -0.0662
16286TIP3    H170349   3.084   4.192   1.900 -1.0979  1.1377 -1.6364
16286TIP3    H270350   2.942   4.167   1.852 -1.5385 -1.4727  0.7890
16287TIP3   OH270351   4.078   5.718   5.092 -0.0919  0.1140  0.2879
16287TIP3    H170352   4.147   5.652   5.086 -0.5438 -0.2778 -3.7101
16287TIP3    H270353   3.997   5.669   5.075 -0.9066  1.1769  0.9764
16288TIP3   OH270354   1.932   2.325  10.968  0.7194 -0.1020 -0.0571
16288TIP3    H170355   2.014   2.343  11.014  0.5619  1.4890 -0.3581
16288TIP3    H270356   1.933   2.230  10.954  1.4789 -0.4295  1.8610
16289TIP3   OH270357   4.325   0.517   1.448  0.8767 -0.1603  0.3685
16289TIP3    H170358   4.238   0.516   1.488  0.5726 -3.3885 -0.1009
16289TIP3    H270359   4.320   0.449   1.380  2.6448  2.1742 -2.2973
16290TIP3   OH270360   2.320   4.095   1.342 -0.0734 -0.0491 -0.2953
16290TIP3    H170361   2.316   4.020   1.401  0.8247 -0.5142 -0.8159
16290TIP3    H270362   2.338   4.057   1.256  1.0397  0.7996 -0.4536
16291TIP3   OH270363   0.217   0.735  15.399  0.1394  0.2898  0.4510
16291TIP3    H170364   0.201   0.829  15.411 -0.8983 -0.0879  2.5242
16291TIP3    H270365   0.257   0.707  15.481  0.8413 -1.0347 -0.3027
16292TIP3   OH270366   0.175   5.859   2.790 -0.1120 -0.5536  0.1176
16292TIP3    H170367   0.170   5.763   2.794 -0.0196 -0.5450  0.4219
16292TIP3    H270368   0.085   5.888   2.778 -0.4904 -0.5469  2.6099
16293TIP3   OH270369   6.435   6.827  13.964 -0.0240  0.3251 -0.4442
16293TIP3    H170370   6.421   6.738  13.998 -2.4376  0.9872  0.5132
16293TIP3    H270371   6.424   6.819  13.870 -0.4830 -0.3545 -0.3401
16294TIP3   OH270372   0.835   0.951   2.539 -0.2804 -0.0078  0.4871
16294TIP3    H170373   0.837   0.894   2.462  0.4953  1.0127 -0.2889
16294TIP3    H270374   0.834   0.891   2.613  3.9890 -1.1729 -0.1597
16295TIP3   OH270375   1.835   0.941   0.550  0.4297  0.6640 -0.2149
16295TIP3    H170376   1.781   0.906   0.479  1.8324 -1.8583 -0.1796
16295TIP3    H270377   1.843   0.868   0.612  0.4497  2.3287  1.8502
16296TIP3   OH270378   4.971   4.953  15.295 -0.3791  0.1186  0.1274
16296TIP3    H170379   5.047   4.993  15.253  0.2996  0.8916  2.0072
16296TIP3    H270380   4.899   4.967  15.234  0.7329  0.4054 -1.1575
16297TIP3   OH270381   3.744   6.067  17.045 -0.5598 -0.4746  0.0800
16297TIP3    H170382   3.666   6.032  17.003 -1.4785  2.5143 -0.9820
16297TIP3    H270383   3.744   6.160  17.022  3.3063 -0.3111  0.0554
16298TIP3   OH270384   4.554   0.711  15.488 -0.2091  0.1231  0.7144
16298TIP3    H170385   4.540   0.691  15.396  0.7268 -0.0308  0.5929
16298TIP3    H270386   4.468   0.703  15.528 -0.8409  1.3251 -0.3494
16299TIP3   OH270387   5.676   0.567   5.869  0.7121 -0.2940 -0.2468
16299TIP3    H170388   5.697   0.491   5.923  0.8902  0.0454  0.1722
16299TIP3    H270389   5.585   0.588   5.891  1.1724  0.6204  0.9048
16300TIP3   OH270390   0.546   4.078   2.142 -0.2044 -0.2271 -0.0778
16300TIP3    H170391   0.538   4.037   2.055 -0.7176  1.0076 -0.6341
16300TIP3    H270392   0.521   4.169   2.128 -1.1678 -0.1997  1.5406
16301TIP3   OH270393   1.099   1.136   4.069 -0.0744  0.0772  0.2182
16301TIP3    H170394   1.035   1.189   4.115  0.5129 -0.7296  2.0391
16301TIP3    H270395   1.178   1.191   4.066 -0.0537  0.0568  0.3734
16302TIP3   OH270396   3.047   5.648   6.380  0.4761 -0.6800 -0.8759
16302TIP3    H170397   3.091   5.619   6.460  2.4807  2.5455 -0.6505
16302TIP3    H270398   2.956   5.621   6.392  0.8229 -0.8723  2.2135
16303TIP3   OH270399   0.400   4.116   4.215 -0.0667 -0.2032 -0.5983
16303TIP3    H170400   0.360   4.202   4.227  1.1287  0.3501 -0.4323
16303TIP3    H270401   0.384   4.070   4.298  1.2789  0.7129  0.2012
16304TIP3   OH270402   0.691   0.084  15.994  0.1000 -0.3858  0.2057
16304TIP3    H170403   0.626   0.154  16.007  0.8306  0.2508  0.5062
16304TIP3    H270404   0.638   0.005  15.982 -0.7583  0.2792 -0.5541
16305TIP3   OH270405   2.586   3.860   5.277 -0.1536  0.2221 -0.0726
16305TIP3    H170406   2.508   3.815   5.245 -1.8576  1.3985  2.1303
16305TIP3    H270407   2.631   3.890   5.198 -1.6431 -0.9491 -1.4258
16306TIP3   OH270408   0.078   4.043  10.858  0.2649  0.4420  0.8194
16306TIP3    H170409   0.105   3.995  10.936  0.2305 -0.5566  0.2271
16306TIP3    H270410   0.120   3.997  10.785  1.8420  2.4756  0.3568
16307TIP3   OH270411   6.643   4.816   1.783  0.3486  0.1367  0.3828
16307TIP3    H170412   6.662   4.796   1.874  0.2337  0.3065  0.4454
16307TIP3    H270413   6.728   4.837   1.744  0.5420 -0.9048  0.1999
16308TIP3   OH270414   5.019   5.101   6.388 -0.2945 -0.0990  0.4106
16308TIP3    H170415   4.964   5.179   6.396 -2.1549 -1.4340  1.6710
16308TIP3    H270416   5.087   5.113   6.454  0.3251  1.0655 -0.3912
16309TIP3   OH270417   5.811   6.423   0.141 -0.0437  0.1606  0.6078
16309TIP3    H170418   5.774   6.491   0.196  0.9873  0.8962  0.4333
16309TIP3    H270419   5.752   6.418   0.065 -1.0945 -0.3972  1.4406
16310TIP3   OH270420   1.755   5.537   5.059 -0.5327 -0.1463  0.0733
16310TIP3    H170421   1.816   5.465   5.042 -0.8476 -0.7963  1.4947
16310TIP3    H270422   1.775   5.603   4.993 -0.2712 -1.5666 -1.3161
16311TIP3   OH270423   0.505   3.020   0.303 -0.4151 -0.0530 -0.1192
16311TIP3    H170424   0.415   3.045   0.324  0.1628  0.9633  1.2771
16311TIP3    H270425   0.547   3.007   0.388  0.2786 -2.4534 -0.7248
16312TIP3   OH270426   4.289   2.576  12.338 -0.2011  0.5490  0.0575
16312TIP3    H170427   4.250   2.536  12.415 -0.7207 -1.8334 -1.3235
16312TIP3    H270428   4.376   2.536  12.332 -0.1411  0.7567 -0.5214
16313TIP3   OH270429   1.633   4.289   0.958  0.1623  0.3300  0.6469
16313TIP3    H170430   1.659   4.196   0.956  1.3338  0.6338 -1.2347
16313TIP3    H270431   1.688   4.330   0.891  0.2830  2.5805  2.0351
16314TIP3   OH270432   0.132   6.523  12.086 -0.1081  0.5350  0.0433
16314TIP3    H170433   0.218   6.509  12.047 -1.0101 -0.7278 -1.6653
16314TIP3    H270434   0.119   6.448  12.144 -0.9300 -0.5482 -1.4679
16315TIP3   OH270435   2.357   1.414  13.621 -0.2692 -0.0358  0.7948
16315TIP3    H170436   2.413   1.444  13.693  0.5336  1.8270 -0.5221
16315TIP3    H270437   2.294   1.355  13.662  0.5139  0.5224  2.9197
16316TIP3   OH270438   1.346   0.317  14.478  0.1112  0.1590 -0.0699
16316TIP3    H170439   1.302   0.315  14.393 -0.1937 -1.2707  0.1007
16316TIP3    H270440   1.275   0.328  14.541  0.0368 -1.4212  0.1566
16317TIP3   OH270441   0.392   0.679   4.043 -0.0128  0.5098  0.0800
16317TIP3    H170442   0.358   0.762   4.011  2.8908  0.8511 -2.6774
16317TIP3    H270443   0.395   0.689   4.138 -2.8854  2.1315  0.1143
16318TIP3   OH270444   3.621   6.358  16.387 -0.2340  0.0321 -0.0236
16318TIP3    H170445   3.615   6.436  16.442 -2.2291  0.8148 -1.2150
16318TIP3    H270446   3.706   6.321  16.406  0.3997  2.0122  1.2640
16319TIP3   OH270447   5.236   4.444  13.778 -0.0211  0.0571  0.2350
16319TIP3    H170448   5.245   4.531  13.740  0.3129  0.1875  0.6035
16319TIP3    H270449   5.227   4.386  13.702 -0.0824  0.3915 -0.0178
16320TIP3   OH270450   6.514   6.015   2.375  0.3363 -0.1020 -0.0817
16320TIP3    H170451   6.581   5.949   2.358  0.6946  0.2189  0.0934
16320TIP3    H270452   6.452   6.005   2.303 -0.4467 -1.6991  0.7538
16321TIP3   OH270453   3.860   0.158   2.403  0.1689  0.5102  0.6757
16321TIP3    H170454   3.912   0.239   2.403 -0.5450  1.0331  2.8436
16321TIP3    H270455   3.924   0.090   2.424  0.6110  0.5947 -0.3038
16322TIP3   OH270456   1.075   1.288   0.206  0.0799 -0.0723 -0.0819
16322TIP3    H170457   1.162   1.301   0.243  0.3588 -0.6464 -0.5139
16322TIP3    H270458   1.091   1.241   0.124 -0.7148 -1.1399  0.3543
16323TIP3   OH270459   0.172   5.196  13.523  0.1678 -0.9596 -0.0881
16323TIP3    H170460   0.236   5.231  13.460  0.4889 -0.6773  0.3884
16323TIP3    H270461   0.128   5.274  13.558  0.6196 -1.0534  0.6965
16324TIP3   OH270462   5.449   6.626   2.720  0.9280  0.5368  0.0256
16324TIP3    H170463   5.377   6.683   2.748 -0.9138 -1.5611 -0.1720
16324TIP3    H270464   5.514   6.634   2.789 -0.5516  0.7202  1.4574
16325TIP3   OH270465   4.951   3.506   5.113 -0.3110 -0.0720  0.4074
16325TIP3    H170466   4.972   3.468   5.028  1.8199  2.4437 -0.3360
16325TIP3    H270467   4.866   3.548   5.100 -0.3079 -0.2705 -0.2860
16326TIP3   OH270468   1.407   0.618   4.138 -0.8153 -0.1122  0.4253
16326TIP3    H170469   1.347   0.640   4.209  0.7941 -1.6509  2.3877
16326TIP3    H270470   1.417   0.523   4.144 -1.2908 -0.4719 -2.5037
16327TIP3   OH270471   4.534   5.277  12.205  0.3998  0.0157 -0.2737
16327TIP3    H170472   4.605   5.293  12.142  0.9327 -0.6636  0.1378
16327TIP3    H270473   4.556   5.334  12.279 -0.4398  1.1120 -0.8394
16328TIP3   OH270474   2.763   3.074   2.697  0.2871  0.5319 -0.8432
16328TIP3    H170475   2.817   3.041   2.769  0.4237 -0.1919 -1.2640
16328TIP3    H270476   2.684   3.019   2.699  0.4725  0.2330 -1.4937
16329TIP3   OH270477   1.635   3.535  11.733  0.6044 -0.0023 -0.1334
16329TIP3    H170478   1.712   3.493  11.772 -0.3676 -1.6479  0.1042
16329TIP3    H270479   1.660   3.553  11.643  1.4703  0.0389  0.1049
16330TIP3   OH270480   5.795   5.848  14.794 -0.5056 -0.1001  0.5830
16330TIP3    H170481   5.732   5.871  14.727 -0.3390 -0.2955  0.3584
16330TIP3    H270482   5.799   5.752  14.792 -1.7927 -0.2176  2.0538
16331TIP3   OH270483   6.590   1.831  13.999  0.0075 -0.3870 -0.1136
16331TIP3    H170484   6.501   1.860  14.020  0.0838 -1.6307  2.1534
16331TIP3    H270485   6.646   1.874  14.064  0.7178 -1.6299  0.1340
16332TIP3   OH270486   4.660   4.748   6.800 -0.2022  0.4587  0.0256
16332TIP3    H170487   4.732   4.808   6.817  0.2643  0.1968 -0.9587
16332TIP3    H270488   4.699   4.661   6.802 -0.2172  0.3773 -1.7317
16333TIP3   OH270489   6.548   6.591  12.245 -0.0366  0.3997 -0.0176
16333TIP3    H170490   6.601   6.568  12.169  0.2089  1.8165 -0.3054
16333TIP3    H270491   6.566   6.684  12.260 -0.3392  0.2401  1.5679
16334TIP3   OH270492   1.631   0.016  11.461 -0.3690 -0.6863  0.3231
16334TIP3    H170493   1.694  -0.031  11.516 -0.3492 -1.8332 -0.6309
16334TIP3    H270494   1.572  -0.052  11.429 -1.8195  0.3034  0.8150
16335TIP3   OH270495   5.203   2.064   3.615 -0.2129  0.2109 -0.1490
16335TIP3    H170496   5.262   2.087   3.686 -0.8635 -0.0377  0.4956
16335TIP3    H270497   5.255   2.007   3.558  0.0673 -0.3125  0.6031
16336TIP3   OH270498   4.906   0.623   3.085 -0.2859 -0.1197  0.1450
16336TIP3    H170499   4.877   0.678   3.158  0.0810  2.1984 -1.3428
16336TIP3    H270500   4.925   0.685   3.014  0.1387 -2.1982 -1.6803
16337TIP3   OH270501   5.101   6.230   4.516 -0.3206 -0.0534  0.0234
16337TIP3    H170502   5.173   6.167   4.518 -0.6379 -0.4403 -0.4701
16337TIP3    H270503   5.079   6.238   4.424  0.1262  1.2685  0.0149
16338TIP3   OH270504   6.731   0.588  13.386  0.5023 -0.4491 -0.0053
16338TIP3    H170505   6.774   0.608  13.303  0.4581 -0.5892 -0.0622
16338TIP3    H270506   6.757   0.498  13.406 -0.6944 -0.9524 -0.6274
16339TIP3   OH270507   5.016   0.224   1.475  0.8926 -0.0298  0.3065
16339TIP3    H170508   5.040   0.236   1.384  1.7520  0.8257  0.6313
16339TIP3    H270509   4.998   0.313   1.507 -1.2973 -0.4787  0.4798
16340TIP3   OH270510   3.606   4.559  13.337  0.6672 -0.3829  0.5647
16340TIP3    H170511   3.652   4.558  13.253  1.1376 -0.8376  0.8254
16340TIP3    H270512   3.537   4.624  13.325  0.5350 -0.6616 -0.2795
16341TIP3   OH270513   4.509   3.135  16.855 -0.4622 -0.2189  0.3828
16341TIP3    H170514   4.437   3.187  16.821 -1.6432 -1.5133  0.8046
16341TIP3    H270515   4.584   3.194  16.854 -1.6142  1.2998  0.3456
16342TIP3   OH270516   2.026   5.397  16.720  0.1301 -0.3772 -0.0185
16342TIP3    H170517   2.041   5.449  16.799  1.9903 -0.7210 -0.0918
16342TIP3    H270518   1.936   5.417  16.694 -0.5343 -0.3042  2.2072
16343TIP3   OH270519   4.701   5.767   4.715  0.6487  0.8525 -0.0260
16343TIP3    H170520   4.681   5.703   4.647 -1.0153  1.1056  0.1727
16343TIP3    H270521   4.711   5.850   4.668  0.0328  0.9313 -0.0253
16344TIP3   OH270522   5.242   5.886  11.191  0.0417 -0.4274 -0.4807
16344TIP3    H170523   5.277   5.953  11.132  1.6087  0.9714  1.8533
16344TIP3    H270524   5.312   5.821  11.198  0.1740 -0.1984  0.3906
16345TIP3   OH270525   0.166   2.100   3.818  0.6420 -0.1304 -0.0499
16345TIP3    H170526   0.083   2.088   3.770  0.4909 -0.4387  0.2845
16345TIP3    H270527   0.204   2.012   3.823  1.8025  0.2366 -1.6260
16346TIP3   OH270528   3.444   1.162   2.684  0.2331  0.0502  0.4270
16346TIP3    H170529   3.354   1.191   2.671  0.5501  1.3517  0.9769
16346TIP3    H270530   3.464   1.184   2.775  1.1902 -0.0003  0.2474
16347TIP3   OH270531   0.976   4.164  10.297  0.1387  0.0136  0.2683
16347TIP3    H170532   0.941   4.218  10.368 -0.6700 -2.5346  1.9458
16347TIP3    H270533   1.070   4.158  10.316  0.4583  1.6436 -0.5845
16348TIP3   OH270534   2.569   6.349   5.901  0.7660 -0.2210 -0.1587
16348TIP3    H170535   2.493   6.399   5.873 -0.1797 -0.1905  2.2134
16348TIP3    H270536   2.588   6.381   5.989  2.5623 -1.3320 -0.0878
16349TIP3   OH270537   3.025   2.241  17.035  0.1908 -0.2324 -0.6913
16349TIP3    H170538   3.085   2.174  17.069 -0.7907 -1.2333 -0.8828
16349TIP3    H270539   2.940   2.198  17.030 -0.5190  1.0946 -0.6475
16350TIP3   OH270540   6.570   5.612  13.035 -0.6672 -0.4885 -0.2780
16350TIP3    H170541   6.474   5.621  13.036 -0.7012 -0.8806  0.4728
16350TIP3    H270542   6.597   5.639  13.122  0.1262  1.7500 -1.1485
16351TIP3   OH270543   2.587   1.635  11.062 -0.5954 -0.6210 -0.1314
16351TIP3    H170544   2.622   1.574  10.998 -0.3369 -0.1366 -0.4608
16351TIP3    H270545   2.565   1.581  11.138 -2.0932 -1.4179 -1.0704
16352TIP3   OH270546   1.982   6.523  16.598  0.3153  0.1736  0.2502
16352TIP3    H170547   1.918   6.574  16.548 -1.2953 -1.5709  0.3951
16352TIP3    H270548   2.022   6.465  16.534 -0.6531 -0.9996  0.6579
16353TIP3   OH270549   5.675   3.201   4.861 -0.0301  0.0990  0.2110
16353TIP3    H170550   5.743   3.259   4.895 -0.4928  0.6153  0.2750
16353TIP3    H270551   5.695   3.193   4.768 -0.2225  0.7337  0.1119
16354TIP3   OH270552   0.991   4.654  16.383  0.0066 -0.8887  0.0078
16354TIP3    H170553   0.951   4.574  16.350 -1.2276 -0.1612 -0.3156
16354TIP3    H270554   1.080   4.653  16.347 -0.0914 -1.9576 -0.2319
16355TIP3   OH270555   0.458   6.401   3.900  0.3937 -1.0015  0.2586
16355TIP3    H170556   0.429   6.310   3.901 -0.2914 -0.7835  0.7529
16355TIP3    H270557   0.379   6.452   3.916  0.7698 -0.3147 -0.0241
16356TIP3   OH270558   6.208   4.188   1.767 -0.3437 -0.3362  0.0574
16356TIP3    H170559   6.246   4.266   1.726  0.4860 -0.2560  0.9409
16356TIP3    H270560   6.136   4.164   1.709 -0.3955  0.8787 -0.4287
16357TIP3   OH270561   3.841   4.693   4.053 -0.2130  0.6354  0.3361
16357TIP3    H170562   3.863   4.659   4.140 -0.6812  0.6513  0.4617
16357TIP3    H270563   3.853   4.618   3.994 -0.8221  0.3652  0.5520
16358TIP3   OH270564   2.509   5.786  13.351  0.5698 -0.1633  0.1316
16358TIP3    H170565   2.575   5.839  13.396 -0.2208  0.1123  0.9985
16358TIP3    H270566   2.545   5.771  13.264  1.6705  0.1718  0.5169
16359TIP3   OH270567   3.149   2.093   2.884  0.0308 -0.0008  0.1698
16359TIP3    H170568   3.233   2.067   2.848  0.2688  0.6193  0.2617
16359TIP3    H270569   3.147   2.188   2.873 -1.1503 -0.1241 -0.8982
16360TIP3   OH270570   3.488   1.542  13.635  0.4016 -0.3389  0.1532
16360TIP3    H170571   3.558   1.556  13.698  0.3787 -1.6184  0.4863
16360TIP3    H270572   3.512   1.597  13.560  1.2936 -0.0978  0.6070
16361TIP3   OH270573   6.595   6.287   2.435 -0.2312  0.3046 -0.0089
16361TIP3    H170574   6.563   6.197   2.431  0.5493  0.0030  0.2741
16361TIP3    H270575   6.687   6.278   2.459 -0.4693  1.2249  1.3943
16362TIP3   OH270576   1.385   2.488  14.074 -0.6584  0.0167 -0.1843
16362TIP3    H170577   1.419   2.517  14.159 -0.4609 -1.3770  0.2400
16362TIP3    H270578   1.299   2.451  14.094 -0.6582 -0.2121 -0.5980
16363TIP3   OH270579   4.628   6.210  12.754 -0.1920 -0.4126  0.6494
16363TIP3    H170580   4.700   6.154  12.724  0.4897  0.5690  0.3799
16363TIP3    H270581   4.624   6.280  12.688 -1.5868 -0.6013  0.5158
16364TIP3   OH270582   5.484   2.705  11.938  0.2749  0.6959  0.4457
16364TIP3    H170583   5.429   2.702  11.860  2.0326  0.0119 -0.8430
16364TIP3    H270584   5.505   2.797  11.949  0.5163  0.7385 -0.2932
16365TIP3   OH270585   3.645   3.828   4.750  0.1367  0.3528 -0.7206
16365TIP3    H170586   3.624   3.857   4.661 -0.7971 -0.6950 -0.8692
16365TIP3    H270587   3.563   3.839   4.798 -0.1038 -1.4690 -0.6594
16366TIP3   OH270588   1.930   3.076  10.966  0.7010 -0.0011  0.0962
16366TIP3    H170589   1.993   3.144  10.942  0.8394 -0.3646 -0.5881
16366TIP3    H270590   1.949   3.003  10.907 -0.3122 -0.1452 -0.0737
16367TIP3   OH270591   1.612   2.258  15.747  0.2668 -0.0063 -0.3795
16367TIP3    H170592   1.574   2.318  15.811 -1.9670 -1.5986 -0.0587
16367TIP3    H270593   1.697   2.295  15.725 -0.2220  2.2142  1.1938
16368TIP3   OH270594   3.809   1.377   5.945 -0.5742 -0.5074 -0.2984
16368TIP3    H170595   3.827   1.388   6.038 -3.7095 -1.4848  0.5308
16368TIP3    H270596   3.874   1.313   5.916  0.4519 -0.1869  1.1878
16369TIP3   OH270597   3.808   5.340   1.877  0.1077 -0.0737 -0.8500
16369TIP3    H170598   3.736   5.277   1.873  0.5897 -0.5975 -3.0186
16369TIP3    H270599   3.877   5.295   1.926 -0.5659 -0.0664  0.1244
16370TIP3   OH270600   3.828   4.407  10.715 -0.0174  0.1515 -0.2405
16370TIP3    H170601   3.885   4.433  10.787  0.5124  2.6616 -1.4558
16370TIP3    H270602   3.888   4.391  10.641 -0.5472 -2.2875 -0.2536
16371TIP3   OH270603   1.940   1.478   0.337  0.1634  0.2186 -0.2088
16371TIP3    H170604   1.854   1.503   0.372  0.1972 -0.3366  0.2853
16371TIP3    H270605   1.920   1.413   0.269  0.2064 -0.1442  0.1225
16372TIP3   OH270606   5.343   3.071  13.481 -0.4227  0.6042 -0.1589
16372TIP3    H170607   5.283   3.145  13.472 -0.7133  0.6433  1.7603
16372TIP3    H270608   5.300   2.999  13.434 -0.6303  1.3530 -1.1545
16373TIP3   OH270609   5.290   5.465   4.146 -0.1215 -0.2104 -0.0310
16373TIP3    H170610   5.197   5.452   4.162 -0.0735 -0.2539  0.2119
16373TIP3    H270611   5.334   5.409   4.210  0.0724 -0.0755 -0.0433
16374TIP3   OH270612   4.403   0.425  11.229 -0.5634 -0.3763 -0.3110
16374TIP3    H170613   4.397   0.377  11.146 -0.5335 -0.6771 -0.1401
16374TIP3    H270614   4.480   0.480  11.219 -1.3214  0.6081 -1.0132
16375TIP3   OH270615   4.039   3.109   0.564  0.3069 -0.1451  0.4139
16375TIP3    H170616   4.102   3.175   0.594  1.2547 -1.1581  0.7175
16375TIP3    H270617   3.964   3.120   0.622  0.1537  1.1050  0.0227
16376TIP3   OH270618   5.036   6.084   1.891  0.0816 -0.3760  0.3428
16376TIP3    H170619   5.071   6.001   1.859  2.4880 -0.3081  2.5519
16376TIP3    H270620   5.051   6.083   1.985 -0.4488  2.2777  0.5490
16377TIP3   OH270621   2.469   2.251  16.052 -0.5319 -0.2008 -0.0468
16377TIP3    H170622   2.420   2.332  16.043 -0.7888 -0.2950  0.4848
16377TIP3    H270623   2.530   2.252  15.978 -1.4353 -0.1679 -0.8008
16378TIP3   OH270624   4.929   2.661   3.900 -0.5665 -0.2485  0.1986
16378TIP3    H170625   4.915   2.698   3.988  0.0433 -1.7899  0.9817
16378TIP3    H270626   4.957   2.571   3.916  2.4725  0.2493 -1.4596
16379TIP3   OH270627   6.600   6.765  15.540 -0.6676  0.0670 -0.5684
16379TIP3    H170628   6.554   6.846  15.518 -1.9962 -0.5978 -0.3617
16379TIP3    H270629   6.571   6.702  15.474 -0.2698 -0.4572 -0.2507
16380TIP3   OH270630   6.627   5.494   0.568 -0.2868  0.9528 -0.3133
16380TIP3    H170631   6.610   5.455   0.481 -1.4961  0.6566  0.0307
16380TIP3    H270632   6.541   5.493   0.611  0.5539 -0.2937  1.4585
16381TIP3   OH270633   4.059   6.265   2.356  0.5665 -0.0703  0.4317
16381TIP3    H170634   4.139   6.289   2.309  0.6273 -0.2267  0.4560
16381TIP3    H270635   4.067   6.171   2.370 -0.4441 -0.4236 -1.1469
16382TIP3   OH270636   5.040   6.539  12.152 -0.2490  0.1907  0.2871
16382TIP3    H170637   5.003   6.616  12.109 -3.1581 -1.2038  0.0868
16382TIP3    H270638   5.083   6.491  12.081  1.1795  1.2997  0.3346
16383TIP3   OH270639   0.025   6.147   6.296  0.0961 -0.4592  0.1035
16383TIP3    H170640  -0.058   6.188   6.270  0.2982 -0.7280 -1.0373
16383TIP3    H270641   0.064   6.208   6.359 -2.0319 -1.4127  2.5170
16384TIP3   OH270642   1.629   1.070   4.057  0.0567  0.0212  0.7550
16384TIP3    H170643   1.698   1.134   4.045  0.3370 -0.7797 -3.4330
16384TIP3    H270644   1.672   0.985   4.043 -1.3393 -0.6446  0.2620
16385TIP3   OH270645   6.794   5.973  15.802 -0.2860 -0.4096  0.2661
16385TIP3    H170646   6.788   6.041  15.870  1.0651 -0.8017  0.8119
16385TIP3    H270647   6.842   5.902  15.844 -0.7574 -1.2818 -0.6374
16386TIP3   OH270648   3.786   3.656  15.636  0.3925 -0.1374  0.2021
16386TIP3    H170649   3.712   3.660  15.696 -0.2689  1.3606 -0.6490
16386TIP3    H270650   3.778   3.570  15.594 -0.0327 -0.5607  1.1295
16387TIP3   OH270651   4.844   0.557  12.004 -0.2404 -0.8049  0.5666
16387TIP3    H170652   4.782   0.629  11.995  1.0179  0.1829 -0.6960
16387TIP3    H270653   4.804   0.484  11.956 -0.3231 -0.0857 -0.5035
16388TIP3   OH270654   0.701   6.580   2.503 -0.4085 -0.4450  0.4216
16388TIP3    H170655   0.797   6.576   2.509 -0.3271  1.1576  0.7049
16388TIP3    H270656   0.681   6.674   2.507 -1.9414 -0.7034 -0.4654
16389TIP3   OH270657   2.353   0.776  16.978  0.3424 -0.2742 -0.1796
16389TIP3    H170658   2.349   0.868  17.003  0.3760 -0.4174  0.3596
16389TIP3    H270659   2.268   0.758  16.937  0.5353  0.1311 -0.7643
16390TIP3   OH270660   1.221   3.890  15.407 -0.4898  0.3823 -0.2824
16390TIP3    H170661   1.127   3.885  15.389 -0.2917  0.1647 -1.2977
16390TIP3    H270662   1.254   3.953  15.344 -0.2201  1.8408  1.2415
16391TIP3   OH270663   1.726   2.700   4.014 -0.2793 -0.5126  0.2575
16391TIP3    H170664   1.818   2.702   3.988 -0.2933 -1.4732  0.0721
16391TIP3    H270665   1.700   2.609   3.999 -1.4397 -0.0930 -0.3078
16392TIP3   OH270666   0.220   3.068  15.778 -0.0626  0.0028  0.1618
16392TIP3    H170667   0.263   3.091  15.695 -0.3733 -1.0262 -0.2988
16392TIP3    H270668   0.289   3.079  15.844 -0.0221  1.5894 -0.0991
16393TIP3   OH270669   1.626   5.410  14.167 -0.6217 -0.2349 -0.0227
16393TIP3    H170670   1.709   5.430  14.209  0.3382 -0.8625 -1.5411
16393TIP3    H270671   1.561   5.455  14.220  0.5422 -0.6695  1.8933
16394TIP3   OH270672   2.670   4.008   5.065  0.0170 -0.1004  0.1204
16394TIP3    H170673   2.607   4.078   5.047 -1.4426 -1.9968 -2.8929
16394TIP3    H270674   2.735   4.015   4.995  0.8897 -0.6559  0.8507
16395TIP3   OH270675   0.902   2.046  12.187  0.1133  0.0181 -0.3356
16395TIP3    H170676   0.920   1.953  12.200  1.3776  0.3147  0.1670
16395TIP3    H270677   0.893   2.082  12.276 -1.8012  0.1407 -0.5361
16396TIP3   OH270678   1.134   2.318   0.369 -0.1249  0.0222 -0.6470
16396TIP3    H170679   1.089   2.309   0.453  2.0128 -0.6039  0.5133
16396TIP3    H270680   1.092   2.392   0.326 -2.1936 -0.5174  0.3410
16397TIP3   OH270681   3.791   3.855  12.711  0.6501  0.1093 -0.0740
16397TIP3    H170682   3.713   3.808  12.683  0.6220  0.8591 -1.3477
16397TIP3    H270683   3.851   3.851  12.636  1.9587 -0.6608  0.9590
16398TIP3   OH270684   0.064   1.331   0.754  0.4444  0.0133 -0.0710
16398TIP3    H170685   0.053   1.237   0.738 -0.0160  0.0974 -0.2618
16398TIP3    H270686  -0.023   1.368   0.742  0.3404  0.2815  1.3520
16399TIP3   OH270687   1.271   1.424   0.895  0.0804  0.6710  0.9944
16399TIP3    H170688   1.345   1.483   0.908 -0.6484  1.5943  1.0619
16399TIP3    H270689   1.301   1.361   0.830  0.8148  1.2250  0.7878
16400TIP3   OH270690   4.081   0.995  14.675  0.5325 -0.2052  0.0666
16400TIP3    H170691   4.135   1.052  14.729  0.7405  0.5247 -0.8681
16400TIP3    H270692   3.992   1.011  14.705  0.5982  0.5669 -0.1170
16401TIP3   OH270693   5.551   2.916  13.568 -0.5049 -0.2786 -0.1652
16401TIP3    H170694   5.478   2.976  13.585 -0.1371  0.3358 -0.7102
16401TIP3    H270695   5.519   2.860  13.497 -0.8024 -0.6510  0.2588
16402TIP3   OH270696   6.402   6.458   1.161 -0.2081 -0.2759  0.1605
16402TIP3    H170697   6.381   6.507   1.240 -0.3285  0.3951 -0.2739
16402TIP3    H270698   6.353   6.376   1.169  0.7211 -0.7413  1.3238
16403TIP3   OH270699   2.704   0.964   4.289 -0.2507  0.2494  0.1450
16403TIP3    H170700   2.756   1.026   4.340 -1.6098  5.0516 -3.4511
16403TIP3    H270701   2.765   0.930   4.223 -0.0709 -0.1319  0.5066
16404TIP3   OH270702   4.465   2.605   6.401 -0.1424  0.3428 -0.1155
16404TIP3    H170703   4.452   2.566   6.314 -1.2670  0.5858 -0.0605
16404TIP3    H270704   4.543   2.660   6.390 -0.0466  0.0754 -0.8651
16405TIP3   OH270705   2.867   2.067  13.339  0.1646 -0.2090 -0.8435
16405TIP3    H170706   2.896   2.014  13.413 -2.3872 -1.4607 -0.6490
16405TIP3    H270707   2.939   2.061  13.276  0.7141 -2.4435 -0.0935
16406TIP3   OH270708   1.329   2.179   4.216 -0.1158  0.1859  0.2091
16406TIP3    H170709   1.240   2.154   4.243  0.8322 -1.0399  2.4231
16406TIP3    H270710   1.334   2.273   4.233 -1.1922  0.4215 -0.6436
16407TIP3   OH270711   6.299   4.695  17.117  0.0039  0.1873 -0.5459
16407TIP3    H170712   6.253   4.685  17.200  1.0049  2.5621  0.4082
16407TIP3    H270713   6.232   4.725  17.055 -0.1271  1.9883  0.3994
16408TIP3   OH270714   4.707   3.531  11.612 -0.6783 -0.9056 -0.7420
16408TIP3    H170715   4.769   3.590  11.570  1.7557 -2.2377  0.7887
16408TIP3    H270716   4.652   3.588  11.666 -0.4666  0.2623 -1.7292
16409TIP3   OH270717   3.959   5.232   4.308 -0.1623 -0.0602  0.0029
16409TIP3    H170718   3.910   5.258   4.386  1.4463  0.7339  0.7913
16409TIP3    H270719   3.907   5.265   4.235 -1.0211  0.3671  0.7831
16410TIP3   OH270720   2.894   2.985  10.157 -0.7662  0.2792  0.1284
16410TIP3    H170721   2.804   2.966  10.131 -0.7726 -1.9287  1.5231
16410TIP3    H270722   2.886   3.061  10.215 -1.2872  2.1260 -2.2148
16411TIP3   OH270723   3.213   4.492  11.832 -0.3434 -0.1001  0.6439
16411TIP3    H170724   3.265   4.548  11.890  0.1675  1.3303 -1.1178
16411TIP3    H270725   3.266   4.412  11.824  2.2301  1.6780 -1.8553
16412TIP3   OH270726   4.025   0.155   2.125 -0.1364 -0.2289  0.1155
16412TIP3    H170727   4.065   0.076   2.162  1.2865 -0.5053 -1.8620
16412TIP3    H270728   4.043   0.150   2.031  0.3057  2.6108 -0.0494
16413TIP3   OH270729   3.098   6.740  15.546  0.1860  0.2163  0.1468
16413TIP3    H170730   3.048   6.775  15.620 -0.8904  1.3453 -1.0587
16413TIP3    H270731   3.132   6.818  15.501 -1.0933 -0.2992 -1.8237
16414TIP3   OH270732   0.233   0.745  16.291 -0.0455 -0.4445  0.0439
16414TIP3    H170733   0.298   0.766  16.358 -0.2973  0.7240 -0.0607
16414TIP3    H270734   0.281   0.692  16.226  0.2462 -1.4124  1.0214
16415TIP3   OH270735   1.033   0.372  14.959 -0.2218  0.3365 -0.0155
16415TIP3    H170736   0.990   0.457  14.964 -0.2301  0.2949  0.6827
16415TIP3    H270737   0.961   0.308  14.963 -0.1985  0.2890 -0.3075
16416TIP3   OH270738   1.609   6.364   5.957 -0.1062  0.2578  0.2333
16416TIP3    H170739   1.678   6.321   5.907 -1.4536 -2.6015  0.6481
16416TIP3    H270740   1.646   6.449   5.981  2.9271 -0.8182 -0.2654
16417TIP3   OH270741   5.441   5.798   4.391  0.1589 -0.8999  0.2446
16417TIP3    H170742   5.486   5.726   4.436  0.9550 -0.0265  0.8967
16417TIP3    H270743   5.493   5.875   4.412 -2.2317  0.3905  1.9846
16418TIP3   OH270744   5.785   0.976   5.069 -0.1770 -0.7729 -0.0995
16418TIP3    H170745   5.728   0.953   4.995 -1.2429  2.2525 -0.3432
16418TIP3    H270746   5.859   1.020   5.028  0.5347 -1.3972  0.5000
16419TIP3   OH270747   0.548   5.458  13.428  0.0424  0.0086  0.0510
16419TIP3    H170748   0.550   5.520  13.501  0.1433  1.7012 -1.2992
16419TIP3    H270749   0.608   5.388  13.453  1.1662  1.2618  0.9975
16420TIP3   OH270750   3.670   2.774  11.831 -0.2939  0.1697 -0.3860
16420TIP3    H170751   3.578   2.792  11.846  0.0554  0.9661  0.9470
16420TIP3    H270752   3.704   2.747  11.917  0.1897 -2.7075 -1.3519
16421TIP3   OH270753   0.156   4.981   3.142  0.5363  0.4946 -0.1841
16421TIP3    H170754   0.133   4.954   3.231  0.3902  3.7231  0.9068
16421TIP3    H270755   0.078   4.961   3.090 -0.7231  1.5861  1.1879
16422TIP3   OH270756   1.059   3.699  16.882 -0.3590 -0.0848 -0.0585
16422TIP3    H170757   1.040   3.776  16.936  0.2486 -1.0704  1.6550
16422TIP3    H270758   0.974   3.661  16.864 -0.5679  0.1999  0.3108
16423TIP3   OH270759   5.203   6.541   0.848 -0.2619  0.1405 -0.4245
16423TIP3    H170760   5.112   6.539   0.819 -0.0340 -0.3976 -1.1466
16423TIP3    H270761   5.247   6.599   0.786  0.1591 -0.7297 -0.9755
16424TIP3   OH270762   0.835   1.749  14.505  0.0959  0.3131  0.9418
16424TIP3    H170763   0.877   1.739  14.591  0.3751  2.9960  1.1918
16424TIP3    H270764   0.861   1.671  14.457  3.0613  0.4981  2.0519
16425TIP3   OH270765   1.582   4.613   0.160  0.2366  0.4935  0.0990
16425TIP3    H170766   1.615   4.588   0.073  0.8901  0.8986  0.2158
16425TIP3    H270767   1.661   4.636   0.209 -0.1657  0.6929  0.6630
16426TIP3   OH270768   4.665   4.900   5.808 -0.2434 -0.6478 -0.3101
16426TIP3    H170769   4.656   4.928   5.716  0.8424  0.5167 -0.0942
16426TIP3    H270770   4.575   4.899   5.841 -0.7717 -2.0990 -1.6460
16427TIP3   OH270771   4.848   1.851   2.954 -0.0011  0.3445 -0.6839
16427TIP3    H170772   4.940   1.827   2.947 -0.1019  0.1544 -1.4828
16427TIP3    H270773   4.804   1.769   2.976  0.0255  0.4424 -0.2681
16428TIP3   OH270774   0.954   3.288  11.461 -0.1971 -0.1010  0.1085
16428TIP3    H170775   0.967   3.231  11.385  0.1979 -2.1022  1.5848
16428TIP3    H270776   0.898   3.359  11.429 -0.6645 -1.2819 -1.8637
16429TIP3   OH270777   1.673   3.404  12.282  0.4610 -0.1940  0.6848
16429TIP3    H170778   1.606   3.455  12.235  0.7773  0.8345  1.3116
16429TIP3    H270779   1.669   3.317  12.242  1.3418  0.8329 -1.9024
16430TIP3   OH270780   4.803   3.276  16.690  0.3816  0.5938 -0.3742
16430TIP3    H170781   4.744   3.265  16.615 -0.9432 -1.8109  0.8901
16430TIP3    H270782   4.852   3.194  16.695  1.4067  1.2359  0.6258
16431TIP3   OH270783   2.680   4.736   0.899  0.3755 -0.3964  0.4358
16431TIP3    H170784   2.768   4.708   0.924  0.3342  0.1670  1.2457
16431TIP3    H270785   2.677   4.722   0.804  1.0125 -1.2836  0.5306
16432TIP3   OH270786   2.109   3.279  15.956  0.0665 -0.1298 -0.2794
16432TIP3    H170787   2.177   3.332  15.914 -0.1084  0.4516  0.1563
16432TIP3    H270788   2.050   3.343  15.996 -0.1825 -0.6518  0.2069
16433TIP3   OH270789   1.701   2.775   0.189 -0.5408 -0.3108 -0.0745
16433TIP3    H170790   1.753   2.704   0.150  0.0165 -0.4209  0.8365
16433TIP3    H270791   1.685   2.746   0.279 -0.6234  0.5499  0.1979
16434TIP3   OH270792   3.128   3.873   5.332 -0.4525  0.0237 -0.1042
16434TIP3    H170793   3.195   3.854   5.266  0.6356  0.0834  0.9506
16434TIP3    H270794   3.053   3.820   5.306 -0.7382  1.4152 -2.4340
16435TIP3   OH270795   4.737   6.738   2.500 -0.0857 -1.0528  0.4554
16435TIP3    H170796   4.691   6.672   2.552  0.7015 -2.6054 -0.7539
16435TIP3    H270797   4.761   6.693   2.419 -1.8211  1.4566 -1.5993
16436TIP3   OH270798   1.502   5.933  11.514  0.3859  0.0231  0.1538
16436TIP3    H170799   1.562   5.874  11.468 -1.5498 -0.8591 -1.3876
16436TIP3    H270800   1.455   5.979  11.445 -0.2162  1.2436  1.3177
16437TIP3   OH270801   0.907   0.099   3.675  0.0049 -0.2950  0.2156
16437TIP3    H170802   0.964   0.156   3.624 -0.6883  0.0731 -0.1624
16437TIP3    H270803   0.916   0.012   3.635  0.9312 -0.4287  0.6853
16438TIP3   OH270804   1.774   6.671   3.378 -0.5172 -0.1258  0.5105
16438TIP3    H170805   1.805   6.606   3.441 -2.7657  0.3645  2.2281
16438TIP3    H270806   1.811   6.754   3.409 -0.7563 -0.0312  0.5414
16439TIP3   OH270807   5.802   5.553   1.381 -0.4266  0.1373  0.0714
16439TIP3    H170808   5.877   5.530   1.436 -0.4193  0.4190  0.1823
16439TIP3    H270809   5.739   5.483   1.396 -0.6328  0.4784  0.8438
16440TIP3   OH270810   1.359   5.858   0.605  0.3914  0.2974  0.1542
16440TIP3    H170811   1.296   5.794   0.636 -1.3420  1.9680  0.2521
16440TIP3    H270812   1.429   5.805   0.567 -1.5984 -1.6647 -1.0615
16441TIP3   OH270813   3.902   4.580  12.302  0.2691  0.3115 -0.0767
16441TIP3    H170814   3.808   4.568  12.313  0.4404 -1.1487  0.0241
16441TIP3    H270815   3.941   4.522  12.368  1.2298  0.7303 -0.2656
16442TIP3   OH270816   6.322   2.741  14.857  0.1509 -0.4259 -0.2852
16442TIP3    H170817   6.298   2.648  14.863  0.0820 -0.3746  0.3880
16442TIP3    H270818   6.382   2.754  14.930 -2.3974  0.8070  1.7995
16443TIP3   OH270819   0.581   6.815  10.309  0.4459 -0.0670  0.1162
16443TIP3    H170820   0.595   6.833  10.402  2.8052  0.0955 -0.1952
16443TIP3    H270821   0.526   6.887  10.279  2.8551  2.1490  0.6312
16444TIP3   OH270822   5.925   2.411  15.739  0.2957 -0.3508 -0.0672
16444TIP3    H170823   5.927   2.322  15.703 -0.6146 -0.8552  1.0163
16444TIP3    H270824   5.849   2.452  15.697 -1.9258 -1.5536  2.4254
16445TIP3   OH270825   5.308   4.311  14.480  0.0385 -0.0381  0.1386
16445TIP3    H170826   5.252   4.280  14.408  0.4579 -0.0009 -0.2021
16445TIP3    H270827   5.393   4.272  14.463  0.2728  0.3818  0.3435
16446TIP3   OH270828   5.397   0.412   2.933  0.0939 -0.3368 -0.0953
16446TIP3    H170829   5.372   0.411   3.026  1.6457  0.6451  0.3666
16446TIP3    H270830   5.337   0.475   2.893 -1.9121 -2.2056 -0.2164
16447TIP3   OH270831   6.124   6.619   5.658  0.0863 -0.1923  0.1818
16447TIP3    H170832   6.133   6.539   5.710 -0.9463 -0.9501 -0.7475
16447TIP3    H270833   6.107   6.588   5.569 -0.6887  1.0599 -0.1302
16448TIP3   OH270834   1.965   6.740   0.727  0.1261  0.0350 -0.1243
16448TIP3    H170835   1.882   6.773   0.693  0.2834  0.7092  0.1451
16448TIP3    H270836   1.942   6.654   0.763 -0.3270 -0.0569 -0.6188
16449TIP3   OH270837   4.217   5.279  17.178  0.0023  0.4145  0.2819
16449TIP3    H170838   4.290   5.325  17.219 -0.6462  0.6822  1.1944
16449TIP3    H270839   4.255   5.234  17.103  0.7843  1.8943 -0.2492
16450TIP3   OH270840   2.895   0.218   1.189 -0.2620 -0.3188  0.2574
16450TIP3    H170841   2.945   0.139   1.171  1.2744  0.2666  1.7172
16450TIP3    H270842   2.914   0.238   1.281 -0.9002  1.5303  0.0277
16451TIP3   OH270843   5.633   3.125   2.319 -0.9332  0.1348  0.3535
16451TIP3    H170844   5.628   3.185   2.244 -2.3739 -0.8205 -0.3589
16451TIP3    H270845   5.542   3.109   2.343 -1.0959 -4.9918 -2.1978
16452TIP3   OH270846   1.979   0.171   3.203 -0.2591  0.3236 -0.3397
16452TIP3    H170847   2.028   0.211   3.275 -1.9563  0.1649  0.9731
16452TIP3    H270848   1.991   0.077   3.216 -0.6020  0.2948 -0.2211
16453TIP3   OH270849   1.030   4.247  16.239  0.6231 -0.0818 -0.7325
16453TIP3    H170850   1.037   4.151  16.236  0.5662 -0.0695 -1.6588
16453TIP3    H270851   1.062   4.276  16.154  1.4562  0.7906 -0.1361
16454TIP3   OH270852   4.440   1.441  13.416  0.6991  0.0671 -0.1654
16454TIP3    H170853   4.522   1.483  13.441  1.5839 -0.7785 -1.5268
16454TIP3    H270854   4.414   1.392  13.494  0.2371  2.1193  1.0701
16455TIP3   OH270855   6.260   0.134  13.267 -0.3583  0.3817  0.7400
16455TIP3    H170856   6.199   0.177  13.208  2.3310  0.6121 -2.1515
16455TIP3    H270857   6.269   0.194  13.341 -2.4768  0.9845  0.5707
16456TIP3   OH270858   5.590   0.852   1.683  0.0264 -0.5958 -0.2178
16456TIP3    H170859   5.660   0.788   1.696 -0.2660 -0.8753  0.0191
16456TIP3    H270860   5.563   0.841   1.592 -0.3289 -1.1321 -0.0531
16457TIP3   OH270861   6.241   2.419  16.273  0.3555  0.3809 -0.2753
16457TIP3    H170862   6.267   2.363  16.199  0.7255 -1.4450  1.1645
16457TIP3    H270863   6.145   2.425  16.265  0.2913 -0.5746 -0.4114
16458TIP3   OH270864   6.454   4.649   6.333  0.3484  0.0526 -0.1802
16458TIP3    H170865   6.362   4.650   6.308  0.0112 -2.3017  0.7324
16458TIP3    H270866   6.464   4.724   6.392 -1.2061 -0.2079  0.4377
16459TIP3   OH270867   6.467   4.658  16.128  0.2748 -0.2563 -0.1019
16459TIP3    H170868   6.494   4.567  16.137 -0.6086 -0.4666  0.5437
16459TIP3    H270869   6.544   4.709  16.151  0.3774 -0.8408  0.8647
16460TIP3   OH270870   3.909   6.307  13.755  0.6126 -0.8173  0.3534
16460TIP3    H170871   3.974   6.376  13.739  1.1548 -1.1604  1.0247
16460TIP3    H270872   3.895   6.310  13.850  0.1762 -1.2183  0.3023
16461TIP3   OH270873   3.372   2.294  12.701 -0.7481  0.2966  0.4860
16461TIP3    H170874   3.440   2.273  12.638 -0.3449 -0.2889  1.1088
16461TIP3    H270875   3.411   2.359  12.759 -0.2533 -0.9705  1.6219
16462TIP3   OH270876   3.566   5.908  14.540  0.3983  0.2559  0.1693
16462TIP3    H170877   3.482   5.864  14.530  0.7680 -0.2814 -0.6897
16462TIP3    H270878   3.569   5.933  14.632  0.3511 -1.8824  0.8057
16463TIP3   OH270879   3.477   0.805   6.377 -0.7748 -1.0152 -0.2502
16463TIP3    H170880   3.459   0.893   6.411  1.1295  0.2303 -2.1377
16463TIP3    H270881   3.391   0.765   6.367 -1.5871 -0.1342  2.4667
16464TIP3   OH270882   0.239   4.761   6.958 -0.6316  0.6991  0.0098
16464TIP3    H170883   0.325   4.723   6.943 -1.2274 -0.7739  0.1913
16464TIP3    H270884   0.248   4.810   7.040 -0.5244 -1.2916  1.2351
16465TIP3   OH270885   2.249   5.924  14.162  0.6296  0.0452 -0.1770
16465TIP3    H170886   2.278   5.990  14.099  0.7907 -0.4500 -0.6339
16465TIP3    H270887   2.154   5.920  14.151  0.4991  0.8854  0.5415
16466TIP3   OH270888   1.883   1.437   4.385  0.3049  0.4143  0.2761
16466TIP3    H170889   1.824   1.380   4.335  0.8622  2.0453 -2.4371
16466TIP3    H270890   1.931   1.377   4.443 -0.7935 -1.5415 -0.7287
16467TIP3   OH270891   4.278   5.892   5.611  0.1532 -0.4232  0.0694
16467TIP3    H170892   4.341   5.949   5.566  0.4975 -1.0232 -0.2187
16467TIP3    H270893   4.195   5.908   5.566  0.7854 -2.1246 -1.8405
16468TIP3   OH270894   1.427   4.173   2.960  0.5272  0.4973 -0.0478
16468TIP3    H170895   1.522   4.166   2.966  0.7504  2.4583 -0.6520
16468TIP3    H270896   1.400   4.218   3.040 -0.0255 -0.8157  0.5389
16469TIP3   OH270897   1.366   0.695  13.161  0.0321  0.1951 -0.0373
16469TIP3    H170898   1.288   0.661  13.117  0.2900 -0.3639 -0.0688
16469TIP3    H270899   1.351   0.789  13.167 -0.4458  0.1470 -0.4396
16470TIP3   OH270900   3.984   4.805  11.931 -0.1760  0.3525 -0.0635
16470TIP3    H170901   4.025   4.725  11.898 -1.6188  0.6564 -2.8509
16470TIP3    H270902   4.041   4.875  11.899 -0.3137  0.5682  0.1659
16471TIP3   OH270903   1.787   3.365   4.802 -0.0070 -0.2005  0.7996
16471TIP3    H170904   1.842   3.429   4.848  1.0142 -1.0242  0.7515
16471TIP3    H270905   1.767   3.407   4.718  2.4790 -0.7526 -0.1634
16472TIP3   OH270906   5.324   5.039   3.451  0.6120  0.5566  0.1384
16472TIP3    H170907   5.360   4.980   3.517 -0.1947  0.9747  0.9828
16472TIP3    H270908   5.353   5.002   3.368  1.5463 -0.0575  0.7141
16473TIP3   OH270909   3.727   1.159   0.548  0.4691  0.1129  0.5700
16473TIP3    H170910   3.814   1.159   0.587  0.7698 -0.0123 -0.0849
16473TIP3    H270911   3.688   1.241   0.575  0.8161  0.1944  0.8209
16474TIP3   OH270912   3.195   5.794  12.460 -0.3789  0.5551 -0.2807
16474TIP3    H170913   3.230   5.867  12.409  0.8862 -0.8638 -1.5093
16474TIP3    H270914   3.146   5.742  12.397 -1.4081  0.3935  0.6213
16475TIP3   OH270915   6.002   1.087   2.650  0.4300 -0.3768  0.3324
16475TIP3    H170916   5.945   1.162   2.636 -1.0301 -1.5291 -0.0998
16475TIP3    H270917   6.004   1.076   2.746  0.7117  0.2317  0.4024
16476TIP3   OH270918   5.382   1.274   2.588 -0.1912 -0.2338 -0.2407
16476TIP3    H170919   5.302   1.312   2.552 -0.6618 -0.5167  0.5006
16476TIP3    H270920   5.353   1.201   2.641  0.4911  0.1850  0.7430
16477TIP3   OH270921   0.704   1.253   4.901  0.0517 -0.2876 -0.0597
16477TIP3    H170922   0.745   1.167   4.900  0.4619 -0.1101  1.0053
16477TIP3    H270923   0.637   1.248   4.970 -0.3135  0.0695 -0.3766
16478TIP3   OH270924   6.658   2.837  13.988  0.1927  0.5500 -0.3560
16478TIP3    H170925   6.752   2.835  13.970  0.4807  0.0980  1.0142
16478TIP3    H270926   6.647   2.777  14.062 -1.0025  1.4781  0.2559
16479TIP3   OH270927   2.456   6.055  11.051 -0.1143 -0.4564  0.3751
16479TIP3    H170928   2.413   6.119  10.995  0.6031 -0.3378 -0.0504
16479TIP3    H270929   2.539   6.036  11.007  0.2455 -0.7265  1.1464
16480TIP3   OH270930   3.373   4.112   4.569 -0.4682  0.4356 -0.6806
16480TIP3    H170931   3.417   4.186   4.526 -0.0877  1.1387  0.8605
16480TIP3    H270932   3.281   4.124   4.547 -0.3691  1.1661 -0.7405
16481TIP3   OH270933   1.247   0.442   4.749 -0.2609 -0.1681  0.2768
16481TIP3    H170934   1.192   0.387   4.806  0.2665 -1.0399 -0.0317
16481TIP3    H270935   1.228   0.532   4.777 -0.7308 -0.5298  1.1752
16482TIP3   OH270936   2.853   6.691   2.403 -0.5480  0.6030  0.1440
16482TIP3    H170937   2.931   6.636   2.395 -0.7071  0.0965  1.7132
16482TIP3    H270938   2.886   6.773   2.440 -0.5297  1.0204 -0.7808
16483TIP3   OH270939   5.666   5.295  12.119 -0.1565  0.8524  0.2049
16483TIP3    H170940   5.737   5.259  12.065 -1.2600  0.2094 -0.8615
16483TIP3    H270941   5.664   5.238  12.196 -0.1745  0.2299 -0.2457
16484TIP3   OH270942   3.137   5.667   3.605 -0.3339 -0.2262  0.2584
16484TIP3    H170943   3.096   5.647   3.520 -1.2646  1.5615  0.2503
16484TIP3    H270944   3.064   5.692   3.661  0.4274 -0.1018  1.2105
16485TIP3   OH270945   5.256   2.150   2.717 -0.4396 -0.1860  0.5642
16485TIP3    H170946   5.230   2.097   2.641 -1.7413  1.3672 -0.1223
16485TIP3    H270947   5.174   2.188   2.749 -0.0155 -1.2848  3.1791
16486TIP3   OH270948   5.488   5.138  11.487  0.1110 -0.1805  0.1858
16486TIP3    H170949   5.412   5.146  11.429 -1.8354 -0.1213  2.5646
16486TIP3    H270950   5.551   5.202  11.455 -1.5121  0.9013 -0.9370
16487TIP3   OH270951   1.497   0.019  15.884 -0.6199 -0.0076  0.0961
16487TIP3    H170952   1.553  -0.059  15.874 -1.2629 -0.5154  0.4008
16487TIP3    H270953   1.527   0.059  15.966 -0.6025 -0.2023  0.1866
16488TIP3   OH270954   4.862   6.778  13.365  0.6436  0.1096  0.1923
16488TIP3    H170955   4.865   6.683  13.352 -0.6259  0.2722 -1.5798
16488TIP3    H270956   4.953   6.806  13.357  0.9328 -0.8641 -0.0671
16489TIP3   OH270957   3.932   3.502   5.483 -0.2341 -0.6347 -0.5011
16489TIP3    H170958   3.876   3.540   5.415  3.2293 -1.4370 -4.1845
16489TIP3    H270959   3.898   3.413   5.496 -2.8586  0.5096  1.4396
16490TIP3   OH270960   3.118   4.789   5.148  0.0351 -0.0645  0.3745
16490TIP3    H170961   3.184   4.738   5.102  1.2897 -0.7431  2.7525
16490TIP3    H270962   3.049   4.726   5.168 -0.2046  0.0779  0.0036
16491TIP3   OH270963   6.679   2.103  12.237  0.0211  0.3790  0.8221
16491TIP3    H170964   6.736   2.029  12.215 -1.2078 -0.9742  1.9098
16491TIP3    H270965   6.667   2.096  12.332 -0.4932  1.7007  0.8701
16492TIP3   OH270966   3.568   2.921   3.057 -0.2582  0.7170  0.1255
16492TIP3    H170967   3.558   2.831   3.025 -0.9903  1.0805 -0.7051
16492TIP3    H270968   3.642   2.916   3.118 -2.1527 -1.0633  2.4641
16493TIP3   OH270969   0.486   4.298  16.526  0.8499 -0.0182 -0.0674
16493TIP3    H170970   0.581   4.304  16.536  0.5726  1.1019  2.6886
16493TIP3    H270971   0.454   4.277  16.613 -1.4551 -0.7030 -1.0097
16494TIP3   OH270972   0.918   5.948   6.032  0.0859  0.2932  0.0252
16494TIP3    H170973   0.887   5.939   6.122  0.4279  0.2154  0.1348
16494TIP3    H270974   0.938   6.041   6.022  0.7742  0.1770  0.2689
16495TIP3   OH270975   3.480   3.815   4.256  0.1776 -0.2939 -0.3173
16495TIP3    H170976   3.555   3.796   4.199  0.6665  1.8881 -0.4940
16495TIP3    H270977   3.410   3.842   4.197 -0.6360 -1.8078 -0.1095
16496TIP3   OH270978   1.630   2.278  11.506 -0.1903  0.1617  0.3286
16496TIP3    H170979   1.694   2.295  11.576 -0.6660  1.7772  0.3982
16496TIP3    H270980   1.680   2.288  11.425 -0.1699  0.6373  0.3981
16497TIP3   OH270981   6.525   4.608   0.307 -0.3180  0.5318  0.4398
16497TIP3    H170982   6.515   4.529   0.254 -2.1571 -0.3584  1.9593
16497TIP3    H270983   6.558   4.575   0.391  0.6495  1.6316  0.5019
16498TIP3   OH270984   5.955   0.452  15.424 -0.0017 -0.3261 -0.4588
16498TIP3    H170985   5.883   0.516  15.426 -0.4866 -0.8060  3.0631
16498TIP3    H270986   6.034   0.506  15.418 -0.4426  0.6313  1.5379
16499TIP3   OH270987   5.853   3.616   1.262  0.1468  0.2708  0.3361
16499TIP3    H170988   5.920   3.652   1.321 -1.4217  1.3177  1.5963
16499TIP3    H270989   5.855   3.522   1.278  0.0213  0.4961  1.7985
16500TIP3   OH270990   0.285   3.740   4.822  0.8285  0.2823  0.2033
16500TIP3    H170991   0.371   3.765   4.790 -0.1541  0.8053 -2.3117
16500TIP3    H270992   0.253   3.818   4.868  0.9580  0.8022 -0.5602
16501TIP3   OH270993   0.691   0.940  12.618  0.1305 -0.9518 -0.3589
16501TIP3    H170994   0.653   0.884  12.686 -0.7401  0.5018  0.4115
16501TIP3    H270995   0.666   1.029  12.644  0.9785 -0.2435 -1.8449
16502TIP3   OH270996   4.533   5.295   0.612 -0.3315 -0.1343 -0.2094
16502TIP3    H170997   4.549   5.389   0.618 -2.8883  0.5687 -2.2919
16502TIP3    H270998   4.444   5.284   0.646 -0.4239 -1.6398 -0.8462
16503TIP3   OH270999   4.993   6.438   0.180  0.2330 -0.2679 -0.2450
16503TIP3    H171000   4.964   6.435   0.089 -1.9091 -1.0659  0.4169
16503TIP3    H271001   4.995   6.346   0.208  3.1668 -0.2613 -0.1034
16504TIP3   OH271002   6.476   2.155   5.464  0.3845 -0.0777 -0.3966
16504TIP3    H171003   6.545   2.110   5.416 -0.4858 -0.4230 -1.3512
16504TIP3    H271004   6.395   2.121   5.427 -0.3058  0.4579  0.5784
16505TIP3   OH271005   1.573   0.818   3.388  0.3922  0.1678  0.4319
16505TIP3    H171006   1.558   0.859   3.303  0.2308 -0.4169  0.1791
16505TIP3    H271007   1.591   0.892   3.447  0.3870  0.5819 -0.0795
16506TIP3   OH271008   6.111   5.275   0.540  0.0866 -0.0465  0.0009
16506TIP3    H171009   6.183   5.326   0.503 -0.9073  0.6358 -1.0819
16506TIP3    H271010   6.150   5.227   0.613  1.5274  0.6351 -0.2875
16507TIP3   OH271011   2.196   1.095  15.080 -0.3574 -0.4826  0.5291
16507TIP3    H171012   2.227   1.058  15.162  0.3899  0.1733  0.5455
16507TIP3    H271013   2.185   1.019  15.022 -2.3733 -1.1420  1.6690
16508TIP3   OH271014   3.653   0.462  12.328 -0.0603 -0.0983  0.0109
16508TIP3    H171015   3.582   0.441  12.268 -1.4368 -0.1277  1.5757
16508TIP3    H271016   3.733   0.450  12.276 -1.1375 -1.1701 -1.4839
16509TIP3   OH271017   0.484   5.564   2.813 -0.3781 -0.2248  0.6316
16509TIP3    H171018   0.555   5.591   2.754  0.1826 -1.1280  0.8688
16509TIP3    H271019   0.526   5.504   2.875 -1.3598 -0.8141  0.7500
16510TIP3   OH271020   4.379   2.231   4.254  0.2518  0.3862  1.1388
16510TIP3    H171021   4.284   2.233   4.260  0.1431  0.9700 -0.2968
16510TIP3    H271022   4.400   2.140   4.233 -0.1511  0.5791 -0.2318
16511TIP3   OH271023   6.498   6.105  11.486  0.0105  0.3051 -0.0465
16511TIP3    H171024   6.568   6.081  11.426  1.2618  0.8699  1.1276
16511TIP3    H271025   6.436   6.154  11.432  0.8536  0.3831 -0.9805
16512TIP3   OH271026   1.787   3.168  12.809 -0.0686  0.0009 -0.9630
16512TIP3    H171027   1.881   3.185  12.822  0.2935 -0.4947 -2.6117
16512TIP3    H271028   1.751   3.162  12.897  1.3329  0.8186 -0.2955
16513TIP3   OH271029   3.249   6.228  13.426  0.7382  0.4948 -0.4386
16513TIP3    H171030   3.248   6.239  13.331 -2.4777  2.5735 -0.3076
16513TIP3    H271031   3.173   6.173  13.444  1.5358 -0.1940  0.9530
16514TIP3   OH271032   5.461   6.787  12.231  0.1858  0.5783 -0.2304
16514TIP3    H171033   5.436   6.815  12.319 -0.7079  1.2904 -0.6995
16514TIP3    H271034   5.437   6.860  12.174 -1.8975 -0.9430 -1.4508
16515TIP3   OH271035   3.736   0.539  12.838 -0.3411 -0.8052 -0.6985
16515TIP3    H171036   3.773   0.453  12.858 -0.8605 -0.6346  1.1527
16515TIP3    H271037   3.808   0.601  12.854 -0.0182 -0.8477 -1.8670
16516TIP3   OH271038   5.062   5.652   0.768  0.2841  0.2461 -0.1445
16516TIP3    H171039   5.111   5.655   0.686 -0.4474 -0.0392 -0.6062
16516TIP3    H271040   5.099   5.722   0.821  0.1404  1.0592 -1.0843
16517TIP3   OH271041   4.441   6.766   4.684  0.5128 -0.0313  0.4775
16517TIP3    H171042   4.451   6.704   4.612 -0.0665 -0.7766  1.0266
16517TIP3    H271043   4.368   6.821   4.657 -1.4437 -1.9356  1.5789
16518TIP3   OH271044   3.301   4.258   0.125 -0.5583 -0.8102 -0.2753
16518TIP3    H171045   3.213   4.261   0.161 -0.8703  0.0512 -1.0834
16518TIP3    H271046   3.289   4.238   0.032 -0.2248  3.0014 -1.3085
16519TIP3   OH271047   1.332   0.737  11.360  0.3121 -0.0726  0.3274
16519TIP3    H171048   1.290   0.794  11.296 -0.1940  0.7316  1.3409
16519TIP3    H271049   1.265   0.673  11.384  0.0445  0.4515  1.0250
16520TIP3   OH271050   4.854   2.287  16.727  0.4590 -0.6496 -0.0292
16520TIP3    H171051   4.914   2.349  16.686  0.0181  0.4962  0.9947
16520TIP3    H271052   4.896   2.202  16.717  1.8545  0.0263 -0.0595
16521TIP3   OH271053   3.725   1.036  15.776  0.9480  0.1102  0.1853
16521TIP3    H171054   3.775   0.973  15.827  1.8294  1.0113  0.4584
16521TIP3    H271055   3.791   1.092  15.735  0.2005  0.4964 -0.5244
16522TIP3   OH271056   3.363   0.976   1.970  0.4363  0.2455 -0.6444
16522TIP3    H171057   3.269   0.966   1.954  0.0090  0.7855  1.2818
16522TIP3    H271058   3.369   1.041   2.040  2.1898 -0.7254  0.1731
16523TIP3   OH271059   6.032   0.161  13.117  0.2507  0.4599  0.0152
16523TIP3    H171060   5.953   0.208  13.142 -0.4727 -0.7999  0.2128
16523TIP3    H271061   6.029   0.160  13.021  0.8978  1.8005 -0.0412
16524TIP3   OH271062   1.342   4.946  13.859 -0.3126 -0.4843  0.0255
16524TIP3    H171063   1.355   5.041  13.860 -2.3835 -0.1554 -0.6477
16524TIP3    H271064   1.269   4.931  13.919  1.0545 -1.8885  1.4485
16525TIP3   OH271065   2.694   4.667   4.213  0.0430  0.3793  0.0260
16525TIP3    H171066   2.717   4.645   4.304 -0.2560 -2.0399 -0.4289
16525TIP3    H271067   2.694   4.763   4.212  0.9073  0.4880  2.3568
16526TIP3   OH271068   4.021   5.462   4.873  0.4761  0.3324  0.2724
16526TIP3    H171069   3.931   5.432   4.858  0.7025 -0.6165  0.7311
16526TIP3    H271070   4.063   5.389   4.917  1.1419  1.2337  1.1741
16527TIP3   OH271071   4.610   6.093   5.217  0.3303 -0.8053  0.3002
16527TIP3    H171072   4.552   6.051   5.281  0.7072  0.5907  1.6403
16527TIP3    H271073   4.693   6.045   5.225  0.1393 -1.1480  0.2619
16528TIP3   OH271074   3.634   5.262  16.545  0.3668 -0.0851 -0.8847
16528TIP3    H171075   3.713   5.283  16.596 -0.1491 -0.8250  0.2511
16528TIP3    H271076   3.562   5.278  16.605 -0.3938  0.8111 -1.9952
16529TIP3   OH271077   4.907   1.891  17.042  0.6712 -0.2390 -0.1841
16529TIP3    H171078   4.898   1.983  17.068 -2.1133 -0.3088 -0.5602
16529TIP3    H271079   4.874   1.889  16.952 -1.1598 -1.8646  0.4650
16530TIP3   OH271080   6.439   2.958   1.347  0.2449 -0.3626  0.3105
16530TIP3    H171081   6.413   3.006   1.268  1.2845  0.0697  0.2186
16530TIP3    H271082   6.376   2.986   1.413  0.6456  0.9288  0.1800
16531TIP3   OH271083   4.643   0.577   4.074  0.2604 -0.2879 -0.4510
16531TIP3    H171084   4.578   0.642   4.047 -1.6371 -1.5377  0.8799
16531TIP3    H271085   4.647   0.584   4.169  1.8157 -0.5258 -0.4616
16532TIP3   OH271086   5.379   4.527   2.564 -0.3968  0.3760  0.3453
16532TIP3    H171087   5.436   4.452   2.583  1.2741  1.6364  0.6045
16532TIP3    H271088   5.383   4.581   2.643 -0.3688  1.4487 -0.3634
16533TIP3   OH271089   5.773   5.339   4.318 -0.1259  0.0177  0.6797
16533TIP3    H171090   5.781   5.324   4.223 -0.2884  0.2973  0.6198
16533TIP3    H271091   5.739   5.256   4.352 -0.4217  0.0359  0.4390
16534TIP3   OH271092   1.857   3.606   5.841 -0.3660  0.9680  0.3450
16534TIP3    H171093   1.801   3.639   5.910 -1.5739 -0.4771  0.1143
16534TIP3    H271094   1.858   3.675   5.774 -0.5356  1.6776  1.0683
16535TIP3   OH271095   5.588   0.048  11.742  0.3968 -0.3820 -0.3059
16535TIP3    H171096   5.530   0.124  11.735 -0.2777 -0.8024  0.4862
16535TIP3    H271097   5.601   0.019  11.652  0.5487  0.5855 -0.5992
16536TIP3   OH271098   1.972   1.589   5.645  0.0398  0.0148 -0.4384
16536TIP3    H171099   1.992   1.677   5.614  0.3916  0.8094  1.8267
16536TIP3    H271100   1.879   1.592   5.667 -0.1005 -0.3896 -0.9585
16537TIP3   OH271101   5.101   4.230   0.903  0.7167  0.2168 -0.0683
16537TIP3    H171102   5.181   4.232   0.852  0.9630  0.7477  0.3241
16537TIP3    H271103   5.107   4.306   0.961  0.0526  0.1179  0.1491
16538TIP3   OH271104   1.636   0.678  17.013 -0.3476 -0.3566  0.6293
16538TIP3    H171105   1.640   0.595  16.966  1.7844 -0.4002  0.7806
16538TIP3    H271106   1.544   0.703  17.009 -0.6966 -1.6709 -1.2416
16539TIP3   OH271107   3.491   2.998   2.358  0.3469  0.2931  0.3329
16539TIP3    H171108   3.525   2.930   2.415 -1.1683 -0.3856  0.4717
16539TIP3    H271109   3.423   3.041   2.410  0.2200  0.8911 -0.3087
16540TIP3   OH271110   5.329   4.698  16.575 -0.1122 -0.5751 -0.5575
16540TIP3    H171111   5.392   4.766  16.553  0.3590 -0.2583  1.5413
16540TIP3    H271112   5.332   4.638  16.501  0.8244  0.7154 -1.6197
16541TIP3   OH271113   5.375   0.062   4.001 -0.5406 -0.2131  0.2431
16541TIP3    H171114   5.296   0.091   3.954  0.7509  3.3204 -0.0847
16541TIP3    H271115   5.446   0.077   3.938  0.5960 -1.6041  1.1473
16542TIP3   OH271116   5.217   3.190  15.366 -0.2147 -0.2572 -0.0837
16542TIP3    H171117   5.248   3.256  15.304  0.1152  0.1774  0.5284
16542TIP3    H271118   5.191   3.240  15.444  0.6141 -0.8826  0.6226
16543TIP3   OH271119   6.323   2.861  16.715 -0.1479  0.9295  0.1276
16543TIP3    H171120   6.404   2.881  16.668 -0.0719 -1.0046 -0.6545
16543TIP3    H271121   6.260   2.924  16.681  0.8250  2.0031  0.2308
16544TIP3   OH271122   1.846   3.817  15.702 -0.0150  0.3210  0.0529
16544TIP3    H171123   1.808   3.741  15.745 -2.2620  1.6334  0.5637
16544TIP3    H271124   1.940   3.808  15.715 -0.2539 -2.1493  0.4005
16545TIP3   OH271125   3.734   2.494  12.193 -0.5359 -0.4172  0.6661
16545TIP3    H171126   3.798   2.436  12.234  0.4971 -1.0185 -1.6398
16545TIP3    H271127   3.721   2.457  12.105 -0.3998  2.3814 -0.6280
16546TIP3   OH271128   6.339   4.137  15.377 -0.1924 -0.1139  0.2783
16546TIP3    H171129   6.347   4.042  15.382 -0.6457 -0.1322  0.7429
16546TIP3    H271130   6.255   4.152  15.334  0.0436  0.0739 -0.1135
16547TIP3   OH271131   6.783   4.991  15.646 -0.2225 -0.3883 -0.3293
16547TIP3    H171132   6.873   4.960  15.635 -0.0595 -0.0382 -0.0023
16547TIP3    H271133   6.731   4.911  15.655 -0.0339 -0.6104 -1.1458
16548TIP3   OH271134   4.743   4.297   0.408  0.3053  0.7284  0.1099
16548TIP3    H171135   4.699   4.309   0.323 -0.8761  0.8663  0.7180
16548TIP3    H271136   4.677   4.323   0.473  0.6888 -0.7097  1.1342
16549TIP3   OH271137   1.277   3.572  11.445  0.3393  0.1960  0.0770
16549TIP3    H171138   1.333   3.645  11.470  0.7967  0.6609 -2.0519
16549TIP3    H271139   1.207   3.612  11.394  1.0682 -0.8581 -1.8766
16550TIP3   OH271140   0.336   5.912   5.830 -0.3629  0.1939  0.4415
16550TIP3    H171141   0.248   5.875   5.837  0.2760 -1.1963  1.7776
16550TIP3    H271142   0.338   5.979   5.898 -0.7752  1.1229 -0.4400
16551TIP3   OH271143   5.298   2.866  13.316  0.0295 -0.1401 -0.3288
16551TIP3    H171144   5.330   2.852  13.227 -0.1254  1.1411 -0.5987
16551TIP3    H271145   5.202   2.868  13.307  0.0385  0.9963 -0.3071
16552TIP3   OH271146   1.281   4.382  14.460  0.3297 -0.2691 -0.1512
16552TIP3    H171147   1.325   4.461  14.492 -0.0637 -0.1073  0.0101
16552TIP3    H271148   1.333   4.354  14.385 -0.2812  0.9328 -1.0675
16553TIP3   OH271149   2.255   6.294   5.226  0.3063  0.1864 -0.6596
16553TIP3    H171150   2.275   6.211   5.182 -0.4100  0.5118 -1.6125
16553TIP3    H271151   2.269   6.275   5.319  1.8266 -0.5209 -0.9902
16554TIP3   OH271152   4.217   1.193   1.986 -0.1156  0.0688  0.3835
16554TIP3    H171153   4.153   1.256   1.953 -0.6268  1.1897  3.1834
16554TIP3    H271154   4.182   1.165   2.070  1.8219 -1.3307  0.7993
16555TIP3   OH271155   6.426   2.916  14.281  0.1158  0.2561  0.4537
16555TIP3    H171156   6.425   2.851  14.211  0.4152  1.6229 -0.8576
16555TIP3    H271157   6.508   2.898  14.328  0.2944 -0.1736 -0.0108
16556TIP3   OH271158   5.307   5.966  14.478 -0.3891 -0.4234  0.1066
16556TIP3    H171159   5.347   5.915  14.549  0.4482 -2.3198 -1.6181
16556TIP3    H271160   5.372   6.034  14.458  0.4132 -1.2954 -0.3248
16557TIP3   OH271161   2.845   2.021   3.315  0.8872 -0.7724 -0.0071
16557TIP3    H171162   2.873   2.022   3.223 -1.9340  0.9457 -0.9825
16557TIP3    H271163   2.788   1.945   3.322 -1.4840  0.8130 -0.6973
16558TIP3   OH271164   2.216   2.325   0.870  0.1543 -0.1390  0.7850
16558TIP3    H171165   2.133   2.329   0.823  1.4495  2.0505 -1.6357
16558TIP3    H271166   2.277   2.283   0.808  1.3028  0.2124  1.6323
16559TIP3   OH271167   1.524   4.577   5.762 -0.2259  0.1222  0.1265
16559TIP3    H171168   1.542   4.514   5.692 -1.3865 -1.4946  1.2228
16559TIP3    H271169   1.582   4.551   5.833  0.7510  1.5962 -0.0622
16560TIP3   OH271170   3.050   0.296  13.546  0.4689 -0.0253  0.1716
16560TIP3    H171171   3.129   0.314  13.598 -0.3598 -0.9030  1.8181
16560TIP3    H271172   2.987   0.262  13.610 -1.1827  0.4556 -1.1467
16561TIP3   OH271173   3.436   1.418  15.779  0.5874  0.7054 -0.5088
16561TIP3    H171174   3.464   1.504  15.811 -1.4135  1.2048  0.0582
16561TIP3    H271175   3.436   1.426  15.684 -2.2270  2.3556 -0.4781
16562TIP3   OH271176   0.676   3.669  12.240 -0.2268  0.0468  0.1012
16562TIP3    H171177   0.662   3.679  12.334 -0.8411  0.4688 -0.0258
16562TIP3    H271178   0.598   3.624  12.209 -0.2034  0.2484 -0.2593
16563TIP3   OH271179   0.795   6.172  10.448 -0.3501 -0.2857  0.3347
16563TIP3    H171180   0.833   6.246  10.401 -0.0822 -0.0734  0.8738
16563TIP3    H271181   0.719   6.209  10.493  0.2450 -0.1487  1.2498
16564TIP3   OH271182   4.512   4.553  15.874 -0.1446  0.4158 -0.0329
16564TIP3    H171183   4.573   4.590  15.810  0.7177 -1.4078 -0.3405
16564TIP3    H271184   4.533   4.597  15.956  1.1997  0.2555 -0.2698
16565TIP3   OH271185   1.952   3.716  14.939 -0.4258 -0.4856 -0.2135
16565TIP3    H171186   2.029   3.681  14.895  0.2235  0.4880  0.1371
16565TIP3    H271187   1.879   3.696  14.879 -0.2779 -3.3852  0.4527
16566TIP3   OH271188   1.804   4.476   1.590 -0.5338  0.4684  0.3085
16566TIP3    H171189   1.711   4.489   1.573 -0.2533  0.2022 -1.7145
16566TIP3    H271190   1.846   4.554   1.554  0.0225  0.7166  1.4537
16567TIP3   OH271191   1.865   6.718  16.417  0.1644  0.5997 -0.5713
16567TIP3    H171192   1.804   6.784  16.450 -0.4249  0.2490 -0.9526
16567TIP3    H271193   1.855   6.722  16.322 -0.1450 -0.3056 -0.5829
16568TIP3   OH271194   5.285   6.009   4.542 -0.7875 -0.4768  1.1206
16568TIP3    H171195   5.311   5.955   4.467  0.7092  0.6392  0.8084
16568TIP3    H271196   5.276   5.946   4.614 -1.9121 -1.5201  0.1299
16569TIP3   OH271197   5.718   4.508  15.388 -0.4966  0.4714 -0.0736
16569TIP3    H171198   5.686   4.563  15.460  0.3960  3.0058 -1.5089
16569TIP3    H271199   5.812   4.501  15.403 -0.2038  1.5325 -1.2701
16570TIP3   OH271200   3.149   4.355  12.515 -0.7163  0.9003 -0.2839
16570TIP3    H171201   3.055   4.367  12.531 -0.9393 -0.3920 -0.5251
16570TIP3    H271202   3.177   4.294  12.583 -0.3732  0.1243 -1.1069
16571TIP3   OH271203   6.596   6.084   4.140 -0.2361 -0.3198 -0.1708
16571TIP3    H171204   6.658   6.011   4.133  0.7768  0.4129  0.7903
16571TIP3    H271205   6.632   6.151   4.082 -0.4303 -0.0908 -0.0246
16572TIP3   OH271206   3.262   5.884   2.528 -0.3556 -0.1285  0.1009
16572TIP3    H171207   3.241   5.834   2.607  0.7064 -0.4609  0.1857
16572TIP3    H271208   3.278   5.817   2.461  2.3707 -0.0021  0.5356
16573TIP3   OH271209   5.857   6.781   1.558  0.4117  0.4711  0.0870
16573TIP3    H171210   5.910   6.762   1.481  2.2213  0.9640  1.1296
16573TIP3    H271211   5.788   6.839   1.527  0.1653 -0.5914 -1.4246
16574TIP3   OH271212   2.599   1.261  11.622 -0.1232 -0.7928 -0.4783
16574TIP3    H171213   2.587   1.188  11.683  1.6100 -1.6563 -1.1049
16574TIP3    H271214   2.510   1.284  11.595 -0.7391 -2.3874  0.0501
16575TIP3   OH271215   1.992   2.832   4.245  0.1415  0.0921  0.1846
16575TIP3    H171216   2.001   2.918   4.204 -1.9732  1.2738  1.9724
16575TIP3    H271217   2.072   2.821   4.296  0.4079  1.0281 -0.0125
16576TIP3   OH271218   0.805   0.197   4.353 -0.0628 -0.3872  0.3545
16576TIP3    H171219   0.880   0.223   4.299 -1.3549  0.9499 -0.8974
16576TIP3    H271220   0.748   0.147   4.295  0.6671 -3.0994  1.7989
16577TIP3   OH271221   0.069   6.608  15.363  0.1796  0.4542  0.2834
16577TIP3    H171222  -0.016   6.573  15.390  0.8828 -0.2154  1.7181
16577TIP3    H271223   0.050   6.698  15.336 -1.0446  0.1844  0.1630
16578TIP3   OH271224   4.311   5.853   0.859 -0.2888  0.5373 -0.0646
16578TIP3    H171225   4.400   5.821   0.876  0.3827  1.9006 -0.7794
16578TIP3    H271226   4.317   5.948   0.872 -2.3525  0.4214  2.7065
16579TIP3   OH271227   2.246   2.907  15.536  0.6906 -0.3317  0.0969
16579TIP3    H171228   2.163   2.947  15.563  0.8400 -0.8938  1.4901
16579TIP3    H271229   2.313   2.962  15.576  0.8984 -1.8087  1.9118
16580TIP3   OH271230   5.028   2.606  13.452  0.0337  0.2598  0.2725
16580TIP3    H171231   4.956   2.579  13.508  0.7849 -0.2821  1.0092
16580TIP3    H271232   5.033   2.539  13.384 -0.9353  0.9653 -0.5207
16581TIP3   OH271233   0.267   2.575  14.426 -0.5894  0.0751  0.1396
16581TIP3    H171234   0.321   2.497  14.420  0.5777  0.5360  2.9866
16581TIP3    H271235   0.326   2.647  14.405 -1.3874  0.3194 -1.4276
16582TIP3   OH271236   1.908   0.120  12.041 -0.1342 -0.0326 -0.0524
16582TIP3    H171237   1.882   0.128  11.949 -1.3919 -0.8894  0.2089
16582TIP3    H271238   1.979   0.183  12.051 -0.1137  0.2205 -1.5618
16583TIP3   OH271239   2.016   0.146   3.990  0.2096 -0.1824  0.0623
16583TIP3    H171240   1.946   0.161   3.926 -0.6790 -0.5000  0.9358
16583TIP3    H271241   2.050   0.234   4.010 -0.9655  0.1392  0.7387
16584TIP3   OH271242   3.480   3.323   0.939  0.1179 -0.4666  0.2718
16584TIP3    H171243   3.434   3.406   0.952  0.5716 -0.4305  1.8327
16584TIP3    H271244   3.487   3.285   1.026  1.1621 -1.4888 -0.2244
16585TIP3   OH271245   1.925   0.558   1.284 -0.3642 -0.4709 -0.5287
16585TIP3    H171246   1.983   0.528   1.213  0.2480  1.6195 -0.9759
16585TIP3    H271247   1.872   0.627   1.244  1.7149  2.5824  1.5650
16586TIP3   OH271248   4.580   2.569   5.002  0.0990 -0.0619 -0.0741
16586TIP3    H171249   4.513   2.598   4.939 -0.9818  1.2460  1.5988
16586TIP3    H271250   4.650   2.534   4.947 -0.7023  1.2084 -2.0245
16587TIP3   OH271251   0.476   0.990   2.201 -0.2141  0.0512  0.0620
16587TIP3    H171252   0.536   1.041   2.147  1.0954  0.0597  1.4759
16587TIP3    H271253   0.479   0.902   2.163 -0.3495  0.3675 -0.6912
16588TIP3   OH271254   1.449   6.055  13.904  0.0342 -0.3545  0.0684
16588TIP3    H171255   1.477   5.987  13.843  0.8109 -0.2629  0.3229
16588TIP3    H271256   1.521   6.065  13.965 -0.2194  0.4483  0.2537
16589TIP3   OH271257   3.681   3.050  11.673 -0.0175 -0.1389 -0.3218
16589TIP3    H171258   3.588   3.031  11.685  0.1165 -2.0394 -1.8650
16589TIP3    H271259   3.724   2.966  11.684  1.6510  0.8210  1.0008
16590TIP3   OH271260   2.057   5.288   2.411  0.5767  0.2754 -0.2714
16590TIP3    H171261   2.134   5.241   2.380  0.5951 -0.0481  0.2537
16590TIP3    H271262   2.014   5.227   2.471  1.7505  1.6296  2.1315
16591TIP3   OH271263   4.017   4.412   3.964  0.0423 -0.0871  0.1297
16591TIP3    H171264   3.943   4.421   3.905  0.5286 -1.5510 -0.7439
16591TIP3    H271265   4.003   4.329   4.009  0.2951  0.4406  1.2015
16592TIP3   OH271266   0.199   6.736  11.376 -0.5431  0.1032  0.3553
16592TIP3    H171267   0.158   6.821  11.367 -0.8841  0.3979  3.5025
16592TIP3    H271268   0.239   6.719  11.291  0.4629  3.8708 -0.1035
16593TIP3   OH271269   4.263   1.639  14.176 -0.1461 -0.8255 -0.0553
16593TIP3    H171270   4.176   1.678  14.178  0.1555 -0.0416 -1.0023
16593TIP3    H271271   4.322   1.712  14.193  0.3487 -1.2636  0.1403
16594TIP3   OH271272   3.453   3.230   0.473 -0.6732  0.5319 -0.1851
16594TIP3    H171273   3.385   3.177   0.515 -0.1087 -0.1086 -0.0631
16594TIP3    H271274   3.526   3.169   0.460  0.1386  1.3767  0.3295
16595TIP3   OH271275   1.734   5.568  13.146 -0.4105 -0.5060  0.5170
16595TIP3    H171276   1.785   5.640  13.183 -0.3874 -0.2360 -0.0145
16595TIP3    H271277   1.645   5.603  13.141 -0.1090  0.1344 -1.2995
16596TIP3   OH271278   4.532   3.288   1.669  0.2577  0.0379 -0.1153
16596TIP3    H171279   4.485   3.351   1.615  2.1281  0.5119 -1.3181
16596TIP3    H271280   4.550   3.215   1.610 -0.7096 -1.0378  0.8909
16597TIP3   OH271281   6.475   4.211  15.614  0.1703  0.7109  0.2596
16597TIP3    H171282   6.475   4.157  15.534  0.2923  1.0408  0.0330
16597TIP3    H271283   6.410   4.170  15.671 -2.5941  2.4742 -1.3777
16598TIP3   OH271284   6.408   0.691   0.328  0.2510 -0.1244 -0.3019
16598TIP3    H171285   6.335   0.641   0.366  0.0341  0.4623  0.0592
16598TIP3    H271286   6.366   0.762   0.281  0.5113 -0.9243 -1.7923
16599TIP3   OH271287   6.129   1.268   2.922  0.1467 -0.0020  0.0752
16599TIP3    H171288   6.047   1.218   2.920 -0.1113  0.4381 -0.3442
16599TIP3    H271289   6.113   1.344   2.866  1.1887 -0.4587 -0.8805
16600TIP3   OH271290   1.216   6.319   4.414  0.0263  1.0525 -0.5730
16600TIP3    H171291   1.195   6.291   4.324 -0.2150 -1.3264  0.1697
16600TIP3    H271292   1.131   6.331   4.455  0.0867 -0.6543  0.1167
16601TIP3   OH271293   0.078   1.388  12.519  0.4974 -0.8861  0.0374
16601TIP3    H171294   0.145   1.453  12.497 -0.4450 -0.4872 -1.8911
16601TIP3    H271295   0.054   1.408  12.610  1.1311  0.6727 -0.1015
16602TIP3   OH271296   3.307   6.214  15.904 -0.8061  0.1692  0.1224
16602TIP3    H171297   3.239   6.272  15.936 -1.5759  0.1424 -1.3755
16602TIP3    H271298   3.265   6.164  15.834  0.9498  0.8128 -1.4942
16603TIP3   OH271299   6.362   4.461   0.595  0.3203 -0.3751  0.0962
16603TIP3    H171300   6.443   4.481   0.642  0.6089  2.0968 -1.3102
16603TIP3    H271301   6.355   4.529   0.528 -0.4628 -3.2507 -3.0202
16604TIP3   OH271302   6.202   0.245  13.681 -0.0413  0.4355  0.5245
16604TIP3    H171303   6.216   0.336  13.655 -0.1454  0.2518 -0.1837
16604TIP3    H271304   6.169   0.251  13.771 -0.2994  1.1124  0.3905
16605TIP3   OH271305   1.428   1.249  12.319 -0.3679  0.2119  0.5104
16605TIP3    H171306   1.447   1.307  12.393  1.2260  2.2141 -1.3445
16605TIP3    H271307   1.502   1.261  12.259 -1.3873 -1.6422 -1.2477
16606TIP3   OH271308   6.039   3.637   5.206 -0.6811 -0.5808  0.8695
16606TIP3    H171309   5.953   3.617   5.243 -0.1190  0.4089  2.7886
16606TIP3    H271310   6.032   3.728   5.178 -0.6006 -0.8537 -0.0859
16607TIP3   OH271311   4.955   3.769  11.983 -0.1674  0.1413 -0.1596
16607TIP3    H171312   4.944   3.776  11.889 -0.2248  2.6954 -0.0190
16607TIP3    H271313   5.000   3.685  11.996 -0.5579 -0.4603 -2.3852
16608TIP3   OH271314   1.324   2.124  16.637 -0.2094 -0.5618 -0.0574
16608TIP3    H171315   1.269   2.057  16.677 -0.0848  0.0318  1.1545
16608TIP3    H271316   1.412   2.107  16.672  0.4940 -1.6724 -2.1762
16609TIP3   OH271317   6.407   3.295   2.907  0.0928  0.0184 -0.0154
16609TIP3    H171318   6.408   3.309   3.002 -0.5036 -0.4362  0.0625
16609TIP3    H271319   6.448   3.209   2.895  0.2761  0.1276 -0.1831
16610TIP3   OH271320   0.053   4.165   0.303 -0.6094 -0.0660 -0.1155
16610TIP3    H171321   0.043   4.082   0.255  0.1658 -0.4500  0.3807
16610TIP3    H271322   0.145   4.189   0.291 -0.7972  0.6578 -0.1398
16611TIP3   OH271323   0.521   1.115   5.210 -0.2700 -0.0891  0.1060
16611TIP3    H171324   0.476   1.079   5.286  0.6032 -0.7668  0.3159
16611TIP3    H271325   0.602   1.064   5.203  0.0568  0.5181 -0.7789
16612TIP3   OH271326   1.741   3.884  13.123  0.3720 -0.8357 -0.2100
16612TIP3    H171327   1.714   3.975  13.131  0.0361 -1.0941  2.1105
16612TIP3    H271328   1.691   3.851  13.048 -0.9575  0.3783  0.1034
16613TIP3   OH271329   0.423   6.405  16.336  0.0861 -0.0257 -0.1427
16613TIP3    H171330   0.514   6.402  16.306  0.1357  1.0586 -0.1467
16613TIP3    H271331   0.429   6.428  16.429 -0.1840  0.2473 -0.1885
16614TIP3   OH271332   5.077   6.822  10.784 -0.1998  0.1242 -0.1453
16614TIP3    H171333   5.006   6.815  10.720 -0.0039  1.8089 -0.5777
16614TIP3    H271334   5.154   6.845  10.733  0.0923  0.9053  0.6218
16615TIP3   OH271335   3.907   2.578  13.716  0.2466 -0.4516  0.2056
16615TIP3    H171336   3.831   2.610  13.668  1.0783  0.1489 -0.7570
16615TIP3    H271337   3.894   2.609  13.805 -0.0606  0.6680 -0.2160
16616TIP3   OH271338   2.562   6.607  11.468  0.6022  0.3635  0.2068
16616TIP3    H171339   2.551   6.518  11.503  1.1074  0.6905  1.2231
16616TIP3    H271340   2.587   6.594  11.377 -1.3852 -0.5033 -0.2645
16617TIP3   OH271341   6.721   1.272   2.637  0.0767  0.5203 -1.0609
16617TIP3    H171342   6.739   1.327   2.714 -0.1920  0.9985 -1.3306
16617TIP3    H271343   6.803   1.226   2.621 -0.5015 -1.3806  0.9005
16618TIP3   OH271344   2.321   5.494  13.860  0.1419  0.1410  0.2162
16618TIP3    H171345   2.238   5.531  13.831  1.0539  0.2991 -2.4039
16618TIP3    H271346   2.387   5.559  13.833  1.4391 -1.6711 -1.2007
16619TIP3   OH271347   3.304   1.454  16.561 -0.1851  0.2173  0.0914
16619TIP3    H171348   3.323   1.364  16.534  0.0212  0.1761  0.3702
16619TIP3    H271349   3.237   1.484  16.499 -0.1308 -0.0705 -0.1085
16620TIP3   OH271350   4.921   3.440  12.366  0.4638 -0.9029  0.3838
16620TIP3    H171351   4.863   3.453  12.441  0.1881 -0.2400  0.0633
16620TIP3    H271352   4.944   3.529  12.338 -1.8875 -0.9736 -2.2256
16621TIP3   OH271353   5.123   0.359   5.826 -0.1084  0.3303  0.0625
16621TIP3    H171354   5.190   0.300   5.860  0.0415 -0.2534 -1.1778
16621TIP3    H271355   5.171   0.438   5.799 -0.1788  0.6449  0.8450
16622TIP3   OH271356   5.389   5.017  13.874 -0.2843  0.7320 -0.2422
16622TIP3    H171357   5.420   4.946  13.929  1.6148  1.1243 -0.7212
16622TIP3    H271358   5.392   4.982  13.785 -2.2906  0.4591 -0.2611
16623TIP3   OH271359   1.643   3.722   1.808  0.0566 -0.4764 -0.0074
16623TIP3    H171360   1.556   3.754   1.830  0.6876  1.2555  0.0860
16623TIP3    H271361   1.675   3.780   1.739  0.9649 -1.3596 -0.3668
16624TIP3   OH271362   5.335   0.938  12.402  0.1044  0.1261 -0.8777
16624TIP3    H171363   5.407   0.914  12.461  0.1781 -0.3938 -1.1725
16624TIP3    H271364   5.257   0.899  12.442  0.4304 -1.9394 -2.1102
16625TIP3   OH271365   0.226   5.631  15.202 -0.6051  0.4646 -0.3474
16625TIP3    H171366   0.190   5.555  15.248  0.3153  0.2613  0.0487
16625TIP3    H271367   0.193   5.621  15.112  0.0282 -0.7592 -0.4631
16626TIP3   OH271368   0.951   4.845   4.522  0.1095 -0.1611 -0.0532
16626TIP3    H171369   0.954   4.873   4.613  0.1911  0.6098 -0.2837
16626TIP3    H271370   0.981   4.754   4.523 -0.9172 -0.4954  0.8163
16627TIP3   OH271371   6.193   5.048   5.904  0.5706 -0.0895  0.1612
16627TIP3    H171372   6.244   5.030   5.983 -0.4445  0.3402  0.9393
16627TIP3    H271373   6.254   5.093   5.845  0.7986  1.4813  1.5237
16628TIP3   OH271374   3.710   3.799   0.559 -0.2592  0.5920 -0.5111
16628TIP3    H171375   3.679   3.820   0.647  3.5627 -0.2304  1.2438
16628TIP3    H271376   3.697   3.705   0.550 -1.5789  0.8213 -1.3335
16629TIP3   OH271377   0.698   5.827   1.930 -0.2553 -0.0283 -0.1778
16629TIP3    H171378   0.756   5.751   1.919 -0.2260  0.0810 -0.8297
16629TIP3    H271379   0.614   5.790   1.954 -0.1812 -0.2522 -0.2597
16630TIP3   OH271380   6.275   5.388   2.921 -0.4769 -0.3202 -0.3416
16630TIP3    H171381   6.309   5.390   2.832  2.6390 -0.5263  0.7324
16630TIP3    H271382   6.180   5.397   2.911 -0.2740 -0.8262 -3.6609
16631TIP3   OH271383   6.546   5.705  13.305  0.2941  0.4626  0.4277
16631TIP3    H171384   6.575   5.729  13.393  0.3165  0.6575  0.3693
16631TIP3    H271385   6.516   5.788  13.266 -0.0784  0.3077  0.3882
16632TIP3   OH271386   3.902   0.465   3.247 -0.2502  0.2523  0.1762
16632TIP3    H171387   3.917   0.393   3.185  2.7762  1.3911 -0.5453
16632TIP3    H271388   3.887   0.542   3.192  0.6733  0.9455  0.8750
16633TIP3   OH271389   5.806   6.059  10.876 -0.0069 -0.4869  0.5480
16633TIP3    H171390   5.890   6.064  10.831 -0.8838  1.0779 -1.0367
16633TIP3    H271391   5.781   6.150  10.891 -2.1637 -0.8498 -0.5239
16634TIP3   OH271392   6.377   6.069   0.436 -0.0738 -0.0803 -0.1552
16634TIP3    H171393   6.361   6.072   0.342 -1.5757  3.4411  0.0188
16634TIP3    H271394   6.298   6.028   0.472 -0.5421  0.6103 -0.3593
16635TIP3   OH271395   1.307   6.308  11.839  0.0973  0.2202 -0.4401
16635TIP3    H171396   1.270   6.392  11.813  0.6590 -0.1662 -2.7283
16635TIP3    H271397   1.382   6.296  11.780  0.2740 -1.6969  0.1046
16636TIP3   OH271398   5.562   4.190  14.469 -0.7733 -0.6344  0.5267
16636TIP3    H171399   5.626   4.142  14.522  1.4733 -0.2985 -1.6885
16636TIP3    H271400   5.574   4.155  14.380 -1.4907  1.6364 -0.5302
16637TIP3   OH271401   0.618   4.867  16.747  0.3405 -0.0000 -0.1657
16637TIP3    H171402   0.662   4.788  16.778 -0.5582 -1.1322 -1.6198
16637TIP3    H271403   0.608   4.853  16.652  0.9370  2.2652 -0.6255
16638TIP3   OH271404   1.414   3.274   0.432  0.0935  0.1667 -0.4611
16638TIP3    H171405   1.367   3.216   0.372  0.2610 -0.1827 -0.2568
16638TIP3    H271406   1.455   3.339   0.376 -0.5441  0.4108 -0.6523
16639TIP3   OH271407   4.291   6.507   2.701  0.1835  0.0599  0.0843
16639TIP3    H171408   4.269   6.500   2.794  0.0785 -1.3486 -0.0220
16639TIP3    H271409   4.294   6.416   2.671 -2.3947  0.5275 -1.9095
16640TIP3   OH271410   4.812   4.477  16.595 -0.1044  0.3244 -0.0322
16640TIP3    H171411   4.892   4.478  16.542 -0.0616  0.1766  0.0258
16640TIP3    H271412   4.835   4.527  16.674 -0.0098  0.1307  0.0649
16641TIP3   OH271413   1.021   1.041   3.201 -0.0731 -0.4135  0.2678
16641TIP3    H171414   1.065   1.079   3.126 -0.3203 -0.8462 -0.0990
16641TIP3    H271415   0.937   1.087   3.205  0.3393  0.3143  0.8849
16642TIP3   OH271416   2.836   0.102  14.532 -0.7930  0.0574  0.0848
16642TIP3    H171417   2.812   0.022  14.486  3.9287 -1.7350  0.2191
16642TIP3    H271418   2.799   0.091  14.619 -1.8508 -1.0196 -0.4642
16643TIP3   OH271419   4.208   1.359  10.179 -0.2754  0.2448 -0.1465
16643TIP3    H171420   4.165   1.360  10.265 -1.9084  0.9839 -0.9421
16643TIP3    H271421   4.137   1.348  10.116  0.8018  0.5567 -1.4695
16644TIP3   OH271422   2.741   6.321   0.631 -0.1442 -0.1988  0.8091
16644TIP3    H171423   2.685   6.393   0.659 -0.4628 -0.6416  1.3321
16644TIP3    H271424   2.725   6.314   0.537 -1.2314 -0.5273  1.0003
16645TIP3   OH271425   4.623   5.061   2.981  0.0046 -0.3078  0.3496
16645TIP3    H171426   4.555   4.997   3.003  0.6279 -0.9727  0.3996
16645TIP3    H271427   4.583   5.116   2.914  0.0197 -1.8600 -1.0026
16646TIP3   OH271428   4.281   0.583  12.903 -0.2332  0.5966  0.0094
16646TIP3    H171429   4.281   0.573  12.998 -2.0786 -1.8520 -0.1430
16646TIP3    H271430   4.360   0.536  12.874 -0.4757  0.0188  0.2658
16647TIP3   OH271431   2.867   0.236  15.255 -0.1388  0.4975  0.4658
16647TIP3    H171432   2.907   0.149  15.255 -1.1323  0.0220 -0.6664
16647TIP3    H271433   2.902   0.278  15.176 -0.5739  0.6973  0.3787
16648TIP3   OH271434   5.624   0.575   6.243  0.0609  0.0508  0.2074
16648TIP3    H171435   5.543   0.599   6.289  0.2304 -2.3058  1.8986
16648TIP3    H271436   5.688   0.640   6.271 -0.5592  0.2870  1.1281
16649TIP3   OH271437   2.241   5.057  11.941 -0.0459  0.3281 -0.3367
16649TIP3    H171438   2.164   5.011  11.974  0.4465 -0.0239  0.3641
16649TIP3    H271439   2.315   5.007  11.975  0.5249  1.9198  0.9168
16650TIP3   OH271440   3.185   4.769   3.333  0.0370 -0.1855  0.0251
16650TIP3    H171441   3.214   4.691   3.286  0.8137 -0.5298  1.0457
16650TIP3    H271442   3.263   4.800   3.379 -1.0671 -0.9421  2.5898
16651TIP3   OH271443   0.497   4.751   3.638  0.3330  0.4463  0.5785
16651TIP3    H171444   0.473   4.820   3.576 -1.3368 -1.6785 -1.3030
16651TIP3    H271445   0.571   4.707   3.598  1.8947  1.4993  2.1401
16652TIP3   OH271446   5.604   1.580   2.373 -0.1264 -0.3455  0.1283
16652TIP3    H171447   5.645   1.513   2.427  1.2098 -0.5348 -1.0624
16652TIP3    H271448   5.677   1.630   2.336 -0.9947  0.0477 -1.1303
16653TIP3   OH271449   2.857   1.997   4.516 -0.2220 -0.6938 -0.0981
16653TIP3    H171450   2.927   1.943   4.553 -1.3115 -2.3538 -0.3336
16653TIP3    H271451   2.896   2.038   4.439  1.0273 -0.0377  0.8401
16654TIP3   OH271452   3.482   3.147  13.792 -0.6190  0.2804  0.7527
16654TIP3    H171453   3.511   3.059  13.769  0.7433  0.6724  0.8572
16654TIP3    H271454   3.414   3.168  13.728 -0.4149 -0.5516  0.2491
16655TIP3   OH271455   0.486   6.789   5.440 -0.8439  0.9321 -0.8167
16655TIP3    H171456   0.437   6.724   5.489  1.2341  0.3376  0.6190
16655TIP3    H271457   0.530   6.842   5.507  1.5922  0.4950 -1.9302
16656TIP3   OH271458   3.554   3.080  13.374 -0.0343 -0.2030  0.5487
16656TIP3    H171459   3.553   3.030  13.455  0.1352 -0.4874  0.3789
16656TIP3    H271460   3.630   3.047  13.326  0.0838  0.2246  0.4365
16657TIP3   OH271461   2.618   3.314  13.608 -0.1180  0.1387 -0.6532
16657TIP3    H171462   2.630   3.401  13.570  0.2354  0.5009  0.2546
16657TIP3    H271463   2.563   3.328  13.685  0.8350 -0.2612  0.1294
16658TIP3   OH271464   4.350   3.274   0.203 -0.6649 -0.0719  0.5146
16658TIP3    H171465   4.412   3.346   0.210  1.2625 -0.9206 -3.9043
16658TIP3    H271466   4.393   3.200   0.246  0.7432 -0.2197 -1.0446
16659TIP3   OH271467   2.663   2.613  10.868  0.1207  0.4806 -0.6593
16659TIP3    H171468   2.663   2.566  10.952  0.2460  0.0674 -0.8881
16659TIP3    H271469   2.748   2.594  10.829  0.0162  0.5695 -0.9381
16660TIP3   OH271470   0.376   5.174   2.421  0.6114 -0.1765  0.2802
16660TIP3    H171471   0.456   5.193   2.469  0.4042 -0.4049  0.7213
16660TIP3    H271472   0.322   5.123   2.482 -1.3123  2.7801  1.2517
16661TIP3   OH271473   3.483   0.583   0.534  0.2615  0.5778 -0.2390
16661TIP3    H171474   3.435   0.624   0.605  0.1397 -1.5454  1.0059
16661TIP3    H271475   3.547   0.649   0.507  1.0174  1.1380  2.5607
16662TIP3   OH271476   4.097   3.392   4.213  0.0298 -0.5779  0.3845
16662TIP3    H171477   4.018   3.412   4.264  0.3044  0.6090  0.3741
16662TIP3    H271478   4.168   3.395   4.277  0.6303  2.7659 -0.2832
16663TIP3   OH271479   0.482   0.411  13.477  0.2116 -0.8920 -0.1580
16663TIP3    H171480   0.433   0.470  13.534 -0.3846 -1.2519 -0.2797
16663TIP3    H271481   0.514   0.342  13.535 -0.8364 -1.5406 -0.3070
16664TIP3   OH271482   2.751   4.662   4.473  0.1397  0.2585  0.1978
16664TIP3    H171483   2.710   4.748   4.483  1.1248  1.1838 -2.5962
16664TIP3    H271484   2.817   4.659   4.542  0.5496  2.0805 -0.0637
16665TIP3   OH271485   2.570   0.229  14.813  0.6808 -0.2364 -0.5614
16665TIP3    H171486   2.558   0.301  14.876  0.4276 -1.1943  0.5126
16665TIP3    H271487   2.647   0.182  14.845 -0.4991 -1.8028  0.1251
16666TIP3   OH271488   2.685   5.053  13.619 -0.1651 -0.1262  0.4427
16666TIP3    H171489   2.707   5.016  13.534 -1.2972 -0.6480  0.3501
16666TIP3    H271490   2.589   5.049  13.622 -0.0961 -1.1673  2.2067
16667TIP3   OH271491   0.693   3.061   2.555  0.4607  0.0316  0.1348
16667TIP3    H171492   0.658   3.080   2.468  0.7822  1.6261  0.3255
16667TIP3    H271493   0.625   3.008   2.597  0.5440 -1.2663 -1.2498
16668TIP3   OH271494   2.392   0.698  16.364 -0.0557  0.0583  0.3648
16668TIP3    H171495   2.395   0.793  16.356 -1.1655  0.2764  2.0305
16668TIP3    H271496   2.304   0.674  16.333 -0.7216 -0.1016  2.2337
16669TIP3   OH271497   5.202   2.537  11.981  0.2869  0.0500  0.1515
16669TIP3    H171498   5.158   2.461  12.021  2.0972 -1.9251 -1.3718
16669TIP3    H271499   5.255   2.573  12.052 -0.0346 -0.5691  0.7293
16670TIP3   OH271500   4.040   5.304  13.343 -0.2523 -0.1827 -0.3157
16670TIP3    H171501   4.008   5.259  13.421  0.3997 -1.3029 -0.6732
16670TIP3    H271502   3.968   5.297  13.280 -0.3764 -0.2036 -0.1722
16671TIP3   OH271503   4.493   0.950  16.939  0.8372 -0.0200 -0.3303
16671TIP3    H171504   4.501   0.924  17.030  1.3025 -1.1020 -0.6661
16671TIP3    H271505   4.428   0.890  16.902 -0.6556  1.5293 -0.3115
16672TIP3   OH271506   2.681   3.932   2.918  0.7194  0.1734  0.1672
16672TIP3    H171507   2.742   3.991   2.873  0.9979  0.0937  0.4350
16672TIP3    H271508   2.734   3.891   2.987  0.8200 -1.1856 -0.6689
16673TIP3   OH271509   5.733   0.769  10.659 -0.3751  0.1870 -0.3945
16673TIP3    H171510   5.804   0.705  10.661  0.1822  0.6810 -2.1739
16673TIP3    H271511   5.752   0.829  10.731 -1.1221 -1.7816  1.5636
16674TIP3   OH271512   4.893   4.132   4.563 -0.5835 -0.1556 -0.4816
16674TIP3    H171513   4.898   4.164   4.473  0.7504 -2.8334 -1.4627
16674TIP3    H271514   4.984   4.128   4.592 -1.0010  0.6220  0.9804
16675TIP3   OH271515   0.126   2.612   0.226  0.7401  0.2417  0.0181
16675TIP3    H171516   0.215   2.638   0.201  0.3092  1.0235 -0.7352
16675TIP3    H271517   0.088   2.689   0.266 -0.2473  0.5659 -1.4441
16676TIP3   OH271518   3.670   0.171   6.368 -0.0782 -0.4581 -0.0366
16676TIP3    H171519   3.745   0.156   6.425  0.1473  0.8780  0.0635
16676TIP3    H271520   3.682   0.111   6.295  2.1471  1.0679 -1.0148
16677TIP3   OH271521   3.310   1.063  14.165 -0.5598  0.4265  0.0847
16677TIP3    H171522   3.343   1.153  14.164 -0.4079  0.3690 -0.9464
16677TIP3    H271523   3.268   1.054  14.250 -0.3656  1.3970  0.2955
16678TIP3   OH271524   3.822   4.233  12.898 -0.5636  0.3029  0.2364
16678TIP3    H171525   3.745   4.213  12.951 -0.6253  0.6167  0.2639
16678TIP3    H271526   3.893   4.241  12.962 -0.6924  0.9657  0.3023
16679TIP3   OH271527   5.034   4.343   5.586 -0.6772  0.1944  0.0000
16679TIP3    H171528   5.120   4.359   5.624 -0.4429  0.0914 -0.4803
16679TIP3    H271529   5.036   4.251   5.560 -1.3344 -0.1185  1.0010
16680TIP3   OH271530   0.389   4.881  14.214 -0.4201 -0.1439 -0.3267
16680TIP3    H171531   0.447   4.957  14.220  0.6632 -1.0808  1.7870
16680TIP3    H271532   0.446   4.805  14.224 -1.7380 -1.1799 -0.3197
16681TIP3   OH271533   5.138   6.531  14.262  0.4802  0.1064 -0.3833
16681TIP3    H171534   5.055   6.555  14.303  0.5626 -0.2250 -0.0192
16681TIP3    H271535   5.205   6.561  14.323  0.5810 -1.2021  0.1796
16682TIP3   OH271536   5.608   1.832   0.338  0.1214  0.1516  0.3584
16682TIP3    H171537   5.572   1.795   0.418 -0.4865  1.5022  0.7386
16682TIP3    H271538   5.698   1.856   0.361  0.4412 -0.8507  0.1756
16683TIP3   OH271539   2.392   1.121   0.805 -1.1369 -0.3916 -0.0639
16683TIP3    H171540   2.377   1.080   0.720 -1.3707 -1.7152  0.5843
16683TIP3    H271541   2.326   1.081   0.862  0.0518 -0.7274  1.1127
16684TIP3   OH271542   5.139   2.297  13.983 -0.1087 -0.0336 -0.1346
16684TIP3    H171543   5.227   2.335  13.975 -0.7079  1.6790  0.8280
16684TIP3    H271544   5.104   2.335  14.064 -2.5480  1.0724 -1.5987
16685TIP3   OH271545   0.578   6.311   0.680  0.1708 -0.1265 -0.6132
16685TIP3    H171546   0.533   6.331   0.762 -0.5040  0.3350 -1.0953
16685TIP3    H271547   0.512   6.320   0.612  1.0422  0.9001 -1.3765
16686TIP3   OH271548   4.135   3.087   4.587 -0.0901 -0.1091  0.9421
16686TIP3    H171549   4.165   3.047   4.506 -1.1078 -1.4359  1.1977
16686TIP3    H271550   4.044   3.111   4.570 -0.4279 -0.7315  1.8030
16687TIP3   OH271551   4.782   0.897   5.285  0.3307  1.0665  0.0336
16687TIP3    H171552   4.758   0.975   5.335  1.7760 -0.0006  2.5943
16687TIP3    H271553   4.747   0.824   5.337  2.1619 -0.1184 -0.2935
16688TIP3   OH271554   4.762   2.040  16.146  0.3896  0.4835 -0.0038
16688TIP3    H171555   4.688   2.098  16.127 -2.3382 -2.7856 -0.3206
16688TIP3    H271556   4.754   2.020  16.239 -1.1123 -2.1753 -0.6037
16689TIP3   OH271557   3.833   2.406  14.728  0.3213  0.2152 -0.1998
16689TIP3    H171558   3.871   2.460  14.797  3.2113  0.6222 -1.9572
16689TIP3    H271559   3.790   2.468  14.669 -0.7046  0.0216  0.3084
16690TIP3   OH271560   5.833   4.737  11.273 -0.5836  0.1426 -0.0602
16690TIP3    H171561   5.774   4.738  11.198 -1.8813 -0.4431  0.9185
16690TIP3    H271562   5.877   4.822  11.270 -1.2994  0.4899 -0.9634
16691TIP3   OH271563   5.930   6.109  13.277 -0.1564  0.0846  0.2195
16691TIP3    H171564   6.018   6.118  13.313  0.5606  1.2857 -1.6972
16691TIP3    H271565   5.926   6.174  13.207 -1.7289 -1.5637 -1.3348
16692TIP3   OH271566   3.176   4.333   5.650 -0.1672  0.4971 -0.0273
16692TIP3    H171567   3.237   4.393   5.695  1.2201 -2.2655  2.0629
16692TIP3    H271568   3.213   4.246   5.664 -3.4917 -1.1615 -0.5995
16693TIP3   OH271569   1.055   2.777   3.479 -0.0200 -0.2263 -0.1799
16693TIP3    H171570   1.063   2.865   3.442  0.9014 -0.6127 -0.9599
16693TIP3    H271571   1.145   2.744   3.483 -0.4774 -1.9653 -2.0585
16694TIP3   OH271572   0.037   0.493   5.982 -0.4455  0.8122  0.2818
16694TIP3    H171573   0.084   0.464   6.060 -0.3617 -0.1368 -0.1075
16694TIP3    H271574  -0.032   0.550   6.016  0.3992  1.4754  0.9355
16695TIP3   OH271575   3.255   2.629  12.396 -0.2378 -0.1207 -1.2063
16695TIP3    H171576   3.209   2.546  12.404  0.5427 -0.4592 -0.0356
16695TIP3    H271577   3.348   2.605  12.394  0.0642  0.7746  0.4895
16696TIP3   OH271578   6.248   2.091  13.900 -0.1499 -0.0550  0.2057
16696TIP3    H171579   6.183   2.079  13.830 -0.3933  2.9711 -0.2156
16696TIP3    H271580   6.315   2.147  13.861  0.1188  1.0618  2.1360
16697TIP3   OH271581   4.338   0.711  15.693  0.2903  0.5296  0.2649
16697TIP3    H171582   4.412   0.719  15.754  0.1614  1.6922  0.2853
16697TIP3    H271583   4.303   0.799  15.686 -1.2131 -0.0398  0.3719
16698TIP3   OH271584   5.040   4.535  16.311 -0.0232 -0.3471 -0.0560
16698TIP3    H171585   5.042   4.459  16.253 -0.2562 -1.1715  0.9730
16698TIP3    H271586   5.125   4.532  16.356  0.3804  0.6016 -0.7396
16699TIP3   OH271587   6.109   4.705   2.274 -0.5659 -0.6175  0.6978
16699TIP3    H171588   6.039   4.641   2.266  0.5730 -1.6602 -2.8325
16699TIP3    H271589   6.078   4.781   2.226  1.2244 -1.7816 -2.6396
16700TIP3   OH271590   2.501   0.946   0.221 -0.0163 -0.1253  0.6423
16700TIP3    H171591   2.484   0.871   0.164 -0.6323  0.7433 -0.3601
16700TIP3    H271592   2.521   0.908   0.306 -1.2373 -1.4072  0.3838
16701TIP3   OH271593   4.274   5.844   1.383  0.5522 -0.3087 -0.0148
16701TIP3    H171594   4.361   5.805   1.391  0.3557 -0.7259  0.1367
16701TIP3    H271595   4.221   5.775   1.343  0.1216 -0.3069  0.5396
16702TIP3   OH271596   2.690   2.361  16.720 -0.6280  0.0555  0.7717
16702TIP3    H171597   2.656   2.367  16.810  2.4052  0.3227  2.0360
16702TIP3    H271598   2.773   2.314  16.729 -0.0056  0.4952 -1.8608
16703TIP3   OH271599   3.915   1.700   2.169  0.0276  0.4543  0.2021
16703TIP3    H171600   3.884   1.609   2.172 -0.4937  0.6332  0.2614
16703TIP3    H271601   3.836   1.753   2.179  0.3352  0.9169  0.2119
16704TIP3   OH271602   0.814   0.159  13.430 -0.2297 -0.3874  0.2685
16704TIP3    H171603   0.768   0.235  13.395 -0.0425  0.5627  2.0049
16704TIP3    H271604   0.880   0.138  13.363  1.8016  2.9015  1.0110
16705TIP3   OH271605   0.407   3.082   1.558  0.3124  0.0565 -0.0915
16705TIP3    H171606   0.336   3.041   1.509  0.5791  1.1910 -1.4682
16705TIP3    H271607   0.384   3.067   1.650 -0.5738 -1.4718 -0.5268
16706TIP3   OH271608   0.012   0.786   0.178 -0.0108 -0.0444 -0.7692
16706TIP3    H171609   0.082   0.819   0.121  0.4361  0.1480 -0.1211
16706TIP3    H271610  -0.038   0.864   0.201  0.3998  0.0284 -0.1091
16707TIP3   OH271611   5.331   3.617   0.677 -0.1738  0.6320 -0.2797
16707TIP3    H171612   5.342   3.693   0.620 -0.1986  0.1111 -0.9961
16707TIP3    H271613   5.314   3.654   0.764 -0.8503  1.4467 -0.7464
16708TIP3   OH271614   1.453   1.701   0.427 -0.3121 -0.6910  0.2924
16708TIP3    H171615   1.365   1.713   0.461  0.3501 -2.6635  3.0827
16708TIP3    H271616   1.509   1.749   0.489  0.6439  0.1047 -1.1365
16709TIP3   OH271617   2.323   4.711   2.861 -0.6173 -0.0528 -0.2982
16709TIP3    H171618   2.300   4.626   2.899  0.4995  0.1800  0.9651
16709TIP3    H271619   2.366   4.690   2.779 -2.2977 -0.6021 -1.0857
16710TIP3   OH271620   2.136   6.746  15.893 -0.2163  0.2202 -0.2423
16710TIP3    H171621   2.129   6.834  15.854  1.4594  0.3761 -0.2582
16710TIP3    H271622   2.230   6.731  15.902 -0.4502 -1.7535 -0.6186
16711TIP3   OH271623   2.121   3.175  16.844 -0.6508  0.2346 -0.1114
16711TIP3    H171624   2.207   3.138  16.827 -0.4650  0.6090  0.0138
16711TIP3    H271625   2.081   3.185  16.758 -0.1879  0.9760 -0.2519
16712TIP3   OH271626   4.949   4.979  11.206 -0.0367  0.0213 -0.1237
16712TIP3    H171627   4.990   5.025  11.134 -0.5823 -0.9116 -1.0587
16712TIP3    H271628   4.994   5.011  11.284  0.6901  0.9058 -0.8896
16713TIP3   OH271629   4.010   0.375   1.838  0.3144 -0.3370 -0.3530
16713TIP3    H171630   4.075   0.372   1.907 -0.5150  1.8381  0.6379
16713TIP3    H271631   3.942   0.314   1.865  1.0851 -1.2560 -0.4715
16714TIP3   OH271632   1.323   5.841  13.019  0.8178  0.0518 -0.0656
16714TIP3    H171633   1.282   5.907  12.964  0.5316 -0.0286  0.0483
16714TIP3    H271634   1.409   5.877  13.040  2.3590 -1.3411 -3.2959
16715TIP3   OH271635   2.403   0.140   1.132 -0.0405  0.5896 -0.2328
16715TIP3    H171636   2.478   0.199   1.127 -1.1943  2.0680 -1.0586
16715TIP3    H271637   2.418   0.077   1.061  0.3218  0.9980 -0.5256
16716TIP3   OH271638   2.440   4.334   1.092 -0.1627  0.6626 -0.4923
16716TIP3    H171639   2.419   4.246   1.061 -1.2248  1.2431 -1.4720
16716TIP3    H271640   2.536   4.335   1.100 -0.0305 -0.1679 -1.7500
16717TIP3   OH271641   2.166   5.051   3.646  0.5244 -0.2101  0.5121
16717TIP3    H171642   2.223   5.119   3.611  1.8764 -1.0406  1.0208
16717TIP3    H271643   2.181   4.975   3.589  0.6361 -0.7099  1.1898
16718TIP3   OH271644   3.155   5.985  12.935  0.2391  0.1673 -0.0385
16718TIP3    H171645   3.160   5.908  12.878  2.6518  0.3468 -0.1784
16718TIP3    H271646   3.111   6.052  12.882  0.8521 -0.2097 -1.0606
16719TIP3   OH271647   2.995   0.556   5.438 -0.4489 -0.1663  0.0349
16719TIP3    H171648   3.027   0.642   5.410  0.3073 -0.4911 -0.1140
16719TIP3    H271649   3.063   0.523   5.496 -1.2506 -0.1969  0.9941
16720TIP3   OH271650   1.067   1.593  13.102  0.0109 -0.0920 -0.1819
16720TIP3    H171651   1.055   1.501  13.079  0.8752 -1.5382  4.2725
16720TIP3    H271652   1.158   1.612  13.079 -0.5102  0.1240 -2.2340
16721TIP3   OH271653   2.731   2.651  16.833  0.3926  0.0331 -0.1759
16721TIP3    H171654   2.642   2.651  16.796  1.1415  1.5658 -2.1906
16721TIP3    H271655   2.763   2.562  16.820 -0.2769 -0.1021 -0.9825
16722TIP3   OH271656   6.538   3.505  14.251  0.3185  0.1369  0.0961
16722TIP3    H171657   6.627   3.531  14.275  0.9808 -0.3187 -1.7022
16722TIP3    H271658   6.481   3.556  14.309  1.7348 -0.3835  2.0626
16723TIP3   OH271659   5.786   0.114  14.906 -0.2409 -0.3601 -0.1268
16723TIP3    H171660   5.856   0.147  14.849 -1.2044 -0.7039 -1.5716
16723TIP3    H271661   5.831   0.082  14.984  1.0994  0.4505 -0.5362
16724TIP3   OH271662   2.623   4.724  13.490 -0.3490 -0.4513  0.2044
16724TIP3    H171663   2.645   4.658  13.555  0.1855 -0.2877  0.1961
16724TIP3    H271664   2.561   4.680  13.431 -0.3523 -0.7952  0.4637
16725TIP3   OH271665   5.125   3.888   3.255  0.1839  0.1585 -0.5217
16725TIP3    H171666   5.133   3.965   3.199 -0.3571  0.2121 -0.5265
16725TIP3    H271667   5.066   3.829   3.207  0.2602 -0.0788 -0.3242
16726TIP3   OH271668   6.603   3.849  15.770  0.3464 -0.2948  0.2108
16726TIP3    H171669   6.614   3.755  15.780 -0.0179 -0.2339  1.3026
16726TIP3    H271670   6.528   3.859  15.711  0.5331 -0.6796 -0.0975
16727TIP3   OH271671   1.604   2.151   4.293 -0.1336 -0.2730 -0.5937
16727TIP3    H171672   1.624   2.065   4.258  0.6670 -0.7390  0.9017
16727TIP3    H271673   1.509   2.159   4.286 -0.1924 -1.1839 -0.9280
16728TIP3   OH271674   5.491   2.583   0.952  0.5794 -0.0299  0.2390
16728TIP3    H171675   5.546   2.660   0.937  1.0378 -0.3022  0.4914
16728TIP3    H271676   5.480   2.580   1.047  2.1931 -1.3627  0.4325
16729TIP3   OH271677   6.378   6.619   3.905  0.3650 -0.6756  0.0491
16729TIP3    H171678   6.444   6.557   3.934  0.3246 -0.0579  1.5602
16729TIP3    H271679   6.413   6.705   3.930 -0.8806 -0.3275  0.7039
16730TIP3   OH271680   2.162   1.301   6.152 -0.0690  0.0917 -0.0314
16730TIP3    H171681   2.190   1.296   6.060  0.8759 -1.2371  0.2888
16730TIP3    H271682   2.178   1.213   6.186 -1.8628  0.1160  1.0118
16731TIP3   OH271683   0.996   6.612   5.038  0.0155 -0.3349  0.1494
16731TIP3    H171684   1.008   6.530   5.086  0.1286  0.0115  0.7110
16731TIP3    H271685   0.903   6.612   5.013 -0.1175 -0.3699  0.6336
16732TIP3   OH271686   2.982   4.269   6.243 -0.1685  0.7296  0.1583
16732TIP3    H171687   3.032   4.283   6.163  0.6833 -0.4872  0.4563
16732TIP3    H271688   2.956   4.356   6.271  2.0356  1.4276  0.1543
16733TIP3   OH271689   0.081   1.814  12.346 -0.7446  0.1661 -0.0228
16733TIP3    H171690   0.090   1.800  12.440  0.4527  0.3513 -0.0975
16733TIP3    H271691   0.136   1.889  12.327  0.7314 -1.1310 -1.1937
16734TIP3   OH271692   0.063   2.762  12.653  0.2806 -0.3838 -0.2436
16734TIP3    H171693   0.063   2.784  12.747 -4.4069  0.2173 -0.1484
16734TIP3    H271694   0.078   2.668  12.651  1.0165 -0.3221  1.0313
16735TIP3   OH271695   3.088   1.167  14.369  0.4750 -0.3785  0.5439
16735TIP3    H171696   3.041   1.103  14.423 -0.0067 -1.2507 -0.8448
16735TIP3    H271697   3.156   1.201  14.426 -0.9263 -0.1566  2.1583
16736TIP3   OH271698   6.814   6.161   0.785  0.1635  0.0461  0.2129
16736TIP3    H171699   6.761   6.090   0.819 -0.3533  0.1116 -0.4412
16736TIP3    H271700   6.823   6.142   0.692  1.1495  0.1257  0.2849
16737TIP3   OH271701   1.726   2.369  14.862  0.5270 -0.0101 -0.0011
16737TIP3    H171702   1.738   2.371  14.957 -0.0087 -2.3516  0.1803
16737TIP3    H271703   1.800   2.418  14.828  2.3134 -1.4361  1.5720
16738TIP3   OH271704   3.085   4.132   4.491 -0.4802 -0.4155  0.6396
16738TIP3    H171705   3.034   4.183   4.554 -1.8571 -1.6320  0.5552
16738TIP3    H271706   3.027   4.122   4.415  0.5896 -0.2675 -0.2274
16739TIP3   OH271707   2.812   4.920  13.831  0.1660  0.3845 -0.4296
16739TIP3    H171708   2.745   4.956  13.773 -1.1485 -0.8154  0.2635
16739TIP3    H271709   2.862   4.860  13.775 -2.4744 -2.4780 -0.0003
16740TIP3   OH271710   5.358   0.095  16.687  0.2229  0.5132  0.2668
16740TIP3    H171711   5.418   0.105  16.761 -1.4698 -1.3328  2.0159
16740TIP3    H271712   5.381   0.010  16.650 -2.5604 -1.3853  2.4041
16741TIP3   OH271713   3.410   1.852   1.679 -0.4494  0.2215 -0.1598
16741TIP3    H171714   3.433   1.933   1.724 -0.5096 -0.1382  0.5367
16741TIP3    H271715   3.323   1.868   1.643 -0.4083  0.5067 -0.1291
16742TIP3   OH271716   0.894   6.016  11.991 -0.9431  0.3422 -0.2950
16742TIP3    H171717   0.821   6.057  12.036 -0.0488  0.4255  1.1634
16742TIP3    H271718   0.956   6.088  11.975 -0.5300  0.0307 -0.1352
16743TIP3   OH271719   1.693   5.921  13.315  0.2048  0.1996  0.8840
16743TIP3    H171720   1.603   5.947  13.294 -0.5725 -2.1869  0.9125
16743TIP3    H271721   1.686   5.878  13.400  1.6569  1.2420  1.5573
16744TIP3   OH271722   6.342   2.914   4.597  0.1394  0.6684  0.0356
16744TIP3    H171723   6.424   2.924   4.549  0.3318  1.5593  0.5327
16744TIP3    H271724   6.275   2.910   4.528  0.5425  0.4548 -0.3523
16745TIP3   OH271725   3.451   5.942  12.298 -0.7914  0.9496 -0.3812
16745TIP3    H171726   3.424   5.910  12.212 -1.1852 -1.0144  0.4292
16745TIP3    H271727   3.416   6.031  12.302 -0.6215  1.1321 -2.3028
16746TIP3   OH271728   4.911   4.281   4.330  0.2780  0.3104  0.1331
16746TIP3    H171729   4.836   4.339   4.317  0.6024  0.7637  0.2654
16746TIP3    H271730   4.985   4.340   4.342  0.9905 -0.1104 -1.7757
16747TIP3   OH271731   1.850   0.999  15.580 -0.5339 -0.0567 -0.0646
16747TIP3    H171732   1.876   0.909  15.559 -2.0302 -0.6792  0.6069
16747TIP3    H271733   1.917   1.029  15.641  0.6684 -0.2541 -1.2405
16748TIP3   OH271734   2.445   2.977  15.878 -0.5542 -0.1968 -0.3787
16748TIP3    H171735   2.350   2.973  15.892 -0.6881 -0.6878 -1.3293
16748TIP3    H271736   2.455   3.037  15.804 -0.4497 -2.8994 -2.7197
16749TIP3   OH271737   0.208   3.587  16.465  0.4311  1.1738 -0.4038
16749TIP3    H171738   0.266   3.634  16.405  0.3101  0.7727 -0.8440
16749TIP3    H271739   0.125   3.578  16.418  0.6788 -0.1201 -0.6402
16750TIP3   OH271740   3.475   2.474  15.500 -0.1063  0.0541 -0.6985
16750TIP3    H171741   3.527   2.404  15.539  1.3545  0.8786 -1.0789
16750TIP3    H271742   3.539   2.527  15.452 -1.2726  1.2523 -0.9815
16751TIP3   OH271743   1.526   1.276  14.764  0.9635  0.0977  0.8102
16751TIP3    H171744   1.487   1.362  14.781  1.1298  0.1740  0.8129
16751TIP3    H271745   1.619   1.287  14.788  0.8956 -0.2063  1.2323
16752TIP3   OH271746   6.129   1.013   1.011  0.4879 -0.2356  0.3834
16752TIP3    H171747   6.051   1.040   0.963  0.7253 -0.8964 -0.3853
16752TIP3    H271748   6.108   1.031   1.103 -0.6801 -0.6649  0.2158
16753TIP3   OH271749   1.733   6.675  14.960  0.0872 -0.2383  0.7656
16753TIP3    H171750   1.686   6.757  14.974  0.1714 -0.0930  0.2076
16753TIP3    H271751   1.677   6.609  15.001  0.2352  0.1502  1.5995
16754TIP3   OH271752   0.926   3.646   1.949 -0.4480 -0.1122 -0.3573
16754TIP3    H171753   0.884   3.642   2.035 -3.3615  1.5170 -1.5486
16754TIP3    H271754   0.855   3.668   1.889  1.8768  1.1638 -2.8484
16755TIP3   OH271755   3.733   2.905   3.356  0.1272  0.5775 -0.1145
16755TIP3    H171756   3.813   2.879   3.310 -0.5733 -3.2459  0.5132
16755TIP3    H271757   3.760   2.919   3.446  0.1565 -0.5983  0.0739
16756TIP3   OH271758   0.469   5.190  12.195 -0.3043 -0.4500 -0.0282
16756TIP3    H171759   0.562   5.174  12.182 -0.4547 -1.2429 -0.2131
16756TIP3    H271760   0.465   5.263  12.257  0.4307 -0.0489 -0.4390
16757TIP3   OH271761   2.840   0.755  11.190  0.1902  0.2917 -0.7702
16757TIP3    H171762   2.797   0.824  11.242  0.4938 -1.4086  1.9748
16757TIP3    H271763   2.922   0.795  11.161  0.4924  1.0764  0.9873
16758TIP3   OH271764   5.905   2.464  14.544  0.2982  0.0216  0.3570
16758TIP3    H171765   5.956   2.537  14.509 -0.9955  0.9577  0.3544
16758TIP3    H271766   5.900   2.481  14.638 -0.1451  0.0452  0.3349
16759TIP3   OH271767   1.341   6.684  14.482  0.6018 -0.0697  0.3768
16759TIP3    H171768   1.389   6.603  14.500 -0.7065 -1.0422 -0.4014
16759TIP3    H271769   1.277   6.690  14.553  0.7719  0.3740  0.5013
16760TIP3   OH271770   0.332   1.639   5.738  0.1677  0.1642  0.0211
16760TIP3    H171771   0.305   1.616   5.650  3.9404 -2.1950 -0.7189
16760TIP3    H271772   0.291   1.574   5.794  0.6534 -0.6188 -0.5095
16761TIP3   OH271773   2.128   3.694  16.668 -0.3285  0.2576  0.5121
16761TIP3    H171774   2.068   3.624  16.695 -1.3146  1.3079  1.1485
16761TIP3    H271775   2.171   3.721  16.749  2.2738 -1.5336 -0.1390
16762TIP3   OH271776   1.400   3.534   2.040  0.8186  0.2987 -0.4674
16762TIP3    H171777   1.307   3.550   2.055  0.9626 -0.2269  1.1089
16762TIP3    H271778   1.443   3.566   2.119  1.9946  0.6234 -1.2192
16763TIP3   OH271779   4.307   4.694   5.098 -0.4296  0.0352  0.2466
16763TIP3    H171780   4.291   4.758   5.029  0.5872  3.3041  2.7938
16763TIP3    H271781   4.400   4.675   5.093 -0.0482  1.4039  1.5035
16764TIP3   OH271782   3.272   1.688   2.964  0.2592 -0.0545  0.2521
16764TIP3    H171783   3.187   1.647   2.978  0.8395 -1.1601  0.6247
16764TIP3    H271784   3.288   1.738   3.045  1.7639 -3.1518  2.0451
16765TIP3   OH271785   4.603   0.693  11.444  0.1891 -0.5228  0.2884
16765TIP3    H171786   4.637   0.659  11.360 -0.2825  1.0443 -0.5679
16765TIP3    H271787   4.653   0.773  11.459 -0.9275  0.1362  0.6063
16766TIP3   OH271788   1.828   3.574   1.016  0.2239  0.0546 -0.5800
16766TIP3    H171789   1.815   3.515   1.091  0.2651 -0.3881 -0.9212
16766TIP3    H271790   1.759   3.640   1.026 -0.5960 -0.7303 -0.8578
16767TIP3   OH271791   1.153   6.067  16.049  0.4820 -0.2942 -0.5149
16767TIP3    H171792   1.100   5.990  16.069  3.4023 -2.3106  0.2006
16767TIP3    H271793   1.157   6.115  16.132 -0.3939  0.0207 -0.6467
16768TIP3   OH271794   5.058   5.278   4.056 -0.4552 -0.5882  0.7334
16768TIP3    H171795   5.066   5.262   4.150  0.0517 -1.7672  0.5135
16768TIP3    H271796   5.147   5.266   4.022 -0.8228 -1.2779 -0.0380
16769TIP3   OH271797   0.286   0.391   3.908 -0.5157 -0.1965 -0.5008
16769TIP3    H171798   0.201   0.435   3.917 -0.5690  0.8228 -4.1318
16769TIP3    H271799   0.350   0.454   3.941 -1.0343 -0.1450  0.4214
16770TIP3   OH271800   3.036   5.972   4.438  0.1555 -0.3981 -0.4123
16770TIP3    H171801   3.088   5.965   4.519 -0.9497 -0.2509  0.3266
16770TIP3    H271802   3.035   6.066   4.419 -0.5352 -0.3024  0.0541
16771TIP3   OH271803   3.494   6.342  11.378 -0.2627 -0.1239 -0.2927
16771TIP3    H171804   3.436   6.300  11.315 -1.8716 -0.9156  1.6254
16771TIP3    H271805   3.525   6.271  11.433 -0.0847  0.7306  0.7453
16772TIP3   OH271806   4.594   1.734  16.270  0.0975  0.4967 -0.3084
16772TIP3    H171807   4.579   1.709  16.178  0.9306 -1.4509  0.0346
16772TIP3    H271808   4.685   1.710  16.287 -0.0743  0.7320  1.0557
16773TIP3   OH271809   4.265   6.225  13.825  0.4829  0.1208 -0.0476
16773TIP3    H171810   4.281   6.144  13.777 -0.1017  0.2050 -0.3967
16773TIP3    H271811   4.339   6.282  13.801 -0.2648  0.4910 -1.6049
16774TIP3   OH271812   2.013   2.943  12.367 -0.5699 -0.1701 -0.2743
16774TIP3    H171813   2.106   2.949  12.344 -0.4769 -2.4277 -0.6805
16774TIP3    H271814   2.007   2.984  12.453  1.0365 -1.0706  0.3049
16775TIP3   OH271815   3.096   4.336  14.678  0.0357 -0.2296 -0.3426
16775TIP3    H171816   3.048   4.413  14.710  1.2386  0.7943 -0.8964
16775TIP3    H271817   3.142   4.303  14.755  1.0537  0.8042 -0.4785
16776TIP3   OH271818   3.005   1.574   3.070  0.2316  1.1740  0.2954
16776TIP3    H171819   3.039   1.537   3.152 -0.5024 -0.3550 -0.0659
16776TIP3    H271820   2.927   1.623   3.096 -0.9532 -0.6466  0.3728
16777TIP3   OH271821   3.059   0.647   2.678 -0.1635  0.4842  0.5461
16777TIP3    H171822   3.124   0.704   2.636 -2.8034  1.2731 -2.9510
16777TIP3    H271823   3.085   0.559   2.651 -1.2526  0.9094 -2.1785
16778TIP3   OH271824   2.783   2.302   1.676 -0.6132  0.4139  0.3551
16778TIP3    H171825   2.801   2.372   1.613  0.0078  0.9757  1.1431
16778TIP3    H271826   2.859   2.301   1.734 -0.8714 -0.5424  0.7082
16779TIP3   OH271827   5.793   2.954  17.176  0.3108 -0.4631  0.2281
16779TIP3    H171828   5.870   2.907  17.143 -0.3790 -0.9493 -0.7718
16779TIP3    H271829   5.804   3.044  17.144  2.0293  0.3389  2.8140
16780TIP3   OH271830   2.512   0.025  14.238  0.1858 -0.3368 -0.1921
16780TIP3    H171831   2.514   0.018  14.334 -0.6099 -0.9957 -0.2101
16780TIP3    H271832   2.429  -0.016  14.213  0.4402 -0.2742 -1.1770
16781TIP3   OH271833   6.789   1.568   5.484 -0.2956 -0.1248 -0.6454
16781TIP3    H171834   6.765   1.524   5.565 -2.1718 -0.8624 -1.5549
16781TIP3    H271835   6.884   1.581   5.491 -0.2068 -1.3831  1.0536
16782TIP3   OH271836   4.118   4.111   3.760 -0.2556  0.2917  0.3812
16782TIP3    H171837   4.122   4.188   3.703  0.3123 -0.0817 -0.0803
16782TIP3    H271838   4.136   4.146   3.848 -1.1664  0.8687  0.3554
16783TIP3   OH271839   5.611   3.081   1.741 -0.4680  0.0376  0.1717
16783TIP3    H171840   5.642   3.085   1.831 -0.0646  1.7695 -0.0095
16783TIP3    H271841   5.516   3.087   1.748 -0.4993 -0.8389  0.5264
16784TIP3   OH271842   3.284   4.040   2.240 -0.2659 -0.6793  0.0896
16784TIP3    H171843   3.353   3.992   2.286 -0.5597 -0.4089  0.8336
16784TIP3    H271844   3.270   3.991   2.159 -0.1233 -1.4977  0.5492
16785TIP3   OH271845   0.897   5.650  11.195  0.0716 -0.3771  0.3565
16785TIP3    H171846   0.973   5.706  11.180  1.2899 -1.5090  1.9028
16785TIP3    H271847   0.910   5.615  11.284 -0.4951 -3.2366 -0.5582
16786TIP3   OH271848   2.026   3.617  13.063  0.3170 -0.2400 -0.2743
16786TIP3    H171849   1.950   3.572  13.101  0.9318  0.2456  1.6272
16786TIP3    H271850   1.998   3.708  13.054  0.8892  0.1114  1.1939
16787TIP3   OH271851   3.659   1.731  12.996 -0.3491  0.2643 -0.1415
16787TIP3    H171852   3.694   1.819  13.015  1.3110  0.0915 -2.1072
16787TIP3    H271853   3.582   1.724  13.053  1.9962  1.2053  3.5230
16788TIP3   OH271854   0.391   1.618   1.492 -0.0763 -0.1649 -0.2178
16788TIP3    H171855   0.462   1.644   1.551  0.6532 -0.6135 -0.8816
16788TIP3    H271856   0.312   1.630   1.544  0.6592 -2.5577  1.6633
16789TIP3   OH271857   2.802   0.218  11.297 -0.4206  0.3148  0.1357
16789TIP3    H171858   2.867   0.287  11.310  0.0310 -0.0577 -0.1091
16789TIP3    H271859   2.799   0.205  11.202  0.5277 -0.9678  0.2568
16790TIP3   OH271860   1.121   4.898  16.563  0.1322  0.3877  0.5024
16790TIP3    H171861   1.196   4.872  16.509  0.3860 -0.7820  1.3557
16790TIP3    H271862   1.154   4.970  16.616 -0.8348  3.2932 -2.5255
16791TIP3   OH271863   5.235   1.511  14.668 -0.1746  0.6224  0.2862
16791TIP3    H171864   5.196   1.588  14.626  0.3627  1.8348  1.8955
16791TIP3    H271865   5.173   1.486  14.736 -0.6558 -0.8303 -0.6249
16792TIP3   OH271866   2.259   2.406  16.269 -0.4531  0.2512 -0.3670
16792TIP3    H171867   2.212   2.474  16.317  1.2791  0.5852  0.9360
16792TIP3    H271868   2.310   2.454  16.203  0.7180  0.2640  0.5091
16793TIP3   OH271869   4.842   0.746  14.435  0.0101  0.2572 -0.2076
16793TIP3    H171870   4.752   0.756  14.467  0.3245  0.0622  0.7489
16793TIP3    H271871   4.895   0.736  14.514  0.8277 -0.0259 -0.7815
16794TIP3   OH271872   0.321   6.316  17.084  0.0209 -0.3822  0.7420
16794TIP3    H171873   0.269   6.367  17.146  0.8273  0.4827  0.7277
16794TIP3    H271874   0.412   6.340  17.103  0.2653  0.3175 -1.1295
16795TIP3   OH271875   5.400   0.880  16.624  0.2691  0.1109 -0.4963
16795TIP3    H171876   5.447   0.797  16.632  0.4405 -0.0091 -2.2588
16795TIP3    H271877   5.320   0.857  16.576 -1.0846  0.5135  1.4536
16796TIP3   OH271878   0.489   5.678  16.809  0.0391  0.2827 -0.0241
16796TIP3    H171879   0.469   5.660  16.901  1.9920 -1.4164  0.1432
16796TIP3    H271880   0.574   5.637  16.794 -1.1820 -1.4382 -3.1921
16797TIP3   OH271881   3.591   5.453   5.283 -0.4775  0.1490  0.4268
16797TIP3    H171882   3.552   5.377   5.325 -0.3045  0.9048  2.0590
16797TIP3    H271883   3.679   5.459   5.320 -0.2518  0.7578 -0.1770
16798TIP3   OH271884   6.220   3.802   0.202  0.0065  0.5419 -0.1271
16798TIP3    H171885   6.144   3.856   0.181  1.0437  2.1602  0.0840
16798TIP3    H271886   6.275   3.806   0.124 -0.2347 -0.8840 -0.4036
16799TIP3   OH271887   1.668   0.418  17.113 -0.3004  0.0735  0.4168
16799TIP3    H171888   1.578   0.448  17.116 -0.1998  0.3485  2.1190
16799TIP3    H271889   1.689   0.398  17.205  1.8152  1.4299  0.3044
16800TIP3   OH271890   0.276   6.088   6.036  0.1426 -0.4033  0.1109
16800TIP3    H171891   0.250   6.144   6.109 -0.3942 -1.2740  0.6131
16800TIP3    H271892   0.350   6.037   6.071 -0.0801 -0.7819  0.0377
16801TIP3   OH271893   2.354   1.754   2.296  0.4237 -0.1241  0.4599
16801TIP3    H171894   2.296   1.814   2.344 -1.4668 -1.1304 -0.4496
16801TIP3    H271895   2.395   1.700   2.364  0.9059  1.0913  1.1706
16802TIP3   OH271896   2.880   0.359   1.476  0.5351  0.0712 -0.4106
16802TIP3    H171897   2.916   0.430   1.423  0.1729 -1.6568 -3.1784
16802TIP3    H271898   2.785   0.369   1.469  0.4757 -0.7487 -1.0317
16803TIP3   OH271899   2.091   6.420   6.088 -0.0258 -0.0673 -0.8164
16803TIP3    H171900   2.082   6.491   6.152 -0.9647 -1.5929  0.8356
16803TIP3    H271901   2.180   6.388   6.100 -0.5804 -1.1485  0.6729
16804TIP3   OH271902   5.362   0.261   4.214 -0.0274 -0.7640  0.0478
16804TIP3    H171903   5.351   0.303   4.129  0.0084 -2.1831 -0.6862
16804TIP3    H271904   5.385   0.171   4.193 -0.1830 -1.1777  1.5679
16805TIP3   OH271905   3.811   5.243  12.758 -0.1184 -0.2482 -0.2298
16805TIP3    H171906   3.720   5.257  12.734  0.0605 -0.5413 -1.1049
16805TIP3    H271907   3.861   5.287  12.690  0.4068  0.9245  0.8629
16806TIP3   OH271908   5.745   1.610  15.738  0.4470  0.1895 -0.6353
16806TIP3    H171909   5.677   1.666  15.700  1.2353  1.1268 -0.7160
16806TIP3    H271910   5.765   1.651  15.823 -0.5873 -1.3046  0.3768
16807TIP3   OH271911   4.568   1.055   3.542  0.4409  0.0061  0.2460
16807TIP3    H171912   4.644   0.996   3.536  1.4770  1.2924  0.2773
16807TIP3    H271913   4.547   1.058   3.635  2.2893  1.9395  0.6835
16808TIP3   OH271914   2.656   1.843  10.746 -0.2561 -0.3487 -0.2410
16808TIP3    H171915   2.729   1.793  10.783  1.3806  1.1886 -1.2256
16808TIP3    H271916   2.667   1.834  10.651 -1.2109  0.1143 -0.4027
16809TIP3   OH271917   3.809   4.266  12.283  0.1167 -0.1809 -0.1840
16809TIP3    H171918   3.764   4.186  12.256 -0.5784  0.2789 -0.4353
16809TIP3    H271919   3.867   4.286  12.210 -0.6884  0.2612 -0.7245
16810TIP3   OH271920   0.017   0.431  12.123 -0.0553  0.0040 -0.5887
16810TIP3    H171921   0.041   0.493  12.191 -0.3857  0.5925 -1.0018
16810TIP3    H271922   0.100   0.393  12.094  0.6234  2.9090 -2.8595
16811TIP3   OH271923   5.480   2.386   4.407  0.2544 -0.2934  0.8874
16811TIP3    H171924   5.471   2.477   4.434 -0.2525 -0.2580  0.6182
16811TIP3    H271925   5.508   2.391   4.315 -2.1987 -0.3697  0.0670
16812TIP3   OH271926   0.189   3.823  15.315 -0.6108  0.1375 -0.7792
16812TIP3    H171927   0.269   3.868  15.341 -0.5080  1.2629 -2.8250
16812TIP3    H271928   0.189   3.828  15.220 -4.1524  2.0775 -0.8215
16813TIP3   OH271929   5.289   4.963   5.560  0.1988  0.8743  0.2226
16813TIP3    H171930   5.275   4.969   5.466 -0.8156 -0.7987  0.2235
16813TIP3    H271931   5.204   4.987   5.598 -0.0850 -0.6419  0.6025
16814TIP3   OH271932   6.537   2.206  13.023 -0.4364  0.4063  0.2186
16814TIP3    H171933   6.514   2.279  12.966 -0.4519 -0.5399 -1.0468
16814TIP3    H271934   6.608   2.161  12.976 -1.0072 -0.8730  0.5280
16815TIP3   OH271935   2.489   0.537   0.607  0.0235  0.0908  0.3800
16815TIP3    H171936   2.532   0.522   0.692  0.0764 -0.0687  0.3253
16815TIP3    H271937   2.515   0.462   0.554  1.5246  1.1003 -0.3903
16816TIP3   OH271938   0.100   1.426  13.900 -0.2300  0.1222 -0.1762
16816TIP3    H171939   0.183   1.393  13.933  0.0039  0.7008 -0.1763
16816TIP3    H271940   0.049   1.348  13.879  0.0929 -0.2347  0.3753
16817TIP3   OH271941   3.534   1.139  13.148 -0.2745  0.2917 -0.2927
16817TIP3    H171942   3.518   1.212  13.208 -0.3153  1.0416 -1.1831
16817TIP3    H271943   3.619   1.159  13.108 -0.8604  0.5236 -1.4651
16818TIP3   OH271944   2.849   3.858  16.718 -0.1889 -0.3598  0.0599
16818TIP3    H171945   2.798   3.896  16.647 -0.7192  0.8442  1.0411
16818TIP3    H271946   2.880   3.774  16.684 -2.8470 -1.1612 -0.5826
16819TIP3   OH271947   5.777   5.098   5.187 -0.2878  0.4820 -0.0187
16819TIP3    H171948   5.743   5.072   5.102  0.0834 -2.6638  0.6738
16819TIP3    H271949   5.868   5.121   5.170  0.1546 -1.3435 -0.3618
16820TIP3   OH271950   0.817   5.451   1.335  0.0530 -0.0331  0.0291
16820TIP3    H171951   0.759   5.389   1.291  0.4685 -0.4194  0.0079
16820TIP3    H271952   0.871   5.396   1.393  0.7779  0.2377 -0.3664
16821TIP3   OH271953   4.059   6.413  16.265 -0.6074  0.2843 -0.0725
16821TIP3    H171954   4.047   6.319  16.276 -2.0458  0.5497  0.9523
16821TIP3    H271955   3.988   6.440  16.206  0.2846  0.6121 -1.0216
16822TIP3   OH271956   1.462   4.481   2.933 -0.3883 -0.1163  0.2280
16822TIP3    H171957   1.386   4.424   2.924  0.8470 -1.6734 -0.7157
16822TIP3    H271958   1.484   4.505   2.843  1.1584 -0.9602  0.3586
16823TIP3   OH271959   3.959   1.732  10.863 -0.3931  0.1313  0.3541
16823TIP3    H171960   4.024   1.752  10.796 -0.5159  1.0836  0.5020
16823TIP3    H271961   3.876   1.763  10.827 -0.3478  1.3341  1.2218
16824TIP3   OH271962   1.813   1.353   5.257 -0.0688  0.4760 -0.0607
16824TIP3    H171963   1.884   1.404   5.296  0.8258 -0.2551 -0.6786
16824TIP3    H271964   1.830   1.263   5.284 -2.0696  0.5553  1.6546
16825TIP3   OH271965   2.695   5.693  17.022  0.3222 -0.2475  0.1457
16825TIP3    H171966   2.678   5.601  17.004 -0.5433 -0.1091  0.2202
16825TIP3    H271967   2.639   5.741  16.962 -0.8743  0.2182  1.5701
16826TIP3   OH271968   1.325   4.292   5.819  0.5836  0.3451 -0.4683
16826TIP3    H171969   1.403   4.346   5.807  1.0983  0.5795  3.0001
16826TIP3    H271970   1.359   4.206   5.843 -0.2559 -0.2361 -1.3058
16827TIP3   OH271971   1.437   5.819   0.192 -0.3832  0.1095 -0.4041
16827TIP3    H171972   1.449   5.889   0.256  1.6455 -1.1639  0.7146
16827TIP3    H271973   1.489   5.846   0.116 -0.9023  0.5394 -0.6113
16828TIP3   OH271974   4.195   3.870  14.346 -0.5050  0.3193 -0.3852
16828TIP3    H171975   4.278   3.907  14.314 -1.2188  1.2005 -1.2823
16828TIP3    H271976   4.178   3.795  14.289  0.3775 -0.7764  0.7254
16829TIP3   OH271977   1.768   1.669   4.788  0.1042 -0.7399 -0.5140
16829TIP3    H171978   1.813   1.751   4.766  1.0472 -1.3306 -0.8610
16829TIP3    H271979   1.798   1.648   4.876 -2.2169  0.6442  0.6926
16830TIP3   OH271980   1.083   6.354  16.528 -0.3306  0.0818 -0.6158
16830TIP3    H171981   1.018   6.324  16.591 -0.1309  1.4843  0.2969
16830TIP3    H271982   1.157   6.383  16.582  0.3641  0.1224 -1.5618
16831TIP3   OH271983   6.611   2.533  12.572  0.2857 -0.0871  0.1267
16831TIP3    H171984   6.638   2.579  12.652 -0.8415 -1.5913  1.4395
16831TIP3    H271985   6.593   2.603  12.509  0.7325  1.1746  1.3385
16832TIP3   OH271986   3.719   6.730   2.247 -0.5739 -0.5377 -0.6759
16832TIP3    H171987   3.650   6.746   2.183  1.0780 -0.2978 -2.4974
16832TIP3    H271988   3.780   6.671   2.202  1.1940  0.5017  0.2606
16833TIP3   OH271989   0.879   2.585  13.338 -0.1323 -0.3881  0.0212
16833TIP3    H171990   0.844   2.673  13.321 -0.2991 -0.1631  1.3612
16833TIP3    H271991   0.867   2.573  13.433  2.5801 -0.6440  0.4271
16834TIP3   OH271992   6.522   4.164  16.481  0.0961  0.1472  0.2522
16834TIP3    H171993   6.569   4.082  16.470 -0.0305  0.0196  0.6421
16834TIP3    H271994   6.588   4.232  16.468  0.1534 -0.0117 -0.2947
16835TIP3   OH271995   2.717   0.448  12.110 -0.2544  0.2497  1.1302
16835TIP3    H171996   2.744   0.538  12.091  1.2822 -0.4276 -0.0704
16835TIP3    H271997   2.634   0.438  12.063  0.8706  0.2535 -0.9705
16836TIP3   OH271998   5.408   5.424   1.722  0.3368 -0.3837 -0.4610
16836TIP3    H171999   5.423   5.500   1.665 -0.9762 -0.2539 -0.6812
16836TIP3    H272000   5.391   5.352   1.662  1.5260 -0.8491 -0.2492
16837TIP3   OH272001   2.276   6.078  12.102  0.2546  0.2655  0.3689
16837TIP3    H172002   2.362   6.036  12.110  1.2013  1.9948 -0.1986
16837TIP3    H272003   2.261   6.119  12.187  0.2007  0.3595  0.3144
16838TIP3   OH272004   1.094   1.819   5.135 -0.5872  0.0761 -0.6727
16838TIP3    H172005   1.045   1.737   5.126 -0.5740 -0.0164  0.0302
16838TIP3    H272006   1.032   1.880   5.175 -0.3745  0.1919 -0.5182
16839TIP3   OH272007   5.451   2.921   1.978  0.2433  0.3074 -0.1975
16839TIP3    H172008   5.542   2.946   1.964  0.9144 -1.8156 -0.0292
16839TIP3    H272009   5.452   2.825   1.974 -2.1709  0.2553 -1.3779
16840TIP3   OH272010   1.635   0.267  11.610  0.0659  0.6887  0.9390
16840TIP3    H172011   1.629   0.246  11.516  0.4346  1.1701  0.8069
16840TIP3    H272012   1.613   0.184  11.654 -1.0507  0.6981  0.4434
16841TIP3   OH272013   6.237   1.719  13.544  0.1864 -0.0673  0.1444
16841TIP3    H172014   6.296   1.643  13.545 -1.0266 -1.0387 -0.1535
16841TIP3    H272015   6.225   1.741  13.636 -1.5711 -1.9732  0.4442
16842TIP3   OH272016   2.533   4.239   5.978  0.2697 -0.2600  0.3626
16842TIP3    H172017   2.527   4.165   6.038  1.1859  1.5551  2.8890
16842TIP3    H272018   2.579   4.204   5.901  0.3835 -2.3479  1.3041
16843TIP3   OH272019   5.053   2.886   3.609 -0.2296 -0.2616  0.3239
16843TIP3    H172020   5.073   2.934   3.529 -2.4426 -0.6541 -0.5554
16843TIP3    H272021   5.093   2.800   3.596  0.2295 -0.0101  0.0589
16844TIP3   OH272022   3.477   2.785  13.010  0.5292 -0.4553  0.1311
16844TIP3    H172023   3.388   2.751  13.002  1.1572 -2.3005  0.6104
16844TIP3    H272024   3.525   2.743  12.938  1.4694 -1.0623  1.0955
16845TIP3   OH272025   4.182   4.206  14.061 -0.3386  0.4385  0.0120
16845TIP3    H172026   4.198   4.123  14.016 -0.2388 -0.8997  2.3582
16845TIP3    H272027   4.269   4.237  14.085 -0.3773  1.2493 -0.8518
16846TIP3   OH272028   2.434   4.136  11.772 -0.8378 -0.1584  0.1047
16846TIP3    H172029   2.401   4.222  11.743  1.4117  0.4083 -0.9870
16846TIP3    H272030   2.471   4.152  11.859 -0.2239  0.0383 -0.1905
16847TIP3   OH272031   4.773   1.557   0.230 -0.5678  0.1162 -0.3850
16847TIP3    H172032   4.794   1.572   0.137  0.5549 -2.7094 -0.6652
16847TIP3    H272033   4.855   1.577   0.276 -0.1401 -1.5203 -0.3922
16848TIP3   OH272034   3.774   0.737  15.016  0.4388  0.1223 -0.4167
16848TIP3    H172035   3.785   0.658  15.068  0.0934 -0.2510 -0.9040
16848TIP3    H272036   3.679   0.747  15.007  0.4740  0.6935 -0.2075
16849TIP3   OH272037   6.513   0.404  15.472 -0.0105 -0.0108  0.1058
16849TIP3    H172038   6.515   0.466  15.544 -0.2190 -0.7803  0.7846
16849TIP3    H272039   6.574   0.440  15.407  2.2537 -0.6522  1.7762
16850TIP3   OH272040   5.343   5.251   5.164 -0.2506 -0.2710  0.0151
16850TIP3    H172041   5.299   5.212   5.239  0.1129  0.5894  0.6864
16850TIP3    H272042   5.403   5.183   5.134  1.3539  0.1980  1.9968
16851TIP3   OH272043   5.182   1.854  17.060  0.0973  0.3455 -0.4335
16851TIP3    H172044   5.231   1.902  17.127 -0.5205  2.1823 -1.2386
16851TIP3    H272045   5.095   1.841  17.098 -0.7424  2.7548 -1.4007
16852TIP3   OH272046   3.276   6.220   6.002  0.0662 -0.7574  0.4565
16852TIP3    H172047   3.338   6.174   5.945 -1.0803 -2.3723  0.4257
16852TIP3    H272048   3.325   6.239   6.081  1.2354  0.0859 -0.4415
16853TIP3   OH272049   5.522   2.060   1.925  0.5234 -0.0339 -0.2773
16853TIP3    H172050   5.516   2.139   1.980 -0.8257 -1.6281  2.0255
16853TIP3    H272051   5.564   1.995   1.981 -0.0463 -1.4993 -1.4847
16854TIP3   OH272052   4.015   1.099   6.355  0.3859 -0.4262  0.1541
16854TIP3    H172053   3.968   1.179   6.332 -0.8559 -1.2523 -0.2781
16854TIP3    H272054   3.967   1.029   6.311  1.5780 -1.3991  0.3358
16855TIP3   OH272055   5.441   5.426   4.679  0.8312 -0.0358 -0.8129
16855TIP3    H172056   5.505   5.497   4.671  0.8012  0.1310  0.3040
16855TIP3    H272057   5.371   5.464   4.733  0.5453 -0.7368 -0.6893
16856TIP3   OH272058   4.152   6.425  13.993 -0.0673  0.1966 -0.2118
16856TIP3    H172059   4.212   6.438  14.066 -0.0250  2.5205 -0.5845
16856TIP3    H272060   4.202   6.372  13.931  1.5726  1.8230 -0.3933
16857TIP3   OH272061   1.183   6.093  11.020 -0.6062 -0.5544 -0.4326
16857TIP3    H172062   1.194   6.078  10.926 -3.0066  0.0508 -0.8671
16857TIP3    H272063   1.104   6.043  11.043 -0.8923  0.4673  0.9394
16858TIP3   OH272064   1.598   0.936  15.509  0.4509 -0.2429  0.0074
16858TIP3    H172065   1.532   1.005  15.497  1.3285  0.2678 -2.3311
16858TIP3    H272066   1.673   0.982  15.546  0.2230 -0.4357  0.7286
16859TIP3   OH272067   1.500   1.423  13.643 -0.7972 -0.0524 -0.4585
16859TIP3    H172068   1.486   1.454  13.553 -0.1924  1.1525 -0.1516
16859TIP3    H272069   1.507   1.502  13.695  0.7869 -0.6807  0.3571
16860TIP3   OH272070   4.671   3.095  13.348 -0.2276  0.0379 -0.2064
16860TIP3    H172071   4.619   3.119  13.425  0.6279  0.4377  0.2671
16860TIP3    H272072   4.760   3.123  13.370  0.3636 -1.4450 -0.6236
16861TIP3   OH272073   0.917   2.584  16.246  0.0125 -0.4451 -0.0703
16861TIP3    H172074   0.962   2.559  16.327  1.4574  0.7281 -0.4731
16861TIP3    H272075   0.826   2.558  16.260  0.0731  0.4203  2.2322
16862TIP3   OH272076   5.636   1.319  10.514 -0.0761 -0.3177 -0.5916
16862TIP3    H172077   5.720   1.298  10.472 -0.4431 -0.4346 -1.2798
16862TIP3    H272078   5.657   1.326  10.607  0.8240  0.2998 -0.8299
16863TIP3   OH272079   3.454   2.218  13.075 -0.4106 -0.3990 -0.3061
16863TIP3    H172080   3.508   2.175  13.142 -2.1808 -0.3928  1.2102
16863TIP3    H272081   3.428   2.301  13.115 -1.1190 -0.1695 -1.2033
16864TIP3   OH272082   6.830   3.699  10.876 -0.1014  0.6414 -0.6520
16864TIP3    H172083   6.880   3.775  10.906  0.1630  0.1834  0.1023
16864TIP3    H272084   6.740   3.716  10.904  0.6650 -1.3988  3.8878
16865TIP3   OH272085   5.918   0.072   3.397  0.2755 -0.1683 -0.0210
16865TIP3    H172086   5.923   0.104   3.487 -2.0330  0.2518  0.0244
16865TIP3    H272087   6.004   0.034   3.381  1.0406  0.5014  2.0615
16866TIP3   OH272088   0.077   1.754  15.429  0.2032  0.1758  0.6777
16866TIP3    H172089   0.047   1.793  15.347  1.4978  0.6787  0.4182
16866TIP3    H272090   0.030   1.802  15.497 -3.8377 -2.6668  0.3183
16867TIP3   OH272091   0.146   6.566  12.657 -0.5960  0.0992 -0.1753
16867TIP3    H172092   0.163   6.576  12.563 -0.9568  1.0477 -0.1563
16867TIP3    H272093   0.051   6.556  12.663 -0.5182 -0.4929  0.0493
16868TIP3   OH272094   3.980   0.398   1.339  0.1907 -0.3830  0.4253
16868TIP3    H172095   4.040   0.328   1.311 -0.1507 -0.0119 -1.3649
16868TIP3    H272096   3.910   0.396   1.274  0.5714  2.1431 -0.1318
16869TIP3   OH272097   6.544   4.950   3.556  0.2352 -0.3093  0.1768
16869TIP3    H172098   6.577   4.869   3.596  0.9499 -1.2583 -2.1621
16869TIP3    H272099   6.623   4.997   3.529 -0.2185  0.4622  0.1646
16870TIP3   OH272100   0.176   2.292  12.300  0.4165 -0.0257  0.2222
16870TIP3    H172101   0.105   2.354  12.319  0.9103  0.3442  0.9048
16870TIP3    H272102   0.245   2.346  12.261  1.8865  0.4107  3.1574
16871TIP3   OH272103   0.440   6.218   1.783  0.7569  0.0368  0.2063
16871TIP3    H172104   0.419   6.271   1.860 -0.7055 -1.5485  0.9661
16871TIP3    H272105   0.527   6.183   1.801  0.1046 -0.9597  1.5433
16872TIP3   OH272106   0.408   5.651   2.288  0.3275 -0.1985  0.1418
16872TIP3    H172107   0.407   5.557   2.271 -0.1818 -0.2185  0.2757
16872TIP3    H272108   0.405   5.691   2.201  0.6911 -0.3001  0.0779
16873TIP3   OH272109   3.881   3.919   3.469  0.2872 -0.3034 -0.0116
16873TIP3    H172110   3.817   3.885   3.407 -1.2483 -0.7353  1.7190
16873TIP3    H272111   3.886   3.853   3.538 -0.6792  1.6003  2.0366
16874TIP3   OH272112   1.133   0.150  11.601 -0.4850 -0.2375  0.3382
16874TIP3    H172113   1.062   0.087  11.615 -0.4208 -0.1691  0.9977
16874TIP3    H272114   1.115   0.187  11.514 -1.3610 -0.0902  0.5652
16875TIP3   OH272115   0.246   2.731   4.052 -0.0381  0.3298 -0.4970
16875TIP3    H172116   0.196   2.652   4.072 -0.2885  0.6669  0.2523
16875TIP3    H272117   0.180   2.797   4.034  0.0926  0.9338  1.0897
16876TIP3   OH272118   4.042   6.254   0.767  0.0721  0.1827  0.1672
16876TIP3    H172119   4.023   6.347   0.751 -2.5991 -0.3408  0.0039
16876TIP3    H272120   4.034   6.244   0.862  0.7032  0.1592  0.2248
16877TIP3   OH272121   0.875   2.172   3.410  0.3454  0.0635 -0.1990
16877TIP3    H172122   0.902   2.134   3.494  0.4531 -0.0055 -0.2638
16877TIP3    H272123   0.847   2.097   3.358 -0.3482  0.1794  0.0048
16878TIP3   OH272124   3.262   4.586   5.342  0.4756  0.5357 -0.3505
16878TIP3    H172125   3.232   4.541   5.264 -0.7862  0.5336  0.1144
16878TIP3    H272126   3.356   4.599   5.328  0.7748 -1.6898 -0.7559
16879TIP3   OH272127   4.470   5.252   5.802 -0.3072  0.0182 -0.7149
16879TIP3    H172128   4.419   5.248   5.883  2.1489 -1.7205  0.8662
16879TIP3    H272129   4.538   5.317   5.820 -0.9763  1.2124 -2.2538
16880TIP3   OH272130   3.436   5.724  15.483  0.1739  0.8628 -0.2899
16880TIP3    H172131   3.357   5.700  15.532 -0.3748 -0.2337 -1.6501
16880TIP3    H272132   3.460   5.644  15.436  0.9952  1.7250 -1.3732
16881TIP3   OH272133   4.746   4.829   3.611  0.0407 -0.0957  0.4190
16881TIP3    H172134   4.838   4.808   3.600 -0.4516 -1.5271 -1.6474
16881TIP3    H272135   4.727   4.810   3.703  1.6306 -0.3840  0.7136
16882TIP3   OH272136   6.105   5.881   6.628 -0.3094 -0.3079  0.1899
16882TIP3    H172137   6.190   5.919   6.605 -0.9678  0.2698 -1.4629
16882TIP3    H272138   6.072   5.936   6.699 -0.1601  0.7037 -0.5090
16883TIP3   OH272139   0.394   0.135  11.344 -0.5706  0.5566  0.1363
16883TIP3    H172140   0.355   0.176  11.267  0.9415  1.8048 -0.0187
16883TIP3    H272141   0.358   0.184  11.418  0.7192  1.8206 -0.0139
16884TIP3   OH272142   6.547   0.120  17.075 -0.4602  0.7712 -0.4271
16884TIP3    H172143   6.570   0.204  17.115 -1.3801  1.7194 -1.7975
16884TIP3    H272144   6.460   0.134  17.037 -1.1955 -1.2035  0.4001
16885TIP3   OH272145   3.885   3.909  15.626 -0.1923  0.3007  0.6923
16885TIP3    H172146   3.956   3.891  15.565 -0.1451 -0.2566  0.9089
16885TIP3    H272147   3.850   3.823  15.648  1.1533  0.2971  3.0989
16886TIP3   OH272148   5.139   4.713  14.465  0.2054 -0.0317  0.1756
16886TIP3    H172149   5.081   4.637  14.468  2.4894 -1.9048  0.7539
16886TIP3    H272150   5.129   4.754  14.551 -0.4059 -0.2019  0.1909
16887TIP3   OH272151   1.146   3.971   3.103 -0.0942 -0.4120 -0.1943
16887TIP3    H172152   1.191   3.971   3.187 -0.5101  1.8619  0.0930
16887TIP3    H272153   1.213   3.948   3.039  0.8841  0.4355  0.5011
16888TIP3   OH272154   5.573   5.803  14.521 -0.1240  0.1093  0.1397
16888TIP3    H172155   5.628   5.828  14.447  0.7008  1.3334  1.1114
16888TIP3    H272156   5.545   5.714  14.502  0.3034  0.2988 -1.4887
16889TIP3   OH272157   1.475   1.036  16.014  0.4317 -0.0023 -0.0800
16889TIP3    H172158   1.390   1.032  16.059 -0.5582 -1.2239 -1.8978
16889TIP3    H272159   1.528   0.969  16.056  0.6883  1.0781  1.3752
16890TIP3   OH272160   3.700   0.731  12.450 -0.2789 -0.4018 -0.4318
16890TIP3    H172161   3.666   0.656  12.402 -0.7382 -0.2748 -0.3179
16890TIP3    H272162   3.717   0.797  12.383 -1.7577  0.0939 -0.3637
16891TIP3   OH272163   4.012   2.154  16.038  0.3068 -0.1288 -0.5321
16891TIP3    H172164   4.011   2.097  15.962 -0.3678  1.7188 -1.9756
16891TIP3    H272165   4.104   2.181  16.047  0.3686 -0.2596 -0.7706
16892TIP3   OH272166   5.936   1.546   3.899  0.1405 -0.0647 -0.3424
16892TIP3    H172167   5.981   1.596   3.831  0.7761 -0.0874  0.0582
16892TIP3    H272168   6.000   1.536   3.969 -0.1926 -0.8633 -0.1303
16893TIP3   OH272169   4.819   2.823  15.820  0.2299 -0.0673  0.4408
16893TIP3    H172170   4.799   2.753  15.758  2.2807  0.7970 -1.3422
16893TIP3    H272171   4.913   2.837  15.810  0.4753  0.7538  3.1507
16894TIP3   OH272172   0.964   5.658   1.633 -0.2045 -0.5059 -0.0252
16894TIP3    H172173   0.928   5.697   1.553 -1.8700 -1.4071  0.2278
16894TIP3    H272174   0.915   5.576   1.642  2.1654 -1.9725  0.2172
16895TIP3   OH272175   1.914   0.502   4.414 -0.0815  0.1940  0.2282
16895TIP3    H172176   1.870   0.424   4.448  1.1581 -0.3209  0.6869
16895TIP3    H272177   1.937   0.479   4.324  1.1913 -0.3919  0.6727
16896TIP3   OH272178   6.246   3.304   5.851  0.1449 -0.4085 -0.3966
16896TIP3    H172179   6.242   3.397   5.871  2.6469 -0.2093 -0.5269
16896TIP3    H272180   6.294   3.266   5.924  1.3752 -1.1520 -1.5496
16897TIP3   OH272181   3.037   2.838   4.115 -0.1479 -0.5261 -0.4834
16897TIP3    H172182   2.977   2.884   4.057  1.1605  1.6994 -0.1855
16897TIP3    H272183   2.991   2.834   4.199 -1.2509 -2.0416 -1.0974
16898TIP3   OH272184   1.402   2.833   3.618 -0.2723  0.5531  0.7277
16898TIP3    H172185   1.379   2.926   3.608 -2.8334 -0.2403 -2.2404
16898TIP3    H272186   1.412   2.801   3.529  1.2742 -1.9334  1.7033
16899TIP3   OH272187   6.503   0.845   2.259  0.4077  0.0225  0.2379
16899TIP3    H172188   6.455   0.927   2.271 -0.1872 -0.2901  0.0420
16899TIP3    H272189   6.546   0.829   2.343 -1.9058 -0.9983  1.3258
16900TIP3   OH272190   0.098   4.090  15.955 -0.0563 -0.3907 -0.1105
16900TIP3    H172191   0.041   4.129  15.888 -1.3306 -0.2054  1.0420
16900TIP3    H272192   0.089   4.148  16.031  1.3189 -0.6300  0.2605
16901TIP3   OH272193   4.502   6.607   1.437  0.3686 -0.1895 -0.1234
16901TIP3    H172194   4.430   6.575   1.382 -0.5880 -1.5626  1.7942
16901TIP3    H272195   4.547   6.527   1.466  1.0969  0.5193  0.7343
16902TIP3   OH272196   2.564   0.118  13.051 -0.1843 -0.5211  0.3256
16902TIP3    H172197   2.577   0.124  12.956  0.2648  1.2946  0.4681
16902TIP3    H272198   2.651   0.098  13.086  0.4981  2.3226  0.5568
16903TIP3   OH272199   4.744   2.328   5.570 -0.5396  0.5399 -0.1397
16903TIP3    H172200   4.710   2.265   5.634 -0.5496  0.1952 -0.4853
16903TIP3    H272201   4.728   2.413   5.611 -1.9770  0.3962 -0.3563
16904TIP3   OH272202   3.177   6.313   0.426 -0.5546 -0.5556 -0.1255
16904TIP3    H172203   3.145   6.372   0.494 -0.3223 -2.2064  1.4808
16904TIP3    H272204   3.155   6.358   0.344  1.0501  2.5283  0.9561
16905TIP3   OH272205   4.209   1.899  15.314  0.2738 -0.1445  0.1266
16905TIP3    H172206   4.215   1.914  15.220 -0.2595  0.4020  0.1764
16905TIP3    H272207   4.167   1.813  15.322  0.5531 -0.3074 -0.1304
16906TIP3   OH272208   5.914   1.061   0.794 -0.2358 -0.5216  0.0116
16906TIP3    H172209   5.957   1.131   0.745  0.9691 -1.0270  0.2845
16906TIP3    H272210   5.880   1.002   0.727 -0.9951  0.1707 -0.2161
16907TIP3   OH272211   1.788   0.310   3.110  0.4359 -0.0448  0.1532
16907TIP3    H172212   1.805   0.300   3.016  2.9163  1.0836  0.3949
16907TIP3    H272213   1.863   0.268   3.152 -0.6683 -0.5897  1.6518
16908TIP3   OH272214   5.353   5.637  16.099  0.2224 -0.4485  0.1248
16908TIP3    H172215   5.364   5.554  16.054 -0.8108 -1.4456  1.6344
16908TIP3    H272216   5.430   5.644  16.156 -0.2220 -0.9068  0.7914
16909TIP3   OH272217   2.838   3.203  14.503  0.6127 -0.6457 -0.0583
16909TIP3    H172218   2.838   3.124  14.450  0.3546 -0.1247 -0.8494
16909TIP3    H272219   2.895   3.182  14.577 -2.8491 -3.1891  2.2021
16910TIP3   OH272220   5.451   4.902   1.187  0.2935 -1.0230 -0.1869
16910TIP3    H172221   5.402   4.963   1.132 -1.2422 -0.6871  1.4335
16910TIP3    H272222   5.517   4.865   1.130 -0.0427  0.6598 -1.7524
16911TIP3   OH272223   0.242   0.435   2.960 -0.5409  0.8093 -0.5797
16911TIP3    H172224   0.273   0.464   2.874  0.9605 -1.3848 -0.8618
16911TIP3    H272225   0.156   0.397   2.944  0.1316 -0.4427 -1.3090
16912TIP3   OH272226   3.363   0.270   5.665 -0.6520 -0.7086  0.8422
16912TIP3    H172227   3.370   0.175   5.659 -0.3327 -0.5855 -1.6261
16912TIP3    H272228   3.453   0.301   5.658 -0.4823 -0.1941  3.7317
16913TIP3   OH272229   1.480   2.798  16.686  0.6760 -0.0700 -0.0522
16913TIP3    H172230   1.561   2.760  16.652 -0.5328 -1.4113 -1.6185
16913TIP3    H272231   1.481   2.777  16.779  1.8893 -0.5346 -0.1503
16914TIP3   OH272232   6.154   0.427   5.491 -0.0737  0.3445 -0.5527
16914TIP3    H172233   6.187   0.451   5.578 -1.0138 -1.1244  0.2604
16914TIP3    H272234   6.091   0.496   5.470  1.6269  1.8014 -1.0049
16915TIP3   OH272235   4.805   5.336  13.141 -0.0735 -0.3253 -0.5334
16915TIP3    H172236   4.834   5.305  13.227 -1.5774 -0.8668 -0.1763
16915TIP3    H272237   4.765   5.259  13.100 -0.4163  0.2137 -1.2314
16916TIP3   OH272238   6.669   0.322   3.175  0.3236 -0.6413 -0.3747
16916TIP3    H172239   6.628   0.364   3.100  0.6554 -0.3527 -0.3963
16916TIP3    H272240   6.731   0.387   3.208  0.0294 -0.6864  0.2738
16917TIP3   OH272241   6.530   5.944  15.698  0.2407 -0.1617  0.2209
16917TIP3    H172242   6.537   5.854  15.665  0.2643  0.4639 -1.6133
16917TIP3    H272243   6.621   5.970  15.715  0.3156 -0.1675 -0.1653
16918TIP3   OH272244   0.096   1.791   3.002 -0.1304  0.3905 -0.4185
16918TIP3    H172245   0.008   1.825   2.985  0.0481  0.4743 -1.2075
16918TIP3    H272246   0.113   1.813   3.094 -0.9136  0.4093 -0.2746
16919TIP3   OH272247   1.191   5.791   2.702  0.0454  0.6020 -0.7042
16919TIP3    H172248   1.145   5.807   2.620  1.4060 -1.6004 -1.9839
16919TIP3    H272249   1.150   5.713   2.739 -0.5008  1.5210  0.7368
16920TIP3   OH272250   4.826   2.120   3.035  0.3752 -0.3108  0.1268
16920TIP3    H172251   4.835   2.027   3.012  1.0776  0.1600 -1.7352
16920TIP3    H272252   4.758   2.152   2.976  0.2456  0.3859  0.6493
16921TIP3   OH272253   1.049   6.433  12.599  0.3489 -0.2540 -0.0008
16921TIP3    H172254   1.069   6.480  12.680  0.4665  0.3370 -0.3644
16921TIP3    H272255   0.956   6.414  12.604  0.0236  1.1461 -0.4132
16922TIP3   OH272256   2.294   6.293  14.052  0.0285 -0.4641 -0.1895
16922TIP3    H172257   2.240   6.370  14.033  1.1918  0.7796  1.2871
16922TIP3    H272258   2.250   6.221  14.006 -2.1118  0.7240 -0.1374
16923TIP3   OH272259   3.846   5.346   4.093  0.4654  0.1899  0.0737
16923TIP3    H172260   3.777   5.357   4.028 -0.2087  0.4083  0.8151
16923TIP3    H272261   3.920   5.395   4.058  0.5743 -0.8225 -1.1783
16924TIP3   OH272262   3.134   0.007  12.062  0.3633  0.2810 -0.3530
16924TIP3    H172263   3.040   0.014  12.048  0.0791 -0.3113  1.0867
16924TIP3    H272264   3.162   0.096  12.083  0.1379  0.4624 -0.8041
16925TIP3   OH272265   4.827   5.713   4.997  0.2952 -0.0645  0.6943
16925TIP3    H172266   4.788   5.738   5.081 -1.7088 -1.6408  0.3091
16925TIP3    H272267   4.758   5.730   4.932  1.2469 -0.3458 -0.4242
16926TIP3   OH272268   5.546   5.186   4.675 -0.4606 -0.5067 -0.1977
16926TIP3    H172269   5.504   5.272   4.673 -0.0261 -0.2981 -0.7856
16926TIP3    H272270   5.473   5.124   4.681 -0.7584 -0.0896  0.5506
16927TIP3   OH272271   4.171   5.727  15.913  0.5512 -0.0578 -0.5015
16927TIP3    H172272   4.250   5.690  15.873 -1.4432 -4.3259 -1.0531
16927TIP3    H272273   4.197   5.746  16.003  2.1751 -1.6813 -0.5551
16928TIP3   OH272274   1.245   6.768   2.394 -0.3002 -0.5173 -0.1562
16928TIP3    H172275   1.199   6.827   2.453 -0.6621  0.3745 -1.2814
16928TIP3    H272276   1.334   6.803   2.389 -0.0610 -1.0167  0.3931
16929TIP3   OH272277   2.724   1.623  16.268  0.0817  0.8482 -0.3722
16929TIP3    H172278   2.674   1.641  16.189 -2.9069 -0.5191  1.0394
16929TIP3    H272279   2.746   1.530  16.263 -0.2774  0.7051  0.4135
16930TIP3   OH272280   1.619   4.419   3.165 -0.2390  0.2894 -0.4126
16930TIP3    H172281   1.651   4.331   3.146 -0.9358  0.1002 -0.7180
16930TIP3    H272282   1.565   4.442   3.090  0.4454  1.2326 -0.6263
16931TIP3   OH272283   1.328   1.744  12.479  0.2195 -0.1513 -0.2228
16931TIP3    H172284   1.358   1.769  12.567 -2.8719  1.0856  0.5908
16931TIP3    H272285   1.398   1.775  12.421  1.0828  1.5204  1.5827
16932TIP3   OH272286   2.674   1.188   6.029 -0.7982 -0.4559  0.7734
16932TIP3    H172287   2.656   1.270   5.984  0.9996  0.0982  1.0102
16932TIP3    H272288   2.736   1.142   5.973  0.8438 -0.1171  2.2157
16933TIP3   OH272289   0.233   1.961  16.450 -0.2440 -0.1832 -0.0787
16933TIP3    H172290   0.305   1.927  16.502 -2.9309 -2.8539  2.2987
16933TIP3    H272291   0.188   2.022  16.508 -3.0535 -2.8887  0.8893
16934TIP3   OH272292   1.233   3.065   5.481  0.0071  0.4588  0.5429
16934TIP3    H172293   1.144   3.062   5.444  0.0548 -1.0832  0.4772
16934TIP3    H272294   1.290   3.037   5.410  0.5447  1.3087  0.6275
16935TIP3   OH272295   2.392   0.254   2.342 -0.7938 -0.2958  0.4877
16935TIP3    H172296   2.433   0.267   2.428  2.5872 -1.9628 -0.7074
16935TIP3    H272297   2.417   0.332   2.292  2.3041 -1.7990 -0.5948
16936TIP3   OH272298   3.739   4.079   0.440 -0.2425  0.3949 -0.1285
16936TIP3    H172299   3.826   4.117   0.437 -0.0560  0.3453  2.3222
16936TIP3    H272300   3.754   3.984   0.447 -0.4396  0.4106  0.6719
16937TIP3   OH272301   1.854   5.107  16.858 -0.3198 -0.0482  0.3435
16937TIP3    H172302   1.827   5.095  16.767  2.7151  0.9244 -0.7826
16937TIP3    H272303   1.908   5.031  16.877 -0.1202  0.2522  1.0010
16938TIP3   OH272304   3.901   1.562  12.938 -0.0374 -0.0603 -0.5191
16938TIP3    H172305   3.807   1.574  12.954  0.1743 -1.4251  2.4076
16938TIP3    H272306   3.905   1.490  12.876 -0.9072  0.1475 -0.8409
16939TIP3   OH272307   0.426   4.866   4.623  0.0903 -0.0197 -0.0569
16939TIP3    H172308   0.421   4.942   4.681 -1.7679 -1.1916  1.4387
16939TIP3    H272309   0.436   4.903   4.535 -2.1535  2.0526  0.4575
16940TIP3   OH272310   4.680   5.561   3.056  0.2724  0.3575 -0.3180
16940TIP3    H172311   4.720   5.477   3.078 -2.2228 -0.8319  0.1027
16940TIP3    H272312   4.599   5.563   3.107 -2.1135  0.8465 -3.7511
16941TIP3   OH272313   3.375   5.138  16.713 -0.4308 -0.3144  0.3987
16941TIP3    H172314   3.289   5.137  16.755 -0.8004 -3.1723 -0.2281
16941TIP3    H272315   3.428   5.079  16.767 -0.0859 -1.7900 -1.4507
16942TIP3   OH272316   4.150   1.240  16.343  0.5995  0.4249  0.5798
16942TIP3    H172317   4.086   1.179  16.381 -0.1370  0.5958 -0.3365
16942TIP3    H272318   4.232   1.218  16.386  0.4734 -1.6126 -0.1103
16943TIP3   OH272319   1.518   3.985  16.150 -0.7949 -0.2054  0.1020
16943TIP3    H172320   1.428   4.000  16.121  0.0417  2.8315 -1.3615
16943TIP3    H272321   1.565   3.959  16.071  0.0581  0.5668  0.3346
16944TIP3   OH272322   3.520   4.162  14.314 -0.4882  0.5738 -0.0646
16944TIP3    H172323   3.464   4.165  14.392 -2.9448 -1.1622 -1.5719
16944TIP3    H272324   3.524   4.069  14.292 -1.5018  1.1231 -3.0236
16945TIP3   OH272325   1.436   5.434  10.593 -0.1258  0.6421 -0.4439
16945TIP3    H172326   1.366   5.444  10.529  1.1004 -1.2580 -2.2206
16945TIP3    H272327   1.396   5.389  10.667 -1.1052  1.0295 -0.7264
16946TIP3   OH272328   6.039   4.456  14.429 -0.2826  0.0557  0.4538
16946TIP3    H172329   6.099   4.439  14.356 -1.6367  0.2219 -0.7415
16946TIP3    H272330   5.953   4.461  14.388 -1.3881 -1.9719  2.3520
16947TIP3   OH272331   3.005   0.293  15.014  0.4512 -0.2864 -0.2082
16947TIP3    H172332   3.031   0.279  14.923 -0.8455 -0.0270 -0.6464
16947TIP3    H272333   2.983   0.386  15.018 -0.8614 -0.5812 -0.0220
16948TIP3   OH272334   3.044   6.194  16.804 -0.1797  0.7725  0.5312
16948TIP3    H172335   2.960   6.169  16.765 -1.3639  2.6310  1.7574
16948TIP3    H272336   3.085   6.110  16.828 -1.0158 -0.2374 -1.3081
16949TIP3   OH272337   0.078   4.117  12.218 -0.5570  0.2527  0.1651
16949TIP3    H172338   0.089   4.197  12.269 -0.5451 -0.1985  0.8780
16949TIP3    H272339   0.036   4.146  12.137 -1.1687  0.8793  0.7016
16950TIP3   OH272340   1.397   2.454   4.229 -0.2398 -0.6190  0.1329
16950TIP3    H172341   1.477   2.446   4.177 -0.6548 -2.0320 -0.3289
16950TIP3    H272342   1.332   2.488   4.167 -0.0393  0.3958  0.4720
16951TIP3   OH272343   0.034   4.305  17.012  0.8737 -0.2784  0.0863
16951TIP3    H172344   0.092   4.230  17.029  1.0971 -0.1766 -0.2288
16951TIP3    H272345  -0.050   4.265  16.988  1.8402 -0.5232 -3.3364
16952TIP3   OH272346   1.752   2.597  14.307 -0.3181 -0.4024  0.2261
16952TIP3    H172347   1.671   2.547  14.300  0.4876 -1.6926 -0.2369
16952TIP3    H272348   1.821   2.533  14.289  0.7682  0.8079 -0.0489
16953TIP3   OH272349   5.602   3.398  13.861 -0.2547 -0.1714  0.0329
16953TIP3    H172350   5.560   3.482  13.878  0.5430  0.3628 -0.5392
16953TIP3    H272351   5.585   3.381  13.769  1.5490  0.5514 -0.4937
16954TIP3   OH272352   1.940   3.321  16.368 -0.1373 -0.2287 -0.3669
16954TIP3    H172353   2.027   3.355  16.351 -0.2138 -0.0197 -0.3485
16954TIP3    H272354   1.904   3.379  16.436 -0.5816  0.1762 -0.9291
16955TIP3   OH272355   5.196   2.418   2.947 -0.0766 -0.6825 -0.3573
16955TIP3    H172356   5.154   2.499   2.978 -0.5599 -1.1879  0.3369
16955TIP3    H272357   5.285   2.422   2.983 -0.2873 -0.7438  0.1670
16956TIP3   OH272358   0.866   4.094   4.113 -0.6333  0.2884 -0.2234
16956TIP3    H172359   0.830   4.010   4.143  1.2735 -0.3237  0.4482
16956TIP3    H272360   0.868   4.149   4.191  2.6991 -0.7332  0.5633
16957TIP3   OH272361   1.895   5.404   5.454 -0.0048 -0.3528  0.1817
16957TIP3    H172362   1.856   5.369   5.374  0.0562  0.1935 -0.0933
16957TIP3    H272363   1.863   5.494   5.459  0.1218 -0.3328  0.6860
16958TIP3   OH272364   6.330   6.015   2.694  0.1846 -0.2827  0.6380
16958TIP3    H172365   6.342   6.082   2.627  2.6924  0.1459  1.3843
16958TIP3    H272366   6.358   5.934   2.651 -3.5165 -1.1202 -0.4909
16959TIP3   OH272367   5.188   0.333  11.715  0.7243  0.5880 -0.8379
16959TIP3    H172368   5.102   0.375  11.718  0.3128 -0.0670 -2.5990
16959TIP3    H272369   5.170   0.241  11.700  1.7345  0.3735 -0.8584
16960TIP3   OH272370   1.546   2.164   1.434  0.0510 -0.4469 -0.2667
16960TIP3    H172371   1.500   2.247   1.421  1.1382  0.2864  0.4079
16960TIP3    H272372   1.494   2.100   1.385 -0.2723  0.7925 -1.6156
16961TIP3   OH272373   5.116   1.716   3.559 -0.0677 -0.2912 -0.2891
16961TIP3    H172374   5.148   1.765   3.483 -1.7716  1.5994  0.1233
16961TIP3    H272375   5.025   1.698   3.539  0.0752 -1.8348  0.3365
16962TIP3   OH272376   3.040   5.249   4.041  0.4070 -0.5353  0.2947
16962TIP3    H172377   2.990   5.168   4.039 -0.5938  0.0783 -0.7711
16962TIP3    H272378   3.132   5.221   4.044  0.0790 -1.6985 -0.1112
16963TIP3   OH272379   5.290   1.216  15.861 -0.7454 -0.8613  0.0416
16963TIP3    H172380   5.329   1.290  15.815  0.1319 -1.6128 -0.4540
16963TIP3    H272381   5.311   1.230  15.953 -0.9036 -0.3071 -0.0051
16964TIP3   OH272382   1.482   2.083  16.165 -0.4961  0.7154 -0.3179
16964TIP3    H172383   1.389   2.089  16.188 -0.1196  0.6406  1.3636
16964TIP3    H272384   1.516   2.172  16.179 -0.4828  0.9920 -1.8827
16965TIP3   OH272385   6.093   1.547  16.325  0.4097  0.1991  0.3024
16965TIP3    H172386   6.062   1.587  16.406  0.5985 -1.0630  1.0237
16965TIP3    H272387   6.139   1.468  16.354 -0.6753 -1.0025 -1.1043
16966TIP3   OH272388   0.946   6.068   0.737  0.1938 -0.6835  0.0762
16966TIP3    H172389   0.985   6.014   0.805  0.7408 -0.2205  0.1358
16966TIP3    H272390   0.928   6.006   0.665 -3.4291 -1.8553  1.7600
16967TIP3   OH272391   5.736   1.391   5.249 -0.0853 -0.7436  0.0220
16967TIP3    H172392   5.822   1.357   5.275 -0.6880 -1.6754  0.8606
16967TIP3    H272393   5.717   1.346   5.167  0.8440  0.5460 -0.9351
16968TIP3   OH272394   4.457   1.329  15.616  0.6187 -0.5444 -0.2666
16968TIP3    H172395   4.426   1.418  15.632 -2.0017 -1.1723 -1.2481
16968TIP3    H272396   4.481   1.327  15.523 -1.0342 -1.2306 -0.7237
16969TIP3   OH272397   0.895   4.642  14.796  0.7153 -0.3915  0.2466
16969TIP3    H172398   0.806   4.625  14.767  1.2622  0.9787 -2.7625
16969TIP3    H272399   0.887   4.669  14.887 -1.6918 -1.9213  0.5650
16970TIP3   OH272400   2.673   6.217   2.553 -0.0656 -0.3584 -0.3636
16970TIP3    H172401   2.686   6.125   2.530  0.8042 -0.7978  1.6842
16970TIP3    H272402   2.694   6.222   2.646  1.0415  2.1226 -0.6635
16971TIP3   OH272403   4.601   4.177  16.203  0.3457  0.0844  0.8269
16971TIP3    H172404   4.652   4.131  16.269  1.3970  0.1326  0.0717
16971TIP3    H272405   4.663   4.236  16.161 -0.3317  0.1630 -0.1048
16972TIP3   OH272406   4.607   0.220   3.093  0.3200  0.2481  0.1816
16972TIP3    H172407   4.653   0.152   3.044  1.2146 -0.2513  1.6706
16972TIP3    H272408   4.514   0.199   3.082  0.5753 -2.2610  1.9497
16973TIP3   OH272409   3.168   5.590  16.731 -0.9155  0.1105  0.8003
16973TIP3    H172410   3.216   5.528  16.676  1.0512  1.0295  1.4141
16973TIP3    H272411   3.121   5.646  16.668 -1.0962 -0.7044  0.1910
16974TIP3   OH272412   0.150   6.455   4.348  0.3050 -0.0775  0.4263
16974TIP3    H172413   0.222   6.392   4.353  0.2316 -0.1874  0.1479
16974TIP3    H272414   0.147   6.496   4.434  0.5878 -0.1987  0.4941
16975TIP3   OH272415   6.130   1.256   5.515  0.2080 -0.1033  0.6247
16975TIP3    H172416   6.144   1.346   5.542  0.8133 -0.2328  0.7599
16975TIP3    H272417   6.078   1.262   5.435 -0.6208  0.3240  1.1874
16976TIP3   OH272418   0.284   1.471  16.147  0.3149 -0.3981  0.8878
16976TIP3    H172419   0.267   1.497  16.057  1.5984  1.5416  1.1426
16976TIP3    H272420   0.327   1.386  16.139 -2.8856 -2.0675 -0.0561
16977TIP3   OH272421   4.641   5.491  14.606  0.3870 -0.3337  0.0461
16977TIP3    H172422   4.575   5.524  14.545  0.5559  1.8257  0.9253
16977TIP3    H272423   4.683   5.419  14.560 -0.0793  0.6487 -2.0276
16978TIP3   OH272424   3.791   0.650  11.951 -0.4059  0.1428 -0.1918
16978TIP3    H172425   3.702   0.661  11.984 -0.9065  3.7399 -2.2007
16978TIP3    H272426   3.779   0.613  11.863  0.0443  0.6242 -0.4624
16979TIP3   OH272427   6.329   5.643   1.749  0.3035 -0.0847  0.1238
16979TIP3    H172428   6.389   5.651   1.823 -0.0581 -4.6600  1.1697
16979TIP3    H272429   6.379   5.596   1.682 -1.4439 -2.3664  0.3157
16980TIP3   OH272430   0.346   2.570   0.598 -0.0224 -0.2341 -0.4329
16980TIP3    H172431   0.293   2.641   0.635  0.0741  1.0173 -2.5138
16980TIP3    H272432   0.416   2.556   0.662 -0.8900  0.5109  0.7160
16981TIP3   OH272433   2.135   2.923  13.104 -0.0342 -0.1153  0.5807
16981TIP3    H172434   2.211   2.950  13.155 -0.8490  1.2352  1.1480
16981TIP3    H272435   2.120   2.832  13.128  1.8257 -0.6327 -0.1091
16982TIP3   OH272436   1.432   5.481   1.722 -0.4189  0.5441  0.3075
16982TIP3    H172437   1.444   5.406   1.781 -2.1409 -0.2338 -0.2883
16982TIP3    H272438   1.338   5.496   1.721 -0.1424  2.5551  0.1621
16983TIP3   OH272439   6.741   3.400   4.082 -0.5152  0.1227  0.4710
16983TIP3    H172440   6.773   3.380   4.171  0.1928 -0.1066  0.1761
16983TIP3    H272441   6.814   3.447   4.041 -0.6625 -0.1726 -0.1369
16984TIP3   OH272442   2.947   2.765   1.506  0.8393  0.0690 -0.0308
16984TIP3    H172443   3.005   2.833   1.473  0.7150  1.1062  1.7923
16984TIP3    H272444   2.881   2.811   1.557  0.3874 -1.3570  0.7444
16985TIP3   OH272445   3.314   5.934   1.083  0.1432  0.1524  0.4219
16985TIP3    H172446   3.286   5.974   1.001  1.1237  0.8782  0.4184
16985TIP3    H272447   3.233   5.924   1.134 -0.4573 -0.2334 -0.5897
16986TIP3   OH272448   2.046   4.853   3.815  0.4696  0.4681 -0.3547
16986TIP3    H172449   2.020   4.878   3.903 -1.5324  0.8804 -1.0038
16986TIP3    H272450   2.050   4.935   3.766  0.4380  0.1523 -0.9023
16987TIP3   OH272451   1.663   3.342  13.704  0.3570  0.0685  0.2733
16987TIP3    H172452   1.688   3.261  13.660  2.6167 -0.2857  2.0492
16987TIP3    H272453   1.655   3.318  13.797  2.3101  2.0567  1.0448
16988TIP3   OH272454   1.786   0.597  14.679  0.6083 -0.1380  0.0996
16988TIP3    H172455   1.818   0.596  14.589  0.2438 -0.4680 -0.0282
16988TIP3    H272456   1.862   0.574  14.732  1.1935  1.4492  0.0016
16989TIP3   OH272457   4.764   2.558   5.931  0.0400  0.2192 -0.0602
16989TIP3    H172458   4.739   2.552   5.839  1.1153 -0.7542 -0.3076
16989TIP3    H272459   4.681   2.567   5.978 -0.7634 -1.9455 -0.9216
16990TIP3   OH272460   5.209   5.237   5.441  0.4353 -0.0111  0.1781
16990TIP3    H172461   5.182   5.319   5.482 -0.1495 -0.0557 -0.1078
16990TIP3    H272462   5.235   5.181   5.514 -0.2082  0.0493  0.4597
16991TIP3   OH272463   2.676   3.388   3.592 -0.1252 -0.0953 -0.1369
16991TIP3    H172464   2.771   3.388   3.608 -0.0854 -1.3158 -0.2756
16991TIP3    H272465   2.665   3.439   3.512  0.3580  0.4915  0.1661
16992TIP3   OH272466   2.651   4.985  12.332  0.0640  0.1559 -0.0219
16992TIP3    H172467   2.573   5.040  12.325 -0.3577 -0.5013 -0.5443
16992TIP3    H272468   2.716   5.028  12.277 -0.2493  0.1600 -0.3908
16993TIP3   OH272469   3.102   4.438  14.021  0.2488  0.0120  0.7415
16993TIP3    H172470   3.189   4.411  14.050 -0.0508 -1.1658  0.6153
16993TIP3    H272471   3.098   4.532  14.038  1.6220  0.1217  0.5442
16994TIP3   OH272472   4.098   5.467   6.426 -0.6335  0.1953  0.2826
16994TIP3    H172473   4.085   5.555   6.391 -2.1853  0.5963  1.7389
16994TIP3    H272474   4.074   5.474   6.518  0.9882 -1.3670  0.8708
16995TIP3   OH272475   5.993   2.829   1.192 -0.0580 -0.4766 -0.1217
16995TIP3    H172476   5.921   2.863   1.138 -0.0946  0.1251  0.2904
16995TIP3    H272477   5.951   2.803   1.274  0.2909  0.6314  0.4304
16996TIP3   OH272478   0.765   5.064  11.035  0.7226  0.2389 -0.1665
16996TIP3    H172479   0.703   5.038  10.967  0.7275  1.2383 -0.5584
16996TIP3    H272480   0.712   5.113  11.098  1.1381  1.3031 -0.6223
16997TIP3   OH272481   2.347   2.626  14.214 -0.1487  0.3451  0.1797
16997TIP3    H172482   2.336   2.623  14.309 -1.0200  0.5965  0.1037
16997TIP3    H272483   2.330   2.536  14.184 -0.7541  0.4505  0.1907
16998TIP3   OH272484   0.749   2.373  11.394 -0.0011 -0.2709  0.3913
16998TIP3    H172485   0.679   2.439  11.402  1.8754  2.1144 -1.1463
16998TIP3    H272486   0.722   2.319  11.320 -1.3710 -1.0228  1.3955
16999TIP3   OH272487   6.436   2.550  16.433  0.0110 -0.2741 -0.3993
16999TIP3    H172488   6.511   2.492  16.432 -1.8032 -2.7999 -1.1979
16999TIP3    H272489   6.374   2.510  16.371 -2.1698  1.4033  0.5546
17000TIP3   OH272490   1.609   3.540   4.199 -0.3865  0.1747 -0.1161
17000TIP3    H172491   1.657   3.607   4.249  0.5729 -0.2938 -0.3905
17000TIP3    H272492   1.599   3.467   4.260 -0.2715  0.0618 -0.2324
17001TIP3   OH272493   2.507   6.459   0.773 -0.0976 -0.4355  0.1758
17001TIP3    H172494   2.480   6.539   0.729 -0.6095 -0.0118  1.2434
17001TIP3    H272495   2.444   6.447   0.844 -0.3607 -2.0863 -0.2985
17002TIP3   OH272496   6.708   6.295   3.956 -0.6653  0.3680  0.3052
17002TIP3    H172497   6.706   6.324   3.865 -3.0174  0.2800  0.2537
17002TIP3    H272498   6.794   6.254   3.967 -1.0478 -1.4616 -2.4769
17003TIP3   OH272499   5.584   1.091  11.224  0.1863  0.0854 -0.0255
17003TIP3    H172500   5.589   1.168  11.167  2.4825 -0.6546 -0.9243
17003TIP3    H272501   5.610   1.018  11.168 -0.7373 -1.1839  1.1304
17004TIP3   OH272502   5.245   3.637   1.602 -0.4292  0.0473  0.4313
17004TIP3    H172503   5.268   3.728   1.623  1.0394 -0.1006 -0.4236
17004TIP3    H272504   5.177   3.615   1.665  1.6719  0.5653  3.0434
17005TIP3   OH272505   5.539   1.629   6.260 -0.0829  0.6606  0.1870
17005TIP3    H172506   5.446   1.644   6.278 -0.7849 -3.5830  0.9679
17005TIP3    H272507   5.584   1.659   6.339 -1.0475  0.5180  0.7946
17006TIP3   OH272508   4.112   5.110  12.519  0.1775  0.2940 -0.5638
17006TIP3    H172509   4.183   5.143  12.464  1.6992 -0.2196  1.0006
17006TIP3    H272510   4.115   5.164  12.598  0.0462 -0.9238  0.3049
17007TIP3   OH272511   0.198   4.864   5.979 -0.6769 -0.2223 -0.5036
17007TIP3    H172512   0.126   4.919   6.009 -0.2556  0.3677 -0.5426
17007TIP3    H272513   0.263   4.926   5.946  0.3634 -0.6580  0.6558
17008TIP3   OH272514   5.000   2.897  13.081 -0.5329 -0.4506 -0.5859
17008TIP3    H172515   4.923   2.889  13.024 -0.1276  0.7107 -1.3214
17008TIP3    H272516   5.074   2.903  13.021 -0.2564  2.7951 -0.1176
17009TIP3   OH272517   1.104   0.318  12.040  0.5540  0.2842  0.3816
17009TIP3    H172518   1.088   0.399  12.088  0.7647  0.4492  0.1783
17009TIP3    H272519   1.180   0.338  11.985 -0.8356  0.7221 -1.4665
17010TIP3   OH272520   0.092   1.066  11.146 -0.3298 -0.4258  0.5464
17010TIP3    H172521   0.113   1.155  11.116 -0.3483  0.2684  2.4224
17010TIP3    H272522   0.070   1.018  11.066  1.3238  0.7774 -0.7021
17011TIP3   OH272523   4.842   3.878   6.488 -0.5406  0.5889  0.0528
17011TIP3    H172524   4.931   3.854   6.513 -0.9545  0.7505  1.7956
17011TIP3    H272525   4.789   3.802   6.512 -1.3205  1.7241  2.2509
17012TIP3   OH272526   0.552   0.032   2.344 -0.3738  0.1498  0.2155
17012TIP3    H172527   0.521   0.067   2.427 -2.5677 -1.0808 -0.0267
17012TIP3    H272528   0.473   0.010   2.295  0.8616 -0.2330 -1.7547
17013TIP3   OH272529   4.058   2.340  10.388  0.2825 -0.1931 -0.7086
17013TIP3    H172530   3.983   2.281  10.387 -0.9282  1.2690 -2.3268
17013TIP3    H272531   4.041   2.399  10.461  0.0278 -0.0624 -0.8748
17014TIP3   OH272532   5.300   6.436   4.730  0.5794 -0.2766  0.4412
17014TIP3    H172533   5.304   6.348   4.767  1.7408  0.1665  1.3983
17014TIP3    H272534   5.217   6.437   4.681  0.4011 -1.7900  0.6622
17015TIP3   OH272535   2.689   6.080   4.391 -0.6256 -0.4342 -0.3091
17015TIP3    H172536   2.657   5.995   4.361 -2.2590 -0.0415  0.1761
17015TIP3    H272537   2.725   6.063   4.478 -3.8306 -0.2210  1.2233
17016TIP3   OH272538   4.971   4.424  17.043 -0.4722  0.4115 -0.2852
17016TIP3    H172539   4.956   4.486  17.114  0.2647 -2.0516  2.1873
17016TIP3    H272540   4.930   4.343  17.072  2.2079 -1.4871 -1.3328
17017TIP3   OH272541   1.229   1.021  12.935  0.2550  0.0890  0.4639
17017TIP3    H172542   1.137   1.046  12.936  0.2967  0.2225  1.3955
17017TIP3    H272543   1.253   1.011  13.027  1.6311  1.7983  0.3602
17018TIP3   OH272544   2.243   3.737   1.685 -0.5839  0.3999 -0.3747
17018TIP3    H172545   2.181   3.731   1.758  1.0229 -1.2031  0.9311
17018TIP3    H272546   2.284   3.650   1.681  1.2726  1.2701 -1.4683
17019TIP3   OH272547   2.458   3.063   4.871 -0.4190 -0.3867 -0.1460
17019TIP3    H172548   2.440   2.971   4.854  0.7302 -0.3507 -1.7004
17019TIP3    H272549   2.534   3.063   4.929  0.2290 -0.4266 -0.9766
17020TIP3   OH272550   4.761   6.256  12.492  0.1517 -0.2896 -0.0865
17020TIP3    H172551   4.832   6.198  12.518  1.2853  1.4782  0.9364
17020TIP3    H272552   4.784   6.286  12.405  1.4412  1.3656  0.7824
17021TIP3   OH272553   1.213   2.749   3.813 -1.0494 -0.2566  0.2043
17021TIP3    H172554   1.265   2.808   3.759  0.0199 -0.4953  0.9215
17021TIP3    H272555   1.169   2.691   3.751 -0.4423 -0.0505 -0.4298
17022TIP3   OH272556   2.541   0.420  12.930 -0.1861  0.5865  0.3304
17022TIP3    H172557   2.563   0.512  12.914  2.6886  0.2991  2.0231
17022TIP3    H272558   2.584   0.372  12.860 -0.4903  0.4167  0.2569
17023TIP3   OH272559   6.229   5.251  13.873  0.0654 -0.6316  0.2784
17023TIP3    H172560   6.140   5.270  13.905  0.1638  0.5309 -0.0809
17023TIP3    H272561   6.219   5.173  13.819 -1.0712  0.4646 -1.1622
17024TIP3   OH272562   4.885   6.253   0.028  0.2306  0.0692  0.0190
17024TIP3    H172563   4.895   6.213  -0.058  0.0540 -1.4121  0.6703
17024TIP3    H272564   4.837   6.188   0.080 -2.5226  2.1564  0.3487
17025TIP3   OH272565   5.860   2.603  14.870  0.2471  0.0860 -0.6664
17025TIP3    H172566   5.872   2.641  14.957 -0.5370  1.4304 -1.1074
17025TIP3    H272567   5.947   2.575  14.844  0.6513  0.4831  0.1948
17026TIP3   OH272568   6.626   0.717   6.714 -0.3672 -0.4325 -0.0978
17026TIP3    H172569   6.592   0.726   6.803  2.2861  0.0796  0.9558
17026TIP3    H272570   6.653   0.806   6.690 -0.7823 -0.6185 -1.3050
17027TIP3   OH272571   2.452   2.396  11.898 -0.5086 -0.1850  0.1794
17027TIP3    H172572   2.395   2.326  11.932 -0.1816 -1.3326 -1.5026
17027TIP3    H272573   2.403   2.476  11.913 -2.6903 -1.1432 -1.3057
17028TIP3   OH272574   6.198   0.581  15.012  0.0981  0.4473  0.0341
17028TIP3    H172575   6.242   0.557  14.930 -0.8858 -0.5233 -0.2332
17028TIP3    H272576   6.219   0.510  15.072 -1.5246 -0.3516 -0.2763
17029TIP3   OH272577   4.489   3.948  14.651 -0.2330 -0.3003  0.5138
17029TIP3    H172578   4.440   3.896  14.715  0.7706 -1.2134  0.5641
17029TIP3    H272579   4.571   3.901  14.638  0.7729  1.3155  0.6239
17030TIP3   OH272580   3.708   2.217   2.083  0.3753 -0.1792  0.1208
17030TIP3    H172581   3.785   2.272   2.099 -0.8086  1.1117  1.8787
17030TIP3    H272582   3.701   2.163   2.162 -0.8614  0.2006  0.2890
17031TIP3   OH272583   4.448   4.142  13.812 -0.2605  0.2813  0.3639
17031TIP3    H172584   4.360   4.104  13.812 -0.0549 -0.2211  0.9094
17031TIP3    H272585   4.505   4.068  13.790 -0.0737  0.8933 -1.3421
17032TIP3   OH272586   1.670   2.168   3.505  0.0619  0.7094  0.2207
17032TIP3    H172587   1.754   2.141   3.541  0.0308  0.0517 -0.1893
17032TIP3    H272588   1.689   2.192   3.414 -0.2842  0.0451 -0.0329
17033TIP3   OH272589   3.247   3.158  14.515  0.1199 -0.1514  0.7475
17033TIP3    H172590   3.201   3.233  14.552  0.0781 -0.1430  0.6772
17033TIP3    H272591   3.340   3.182  14.519  0.0087  0.6532 -0.9277
17034TIP3   OH272592   5.644   4.945  12.229  0.5217  0.2567 -0.5141
17034TIP3    H172593   5.613   4.887  12.160  0.3978 -0.2070 -0.0788
17034TIP3    H272594   5.581   5.018  12.229 -0.5392 -0.6149  0.2774
17035TIP3   OH272595   0.426   3.072   3.188  0.7128 -0.4382  0.0438
17035TIP3    H172596   0.361   3.003   3.175 -0.3251  0.0871  2.0251
17035TIP3    H272597   0.507   3.025   3.208 -0.2518 -1.1775  2.5915
17036TIP3   OH272598   0.533   5.867  15.795  0.2845 -0.2290 -0.3157
17036TIP3    H172599   0.490   5.951  15.777 -0.4109 -0.6377 -0.6140
17036TIP3    H272600   0.562   5.836  15.710  1.1964  0.0462 -0.1133
17037TIP3   OH272601   4.165   6.723  11.732  0.1706 -0.0933 -1.0213
17037TIP3    H172602   4.123   6.637  11.730  0.0781 -0.1211  0.8365
17037TIP3    H272603   4.258   6.705  11.717 -0.0882 -0.2883 -2.5727
17038TIP3   OH272604   3.284   0.486   1.585 -0.4636 -0.2148 -0.8441
17038TIP3    H172605   3.286   0.418   1.652  2.6470  1.7183  1.2918
17038TIP3    H272606   3.224   0.552   1.619 -1.6408 -0.7546 -1.7816
17039TIP3   OH272607   4.662   3.005   3.430  0.1667  0.1043 -0.8805
17039TIP3    H172608   4.719   3.079   3.409  0.4369 -0.0761 -0.7867
17039TIP3    H272609   4.695   2.932   3.377  1.2687 -0.5339  0.6013
17040TIP3   OH272610   0.579   4.910  12.651  0.1528 -0.0149 -0.8538
17040TIP3    H172611   0.664   4.941  12.622  0.9410 -1.0957  0.1639
17040TIP3    H272612   0.590   4.815  12.660 -0.9880 -0.1080 -0.1667
17041TIP3   OH272613   6.563   3.737   2.401 -0.3224 -0.1484  0.0184
17041TIP3    H172614   6.560   3.740   2.306 -0.9064 -0.4148  0.0310
17041TIP3    H272615   6.618   3.813   2.425 -1.0757  0.5703 -0.4798
17042TIP3   OH272616   6.228   2.886   1.051  0.9681  0.2566  0.1175
17042TIP3    H172617   6.275   2.968   1.034  1.2295  0.1784  0.4449
17042TIP3    H272618   6.189   2.898   1.138 -0.5522  0.7448 -0.6035
17043TIP3   OH272619   1.761   6.065   1.660  0.2370  0.5940 -0.3596
17043TIP3    H172620   1.815   6.142   1.678 -0.9183  1.4334 -0.3857
17043TIP3    H272621   1.761   6.017   1.743  0.0982  1.1779 -0.0142
17044TIP3   OH272622   0.331   5.501   2.027  0.0429  0.3494 -0.2286
17044TIP3    H172623   0.418   5.459   2.031  0.4216  0.8405 -2.4306
17044TIP3    H272624   0.271   5.433   2.059  1.1839 -0.0608  1.1695
17045TIP3   OH272625   5.023   2.575   6.695  0.3962  0.2164 -0.0294
17045TIP3    H172626   4.976   2.656   6.676  1.4073  0.9665  0.5780
17045TIP3    H272627   4.959   2.506   6.679 -0.6692  1.1671  0.0162
17046TIP3   OH272628   5.471   2.706   2.933 -0.1028 -0.2152  0.6461
17046TIP3    H172629   5.513   2.720   3.018  0.5145  0.6223  0.2106
17046TIP3    H272630   5.458   2.611   2.929 -1.0214 -0.1813  2.0753
17047TIP3   OH272631   2.137   2.999   6.172 -0.0023  0.2060  0.2380
17047TIP3    H172632   2.201   3.068   6.191  0.6103  0.0845 -1.2432
17047TIP3    H272633   2.055   3.046   6.160 -0.1617  0.3911  1.8983
17048TIP3   OH272634   5.698   0.683  16.512 -0.4773 -0.0092 -0.5244
17048TIP3    H172635   5.626   0.621  16.526 -0.9716  0.6950  0.1740
17048TIP3    H272636   5.739   0.692  16.597 -0.2172  0.3827 -0.6867
17049TIP3   OH272637   6.078   2.347  13.954 -0.0814  0.4408 -0.1176
17049TIP3    H172638   6.023   2.373  14.028  2.7501  0.2900  2.2703
17049TIP3    H272639   6.131   2.274  13.989  0.9219 -0.0974 -2.5452
17050TIP3   OH272640   3.289   3.016  11.032  0.4377  0.3720  0.2461
17050TIP3    H172641   3.271   2.941  11.089 -0.6622  0.1684 -0.3449
17050TIP3    H272642   3.245   3.090  11.073  0.6147  0.4705  0.2602
17051TIP3   OH272643   5.220   2.465  17.176  0.1432 -1.2181 -0.2976
17051TIP3    H172644   5.277   2.405  17.128  1.2334 -0.8832  0.5561
17051TIP3    H272645   5.257   2.552  17.160  0.7926 -1.1298  1.4524
17052TIP3   OH272646   0.744   6.692  14.130 -0.4638 -0.1981 -0.2355
17052TIP3    H172647   0.711   6.762  14.186 -1.6680 -0.5553 -0.4656
17052TIP3    H272648   0.673   6.628  14.127  0.3178 -1.0758 -0.6425
17053TIP3   OH272649   6.198   1.958  13.385 -0.2876  0.2626 -0.1670
17053TIP3    H172650   6.243   1.935  13.304  3.5544  2.1719  1.1234
17053TIP3    H272651   6.209   1.881  13.441  0.7308  0.3917 -0.1641
17054TIP3   OH272652   5.736   2.426  13.485 -0.0221 -0.0222 -0.3860
17054TIP3    H172653   5.741   2.333  13.464 -1.4372 -0.2980  0.3545
17054TIP3    H272654   5.734   2.429  13.581 -2.0280  0.5829 -0.3855
17055TIP3   OH272655   0.956   0.456   2.672 -0.1638 -0.2174 -0.2172
17055TIP3    H172656   0.962   0.364   2.645 -0.4825 -0.5014  0.6372
17055TIP3    H272657   1.043   0.477   2.706 -0.8934 -1.1890  2.5179
17056TIP3   OH272658   4.634   4.971   5.552  0.6201 -0.1473  1.3334
17056TIP3    H172659   4.688   5.033   5.502  0.5454 -0.3811  0.9624
17056TIP3    H272660   4.544   4.990   5.525  0.6476 -0.8720  0.7053
17057TIP3   OH272661   3.388   3.458  14.687  0.2105  0.0454 -0.2019
17057TIP3    H172662   3.346   3.429  14.768 -0.1770  1.2397  0.0445
17057TIP3    H272663   3.319   3.451  14.621 -0.2309  1.4551  0.0869
17058TIP3   OH272664   3.700   0.758   0.453  0.0773  0.1072  0.1390
17058TIP3    H172665   3.691   0.754   0.358 -0.1212 -0.5660  0.1828
17058TIP3    H272666   3.780   0.709   0.471 -0.9198 -1.4606  0.4679
17059TIP3   OH272667   3.222   3.122  16.878  0.3057  0.0523 -0.3595
17059TIP3    H172668   3.156   3.074  16.928  1.0734  0.2886  0.9350
17059TIP3    H272669   3.172   3.174  16.815 -0.6940 -0.2937  0.1353
17060TIP3   OH272670   4.863   3.462   3.317  0.6044  0.2615  0.0699
17060TIP3    H172671   4.843   3.443   3.226  2.3784 -1.1760 -0.0592
17060TIP3    H272672   4.796   3.526   3.343  0.5577  1.3341 -2.4467
17061TIP3   OH272673   1.484   2.139  14.681  0.4041 -0.2187  0.2982
17061TIP3    H172674   1.483   2.161  14.774 -1.1760 -0.6931  0.4173
17061TIP3    H272675   1.522   2.216  14.638  0.7203  0.1853  1.2930
17062TIP3   OH272676   4.523   4.437  14.965 -0.6964  0.8301  0.2259
17062TIP3    H172677   4.605   4.399  14.997 -0.0418  0.5911 -1.6050
17062TIP3    H272678   4.543   4.529  14.951 -0.2814  0.5194 -1.4875
17063TIP3   OH272679   4.982   0.519   2.200 -0.2328  0.1591  0.0799
17063TIP3    H172680   4.974   0.513   2.105  0.0578 -0.3853  0.0857
17063TIP3    H272681   4.892   0.534   2.230 -0.2401  0.9670 -0.3134
17064TIP3   OH272682   4.526   4.110   1.143  0.1836  0.1028  0.3441
17064TIP3    H172683   4.580   4.175   1.099 -0.2965 -0.4066 -1.0382
17064TIP3    H272684   4.559   4.108   1.233 -0.1169  2.6062  0.5773
17065TIP3   OH272685   1.558   1.128   4.775  0.0229 -0.4795  0.2248
17065TIP3    H172686   1.506   1.205   4.754  0.6053 -0.5073 -1.4282
17065TIP3    H272687   1.552   1.073   4.697  4.2053  0.4454 -0.9853
17066TIP3   OH272688   4.532   0.448  12.188 -0.2068 -0.1456  0.0078
17066TIP3    H172689   4.564   0.447  12.098  0.0546  0.1256  0.0977
17066TIP3    H272690   4.450   0.399  12.184  0.1010 -0.6538 -0.2651
17067TIP3   OH272691   4.068   5.553   6.672  0.1057  0.7674  0.3877
17067TIP3    H172692   3.994   5.599   6.633  0.8844  2.1640  0.4996
17067TIP3    H272693   4.139   5.617   6.671  0.4443  0.5550  3.1437
17068TIP3   OH272694   0.770   3.212  14.168  0.1883  0.1447  0.2840
17068TIP3    H172695   0.734   3.134  14.125  0.0412  0.4899 -0.2218
17068TIP3    H272696   0.704   3.238  14.232 -0.1352  0.3414 -0.1270
17069TIP3   OH272697   3.546   0.227  15.733  0.1646 -0.6289 -0.7379
17069TIP3    H172698   3.578   0.261  15.650  2.1569 -1.1923 -0.2503
17069TIP3    H272699   3.625   0.201  15.781 -0.9931 -1.3635  0.8761
17070TIP3   OH272700   1.772   6.561   5.331 -0.7311  0.6426 -0.0988
17070TIP3    H172701   1.850   6.562   5.276 -0.4783  0.1918  0.2467
17070TIP3    H272702   1.702   6.533   5.272 -0.2936 -0.7369  0.0155
17071TIP3   OH272703   2.243   4.512  13.645  0.2242 -0.4999  0.0829
17071TIP3    H172704   2.240   4.444  13.579 -1.4925 -1.2227  0.8266
17071TIP3    H272705   2.208   4.590  13.601  2.8501  0.1973 -0.9781
17072TIP3   OH272706   6.385   3.961   1.814 -0.1620 -0.1635  0.2275
17072TIP3    H172707   6.349   3.877   1.788  1.0332 -0.3523 -0.9358
17072TIP3    H272708   6.319   4.025   1.788 -0.9350 -0.7151  0.8255
17073TIP3   OH272709   3.358   6.530  15.594  0.1737 -0.9007 -0.1423
17073TIP3    H172710   3.446   6.530  15.556 -0.0040 -0.5034 -0.5641
17073TIP3    H272711   3.311   6.598  15.546  0.3046  0.5468  1.6696
17074TIP3   OH272712   3.904   3.302  15.116  0.3665  0.2755 -0.2305
17074TIP3    H172713   3.998   3.319  15.108 -0.0295  2.3243 -1.3963
17074TIP3    H272714   3.867   3.337  15.035 -1.4499 -0.0506  0.4140
17075TIP3   OH272715   2.038   4.065   0.531  0.2701  0.1223  0.6388
17075TIP3    H172716   2.036   4.028   0.443  2.7890  0.3443  0.4200
17075TIP3    H272717   1.987   4.004   0.584  0.2471 -0.9919 -0.6327
17076TIP3   OH272718   0.283   5.794   2.481  0.6121  0.6639  0.3431
17076TIP3    H172719   0.310   5.721   2.425  1.9470  0.9030  0.6298
17076TIP3    H272720   0.341   5.866   2.456 -1.4837  2.0370 -0.7797
17077TIP3   OH272721   5.431   3.226  14.811  0.1609 -0.0137  0.5328
17077TIP3    H172722   5.512   3.180  14.792  0.8273  0.8101  1.2629
17077TIP3    H272723   5.384   3.227  14.728  0.7971 -0.6900  0.1492
17078TIP3   OH272724   2.715   0.611   3.059  0.7101 -0.1234 -0.0084
17078TIP3    H172725   2.665   0.532   3.043  0.3753  0.1599 -0.3816
17078TIP3    H272726   2.649   0.678   3.077  0.9662  0.1829 -0.1968
17079TIP3   OH272727   5.613   2.500   0.437  0.8725 -0.2551 -0.0823
17079TIP3    H172728   5.547   2.477   0.371  0.2843  1.8394 -0.2986
17079TIP3    H272729   5.635   2.417   0.479 -1.3143 -1.1493 -0.5669
17080TIP3   OH272730   2.479   4.519   0.089 -0.6011  0.0464  0.4981
17080TIP3    H172731   2.465   4.436   0.043 -0.4942  0.5225 -0.4275
17080TIP3    H272732   2.448   4.502   0.178 -0.7059 -0.9437  0.2955
17081TIP3   OH272733   0.711   5.698  12.253  0.5394 -0.6577 -0.1666
17081TIP3    H172734   0.623   5.725  12.230  0.3692 -1.6166 -0.6910
17081TIP3    H272735   0.737   5.758  12.323 -0.9825 -1.1201  0.8362
17082TIP3   OH272736   3.394   4.369  12.330 -0.1618  0.0862 -0.6886
17082TIP3    H172737   3.310   4.365  12.375  0.1194 -0.1814 -0.1726
17082TIP3    H272738   3.384   4.313  12.254 -0.6945  0.6642 -1.0538
17083TIP3   OH272739   2.204   4.227   2.099 -0.7344  0.1252  0.3770
17083TIP3    H172740   2.233   4.143   2.135 -1.3877  0.1966  1.0801
17083TIP3    H272741   2.198   4.285   2.175  1.4565  1.3555 -0.2803
17084TIP3   OH272742   6.584   3.266   0.553  0.1964 -0.4848 -0.2748
17084TIP3    H172743   6.604   3.304   0.468 -2.0158  2.3757  0.3341
17084TIP3    H272744   6.507   3.211   0.538  1.5435 -2.3831 -0.5719
17085TIP3   OH272745   4.458   2.111  16.566 -0.0756  0.4486 -0.0510
17085TIP3    H172746   4.437   2.019  16.553 -1.4525  0.8382 -0.7897
17085TIP3    H272747   4.538   2.125  16.515 -1.1928  0.1833 -1.9925
17086TIP3   OH272748   4.274   6.172   1.962 -0.3621 -0.4726  0.4287
17086TIP3    H172749   4.200   6.218   1.922 -1.0900 -1.9139  0.0528
17086TIP3    H272750   4.348   6.192   1.906 -0.7469 -0.0900  0.0504
17087TIP3   OH272751   1.287   6.324   3.830  0.7182  0.2701 -0.1630
17087TIP3    H172752   1.269   6.404   3.880  0.1833  0.7150 -1.0314
17087TIP3    H272753   1.200   6.286   3.814  1.0515 -1.2132  1.3653
17088TIP3   OH272754   4.356   5.235   1.798 -0.5871 -0.1704 -0.5181
17088TIP3    H172755   4.367   5.317   1.848 -1.4232  0.0833 -0.7362
17088TIP3    H272756   4.268   5.241   1.761 -1.1505 -1.7209  0.4663
17089TIP3   OH272757   4.814   1.464  11.657 -0.0956 -0.4186  0.6843
17089TIP3    H172758   4.837   1.454  11.565 -3.2524  1.0469 -0.4243
17089TIP3    H272759   4.834   1.379  11.697 -0.8671 -1.9186 -1.9204
17090TIP3   OH272760   1.965   3.956  13.435 -0.4991  0.0515 -0.4428
17090TIP3    H172761   2.033   3.909  13.385  1.4567  2.1485  0.0936
17090TIP3    H272762   1.946   3.898  13.508  3.0864  0.5950  1.1412
17091TIP3   OH272763   2.566   5.159  16.963  0.5068 -0.2685 -0.5751
17091TIP3    H172764   2.496   5.095  16.979 -0.5057  0.9408 -0.0084
17091TIP3    H272765   2.625   5.115  16.902  0.0590 -1.8911  0.0949
17092TIP3   OH272766   5.098   4.666   3.085  0.0024 -0.4944  0.3968
17092TIP3    H172767   5.192   4.651   3.097 -0.1430 -0.2592  2.1527
17092TIP3    H272768   5.091   4.710   3.001  1.2964 -1.9520 -0.5196
17093TIP3   OH272769   4.555   3.553  14.014 -0.2322  0.2692  0.5368
17093TIP3    H172770   4.555   3.646  13.993 -1.1921  0.3332  0.7805
17093TIP3    H272771   4.562   3.509  13.929 -0.7031  0.5575  0.3476
17094TIP3   OH272772   5.103   1.047   4.695  0.4319  0.0948  0.8337
17094TIP3    H172773   5.084   0.987   4.767 -0.7268 -0.8382 -0.2149
17094TIP3    H272774   5.041   1.119   4.707  0.6528  0.2378  1.1161
17095TIP3   OH272775   5.934   5.430   3.184  0.1542  0.2462  0.0548
17095TIP3    H172776   5.962   5.466   3.099  0.5761  0.8278  0.4279
17095TIP3    H272777   5.841   5.412   3.173 -0.1485  1.7233 -0.0853
17096TIP3   OH272778   4.154   1.893  13.301 -0.0865 -0.4892 -0.0683
17096TIP3    H172779   4.093   1.832  13.260 -0.1861 -0.6310  0.2879
17096TIP3    H272780   4.226   1.838  13.333 -0.5228 -0.5242  0.9039
17097TIP3   OH272781   0.078   5.570  11.657  0.4040  0.2046 -0.4613
17097TIP3    H172782   0.118   5.541  11.739  2.9111  0.4479 -1.5109
17097TIP3    H272783  -0.013   5.589  11.680  1.0982  0.5981  2.3399
17098TIP3   OH272784   1.660   0.488   0.665  0.5674 -0.2941 -0.2593
17098TIP3    H172785   1.605   0.413   0.684  0.3439 -0.3765 -1.1860
17098TIP3    H272786   1.735   0.479   0.724 -0.0483 -0.5788  0.4875
17099TIP3   OH272787   6.740   2.273   0.738  0.2882 -0.4098 -0.3623
17099TIP3    H172788   6.803   2.203   0.747  0.1272 -0.6504 -1.0411
17099TIP3    H272789   6.772   2.325   0.664 -0.1912 -0.4132 -0.5749
17100TIP3   OH272790   1.517   5.265   1.861  0.3991 -0.4614  0.0482
17100TIP3    H172791   1.462   5.249   1.938 -0.2892 -1.1482 -0.5627
17100TIP3    H272792   1.593   5.209   1.873  0.5538 -0.1621  0.4805
17101TIP3   OH272793   1.467   5.779  11.086 -0.8352 -0.2763 -0.2418
17101TIP3    H172794   1.497   5.869  11.101 -0.8889 -0.3004  0.0288
17101TIP3    H272795   1.378   5.777  11.123 -0.8562 -0.4226 -0.3008
17102TIP3   OH272796   0.834   3.693  13.427  0.1477 -0.3343 -0.4972
17102TIP3    H172797   0.794   3.735  13.351  1.0108  1.7439  0.1118
17102TIP3    H272798   0.928   3.707  13.415  0.3377 -0.5376  0.6230
17103TIP3   OH272799   6.799   4.585   5.613  0.3335 -0.3017  0.6056
17103TIP3    H172800   6.868   4.519   5.615  0.7449  0.1165  0.5855
17103TIP3    H272801   6.737   4.553   5.548  2.3256  1.0483 -2.1857
17104TIP3   OH272802   0.244   2.808  15.508 -0.1441 -0.1161  0.4760
17104TIP3    H172803   0.298   2.879  15.473  0.2167 -0.0092  1.2224
17104TIP3    H272804   0.300   2.730  15.502 -0.8168 -0.5228 -1.0751
17105TIP3   OH272805   3.303   2.381  17.002 -0.0156  0.3582 -0.4815
17105TIP3    H172806   3.275   2.364  17.092  2.2906 -3.8692 -0.2920
17105TIP3    H272807   3.361   2.456  17.010 -0.0163  0.2152  1.5644
17106TIP3   OH272808   5.017   2.766   0.393 -0.1910  0.1224  0.6963
17106TIP3    H172809   5.053   2.690   0.348 -0.2122 -1.7393  3.5992
17106TIP3    H272810   4.922   2.752   0.394 -0.3781  1.1385 -0.2820
17107TIP3   OH272811   2.537   6.290  17.202  0.1492  0.6047 -0.8679
17107TIP3    H172812   2.498   6.272  17.287  0.1338 -1.0617 -1.1777
17107TIP3    H272813   2.618   6.239  17.202  0.2957  0.8254 -1.7356
17108TIP3   OH272814   0.867   6.368  16.976  0.2285 -0.0275  0.6510
17108TIP3    H172815   0.850   6.454  17.014 -1.2679  0.3099 -0.6531
17108TIP3    H272816   0.888   6.312  17.050 -1.7136  0.7977  1.8889
17109TIP3   OH272817   5.398   5.540  16.703 -1.0471 -0.4221 -0.4811
17109TIP3    H172818   5.414   5.601  16.776  0.8058 -1.3962 -0.0043
17109TIP3    H272819   5.346   5.469  16.741 -1.4523 -0.1537 -0.5260
17110TIP3   OH272820   5.994   0.876   1.459 -0.4853  0.7321  0.2420
17110TIP3    H172821   5.908   0.898   1.494  0.3422  1.8230  1.7116
17110TIP3    H272822   6.038   0.960   1.449  0.6055  0.1522  0.0043
17111TIP3   OH272823   6.613   5.291   0.978 -0.0586  0.2487  0.5977
17111TIP3    H172824   6.697   5.255   1.005  1.0593  3.0633  1.2403
17111TIP3    H272825   6.630   5.332   0.893 -1.0576 -0.0719  0.2254
17112TIP3   OH272826   3.446   3.477   0.370  0.3144  0.3626 -0.4715
17112TIP3    H172827   3.463   3.469   0.276  0.3330  0.6758 -0.4986
17112TIP3    H272828   3.432   3.388   0.400 -1.0828  0.3628 -1.0344
17113TIP3   OH272829   1.473   1.842   1.569  0.1427 -0.2123 -0.4080
17113TIP3    H172830   1.531   1.870   1.498  0.9555  1.3243  0.8115
17113TIP3    H272831   1.445   1.754   1.544  0.4754  0.2433 -2.5792
17114TIP3   OH272832   4.018   3.136  13.103 -0.0798  0.2275 -0.0898
17114TIP3    H172833   4.091   3.079  13.079 -0.5895 -0.7536  0.6555
17114TIP3    H272834   4.037   3.219  13.059  1.5993  0.0625  0.2778
17115TIP3   OH272835   2.106   0.136  13.775  0.2639 -0.2258  0.2135
17115TIP3    H172836   2.097   0.173  13.863 -0.6284  0.9628 -0.3599
17115TIP3    H272837   2.137   0.208  13.721  1.1293 -1.0334 -0.4023
17116TIP3   OH272838   4.361   2.272  12.164  0.0898 -0.4534 -0.5098
17116TIP3    H172839   4.408   2.267  12.081  0.8829  1.9106 -0.2819
17116TIP3    H272840   4.289   2.332  12.147  0.6932  0.6591  0.6625
17117TIP3   OH272841   3.167   1.040  10.734  0.6728 -0.4379  0.3974
17117TIP3    H172842   3.073   1.023  10.735 -0.0691  2.9980  0.1527
17117TIP3    H272843   3.179   1.105  10.664  3.0801 -0.0203  1.1033
17118TIP3   OH272844   3.697   0.727   1.229 -0.7385  0.1990 -0.3968
17118TIP3    H172845   3.702   0.632   1.231 -2.4499  0.0531 -1.2098
17118TIP3    H272846   3.741   0.752   1.148  0.5123  0.1881  0.2633
17119TIP3   OH272847   1.613   5.050   4.965  0.0749  0.5135  0.6032
17119TIP3    H172848   1.594   5.035   5.057 -0.7077  0.7055  0.4762
17119TIP3    H272849   1.550   5.117   4.938 -2.0762 -1.9600 -0.9602
17120TIP3   OH272850   6.504   5.496  13.457  0.0148 -0.5929 -0.0639
17120TIP3    H172851   6.521   5.543  13.375  2.6375  1.4404  1.4774
17120TIP3    H272852   6.503   5.403  13.432 -0.1047  0.0041 -2.4917
17121TIP3   OH272853   1.615   1.216   5.134  0.0119 -0.5604  0.1648
17121TIP3    H172854   1.536   1.254   5.096  1.1626  1.2324 -0.5415
17121TIP3    H272855   1.638   1.274   5.206  0.0054 -1.7968  1.2001
17122TIP3   OH272856   4.219   5.008  13.518 -0.6033 -0.3978  0.1328
17122TIP3    H172857   4.192   4.990  13.428  0.4824  0.6379 -0.4291
17122TIP3    H272858   4.311   4.982  13.521 -1.3211 -3.1535  1.7904
17123TIP3   OH272859   4.859   1.264   5.538 -0.1486  0.0701  0.3779
17123TIP3    H172860   4.791   1.292   5.600 -1.0696  0.1091 -0.6395
17123TIP3    H272861   4.827   1.182   5.502  1.8485 -1.6696  2.2207
17124TIP3   OH272862   5.978   4.534  11.645 -0.1330 -0.2958 -0.7027
17124TIP3    H172863   6.058   4.497  11.680 -1.6660 -2.6202  0.6119
17124TIP3    H272864   5.953   4.601  11.708 -0.4973 -1.3144  0.2640
17125TIP3   OH272865   5.207   5.285   3.568 -0.4888  0.3757  0.4046
17125TIP3    H172866   5.248   5.201   3.545 -1.0687 -0.7821  3.1682
17125TIP3    H272867   5.280   5.345   3.581 -0.0652  0.3443 -1.5690
17126TIP3   OH272868   3.467   5.688  11.640  0.3553  0.1279 -0.2701
17126TIP3    H172869   3.427   5.676  11.554 -3.0088  1.3973  0.9336
17126TIP3    H272870   3.493   5.780  11.642 -0.0577  0.2395  0.2154
17127TIP3   OH272871   4.559   4.686   2.167 -0.2639 -0.2398 -0.6150
17127TIP3    H172872   4.527   4.604   2.131 -1.7065  0.0238 -0.0143
17127TIP3    H272873   4.505   4.701   2.244 -1.2957  2.1274 -1.6786
17128TIP3   OH272874   0.670   4.463   5.589 -0.1711  0.0748  0.3532
17128TIP3    H172875   0.723   4.480   5.667 -0.4056  3.8722 -0.0994
17128TIP3    H272876   0.697   4.532   5.527 -3.9459  0.8028 -0.7166
17129TIP3   OH272877   0.741   4.134  13.039 -0.3436  0.2103  0.1614
17129TIP3    H172878   0.653   4.152  13.071 -0.4690 -1.5813  0.9328
17129TIP3    H272879   0.729   4.074  12.966  0.2005  0.6910 -0.3392
17130TIP3   OH272880   1.506   6.041  16.575  0.3184 -0.0015  0.0067
17130TIP3    H172881   1.579   5.987  16.543  1.1147  0.9631  0.1311
17130TIP3    H272882   1.444   6.043  16.502  1.2775  0.6622 -0.8276
17131TIP3   OH272883   4.649   2.134  11.306 -0.4846  0.1767 -0.5232
17131TIP3    H172884   4.606   2.048  11.307 -2.5456  1.1503 -0.0415
17131TIP3    H272885   4.719   2.125  11.240 -1.4358 -1.5036 -1.3700
17132TIP3   OH272886   4.810   0.623   2.446  0.1775 -0.6584 -0.9731
17132TIP3    H172887   4.789   0.658   2.359 -0.2871 -0.4580 -0.7794
17132TIP3    H272888   4.778   0.532   2.443 -1.8649 -0.0290 -0.2869
17133TIP3   OH272889   2.879   0.101   2.524 -0.0032 -0.1621  0.4099
17133TIP3    H172890   2.810   0.156   2.487 -2.5448 -3.2855  0.1547
17133TIP3    H272891   2.960   0.138   2.488 -1.7924  1.3323 -2.4429
17134TIP3   OH272892   0.507   1.327  13.318  0.2239  0.1810  0.1195
17134TIP3    H172893   0.516   1.310  13.225 -0.1130  1.3003 -0.1364
17134TIP3    H272894   0.428   1.380  13.325  0.5791  0.6245  0.9667
17135TIP3   OH272895   1.790   4.616   2.842  0.1766  0.0644 -0.5981
17135TIP3    H172896   1.763   4.628   2.933 -0.4214  0.3047 -0.8000
17135TIP3    H272897   1.855   4.546   2.845 -0.3855 -0.4411 -0.0793
17136TIP3   OH272898   6.181   1.519   4.520 -0.1204  0.0616 -0.6308
17136TIP3    H172899   6.160   1.587   4.584 -2.1037  1.4348 -2.5842
17136TIP3    H272900   6.245   1.559   4.462 -1.3984  0.4109 -1.8693
17137TIP3   OH272901   2.597   2.427  10.122  0.4172  0.2703 -0.3637
17137TIP3    H172902   2.581   2.374  10.200 -0.7665  0.7632 -0.2518
17137TIP3    H272903   2.585   2.367  10.048  2.2407 -0.3772 -0.1933
17138TIP3   OH272904   2.580   4.510  14.994  0.2378 -0.2289  0.9069
17138TIP3    H172905   2.601   4.462  15.074  2.1843  1.2627  1.3886
17138TIP3    H272906   2.635   4.471  14.927  0.3030 -0.0046  0.8287
17139TIP3   OH272907   1.844   3.393  11.868 -0.0753  0.1946 -0.1611
17139TIP3    H172908   1.913   3.358  11.924 -0.3386  0.3029  0.2393
17139TIP3    H272909   1.806   3.316  11.826  0.0662  0.1031 -0.1224
17140TIP3   OH272910   1.673   6.347  16.487 -0.0157 -0.1745  0.2146
17140TIP3    H172911   1.667   6.436  16.521 -0.4702 -0.1743  0.1397
17140TIP3    H272912   1.737   6.304  16.545 -1.6703 -0.5210  1.9087
17141TIP3   OH272913   0.241   4.464   3.958  0.1340 -0.3231  0.3835
17141TIP3    H172914   0.270   4.445   4.047  1.2182 -0.6365 -0.0244
17141TIP3    H272915   0.296   4.536   3.929 -1.6143  1.2198  0.6708
17142TIP3   OH272916   3.650   0.786   2.876  0.0012 -0.2648  0.2070
17142TIP3    H172917   3.566   0.766   2.834 -0.8498 -0.8768  2.0913
17142TIP3    H272918   3.626   0.842   2.951  1.1239 -1.3036  1.3869
17143TIP3   OH272919   0.737   4.821   5.906  0.4290  0.0894  0.4768
17143TIP3    H172920   0.653   4.797   5.946 -0.1242  1.2695  0.0652
17143TIP3    H272921   0.799   4.757   5.941 -0.4126 -0.0957  1.7015
17144TIP3   OH272922   0.777   3.365  11.009  0.8579 -0.7979  0.6828
17144TIP3    H172923   0.706   3.423  11.035  1.5842  0.0903  0.7578
17144TIP3    H272924   0.839   3.422  10.962  1.2501 -1.6582  0.1147
17145TIP3   OH272925   2.137   3.655   1.917 -0.2495 -1.0875 -0.2385
17145TIP3    H172926   2.093   3.571   1.932  0.5354 -1.4492  0.1028
17145TIP3    H272927   2.078   3.721   1.953 -0.5029 -1.5666  0.2254
17146TIP3   OH272928   4.126   4.400   1.300  0.2833  0.5200 -0.2822
17146TIP3    H172929   4.107   4.474   1.357 -1.9437  1.0084 -1.5118
17146TIP3    H272930   4.211   4.421   1.261  1.1203  0.9013  1.6564
17147TIP3   OH272931   2.163   4.960   1.068  0.3992 -0.1653 -0.9162
17147TIP3    H172932   2.215   4.981   0.991 -0.7642 -0.2910 -1.7728
17147TIP3    H272933   2.085   5.015   1.060  0.2791 -0.1487  0.2011
17148TIP3   OH272934   3.222   2.812   1.337 -0.1228 -0.0327  0.3487
17148TIP3    H172935   3.167   2.763   1.276 -0.1154 -0.0845  0.3830
17148TIP3    H272936   3.246   2.891   1.290 -0.8579  0.3497  0.6127
17149TIP3   OH272937   0.085   0.063   3.078 -0.3236  0.6013 -0.2964
17149TIP3    H172938   0.034   0.130   3.032 -0.0798  1.1328  0.1831
17149TIP3    H272939   0.144   0.114   3.135 -2.5350  0.0257  2.7874
17150TIP3   OH272940   6.608   1.738   5.311  0.0936  0.6737 -0.5934
17150TIP3    H172941   6.568   1.769   5.392  1.5556  0.8300  0.1171
17150TIP3    H272942   6.674   1.675   5.340  0.6156  0.7146 -1.6626
17151TIP3   OH272943   1.520   3.441  16.756  0.7861 -0.2089  0.0241
17151TIP3    H172944   1.595   3.466  16.811  0.0535 -0.1971  1.0533
17151TIP3    H272945   1.457   3.511  16.769  0.5099 -0.3264 -0.6735
17152TIP3   OH272946   0.426   3.797  11.048  0.4334  0.5446  0.0108
17152TIP3    H172947   0.417   3.815  10.954  2.4101 -4.3473 -1.4049
17152TIP3    H272948   0.519   3.779  11.060  0.0015 -0.3194  2.5972
17153TIP3   OH272949   3.519   5.148   5.286 -0.0377 -0.0612  0.0274
17153TIP3    H172950   3.578   5.073   5.288 -0.5452 -0.4483  1.6271
17153TIP3    H272951   3.533   5.192   5.370  0.2451  1.6637 -0.8608
17154TIP3   OH272952   0.775   3.859  16.612 -0.7626 -0.3488 -0.1215
17154TIP3    H172953   0.715   3.813  16.554  0.5641 -1.9091 -0.3359
17154TIP3    H272954   0.781   3.803  16.689 -1.6709  1.1640  1.1153
17155TIP3   OH272955   3.558   0.302  16.633  0.0499  0.1534  0.3213
17155TIP3    H172956   3.571   0.322  16.540 -1.4397 -0.7525 -0.1116
17155TIP3    H272957   3.634   0.341  16.676 -0.6768  3.2668 -0.9050
17156TIP3   OH272958   4.474   1.315   2.074 -0.1716 -0.1396  0.1551
17156TIP3    H172959   4.444   1.285   1.989  0.8257 -0.4439 -0.0977
17156TIP3    H272960   4.462   1.239   2.132  1.8088 -0.9122 -0.3588
17157TIP3   OH272961   1.756   2.007   4.076 -0.3847  0.7301  0.1071
17157TIP3    H172962   1.818   2.041   4.141 -0.9282 -0.1650  1.1175
17157TIP3    H272963   1.716   1.931   4.118  0.9412 -1.3586 -2.1347
17158TIP3   OH272964   2.021   4.729  17.010 -0.4023  0.0311 -0.4809
17158TIP3    H172965   1.952   4.765  16.955 -0.0521  0.6262 -0.5393
17158TIP3    H272966   2.056   4.805  17.058 -0.5026 -0.4248  0.3434
17159TIP3   OH272967   2.217   3.409  16.497  0.6740  0.0224  0.1596
17159TIP3    H172968   2.311   3.412  16.516  0.3692 -0.3820  1.8995
17159TIP3    H272969   2.187   3.499  16.508  1.1172  0.5127 -2.1316
17160TIP3   OH272970   4.861   0.132  14.537  0.2496 -0.3440 -0.3023
17160TIP3    H172971   4.770   0.109  14.557  0.5998 -0.8052  0.8378
17160TIP3    H272972   4.906   0.130  14.621  0.8054  2.3851 -0.4433
17161TIP3   OH272973   5.292   1.262   1.976  0.3008  0.3844 -0.4319
17161TIP3    H172974   5.324   1.172   1.968  1.7122  0.8257 -0.0281
17161TIP3    H272975   5.196   1.253   1.974  0.3047 -1.3660  1.7828
17162TIP3   OH272976   2.922   5.591  14.013  0.5210 -0.6902  0.9357
17162TIP3    H172977   2.885   5.502  14.009 -0.3745 -0.2981 -0.0260
17162TIP3    H272978   2.995   5.584  14.074  0.8315 -2.2339  0.4399
17163TIP3   OH272979   2.633   3.160   0.650 -0.0601  0.4499 -0.7287
17163TIP3    H172980   2.718   3.203   0.648 -0.4409  1.2804  0.2485
17163TIP3    H272981   2.570   3.232   0.648 -0.7182 -0.0498  0.6686
17164TIP3   OH272982   6.473   5.243   3.110  0.4716  0.8911  0.3805
17164TIP3    H172983   6.394   5.243   3.056  0.4405  0.3377  0.4150
17164TIP3    H272984   6.491   5.150   3.126 -0.2078  1.0469  2.3309
17165TIP3   OH272985   3.760   4.322  16.897 -0.0059  0.2085  0.0322
17165TIP3    H172986   3.816   4.276  16.959  1.7904  0.4199 -1.3686
17165TIP3    H272987   3.693   4.257  16.873  0.8398 -0.7387  0.1889
17166TIP3   OH272988   1.723   1.799   3.365  0.0573  0.1036  0.0568
17166TIP3    H172989   1.801   1.854   3.376  1.9270 -2.0266 -1.5157
17166TIP3    H272990   1.700   1.773   3.454 -0.3814  2.6582  0.7645
17167TIP3   OH272991   0.813   2.633   0.698  0.4453  0.3043 -0.0212
17167TIP3    H172992   0.875   2.674   0.758  0.8193  0.3169 -0.4078
17167TIP3    H272993   0.755   2.704   0.670  0.7047  0.4449 -0.2096
17168TIP3   OH272994   1.309   4.096   0.316 -0.2630  0.2133 -0.3492
17168TIP3    H172995   1.253   4.053   0.380 -0.5387 -0.1159 -0.8018
17168TIP3    H272996   1.392   4.111   0.361 -0.7755  0.8951  0.4011
17169TIP3   OH272997   4.421   5.143  14.615  0.7069  0.0754 -0.6141
17169TIP3    H172998   4.347   5.111  14.665  0.8822 -0.6307 -0.7987
17169TIP3    H272999   4.481   5.068  14.609  2.0437  0.9937  0.6543
17170TIP3   OH273000   1.038   0.385   0.255 -0.4381  0.1249  0.3158
17170TIP3    H173001   1.090   0.440   0.313 -1.4753  0.8563  0.5732
17170TIP3    H273002   0.980   0.336   0.314 -0.2995 -0.4166  0.0096
17171TIP3   OH273003   3.821   0.123  10.331  0.2171  0.2569  0.2729
17171TIP3    H173004   3.727   0.137  10.319  0.3115  2.0443  1.3508
17171TIP3    H273005   3.849   0.192  10.391  1.9257 -1.2188  1.2883
17172TIP3   OH273006   2.688   1.656   5.194 -0.4807  0.6398  0.8174
17172TIP3    H173007   2.620   1.607   5.240  0.8007 -0.9029  1.1695
17172TIP3    H273008   2.716   1.723   5.256 -1.1079  0.7598  0.9761
17173TIP3   OH273009   1.468   0.831   5.759 -0.2418 -0.4135 -0.2129
17173TIP3    H173010   1.372   0.829   5.765 -0.3355  1.7392 -0.2174
17173TIP3    H273011   1.493   0.911   5.804  1.4913 -0.4267 -1.0795
17174TIP3   OH273012   0.775   2.191  15.684 -0.4668 -0.7050  0.4891
17174TIP3    H173013   0.783   2.255  15.754 -0.8316 -2.7263  2.5155
17174TIP3    H273014   0.845   2.212  15.623  0.1525  0.8844  1.6852
17175TIP3   OH273015   2.258   5.295  16.815  0.8575  0.7188  0.3788
17175TIP3    H173016   2.165   5.314  16.803  0.8187  0.1557 -0.2925
17175TIP3    H273017   2.262   5.242  16.894  0.0550 -3.0062 -1.8458
17176TIP3   OH273018   5.443   2.881  16.652 -0.2895  0.0126  0.5559
17176TIP3    H173019   5.366   2.889  16.595  1.5060 -0.2968 -2.0467
17176TIP3    H273020   5.406   2.855  16.736 -3.1114  0.7443 -0.3150
17177TIP3   OH273021   2.710   6.637  13.174  0.3411 -0.0330 -0.2560
17177TIP3    H173022   2.701   6.572  13.244  1.2208 -1.2274 -1.2182
17177TIP3    H273023   2.772   6.701  13.210  2.2885 -1.6274 -0.5661
17178TIP3   OH273024   5.741   5.286  11.374 -0.6585 -0.1668  0.2742
17178TIP3    H173025   5.668   5.345  11.356  0.1830  1.6112  2.2492
17178TIP3    H273026   5.806   5.309  11.308 -0.8416  0.2149  0.2199
17179TIP3   OH273027   3.566   2.771   0.040  0.4379 -0.1793 -0.3410
17179TIP3    H173028   3.647   2.816   0.065  0.0636 -0.6741  1.9973
17179TIP3    H273029   3.589   2.678   0.040  0.1875 -0.2486 -1.0455
17180TIP3   OH273030   1.750   0.896  14.575  0.0051  0.1108  0.1903
17180TIP3    H173031   1.754   0.800  14.569 -0.4487  0.1510 -1.1596
17180TIP3    H273032   1.707   0.913  14.659  0.0576 -0.8712  0.4297
17181TIP3   OH273033   5.702   1.942   1.513 -0.2932 -0.2446  0.2669
17181TIP3    H173034   5.716   1.992   1.593 -2.4761 -1.4904  1.5142
17181TIP3    H273035   5.644   1.871   1.539 -3.2331  0.7176 -2.9236
17182TIP3   OH273036   4.641   6.015   4.611  0.1154 -0.3414 -0.2034
17182TIP3    H173037   4.588   6.003   4.532  0.5751 -1.0201 -0.4251
17182TIP3    H273038   4.585   6.064   4.671  0.0998  1.0469 -1.3080
17183TIP3   OH273039   6.200   4.021  13.321  0.0812  0.0328 -0.1686
17183TIP3    H173040   6.172   4.018  13.413 -1.4064 -0.4570 -0.6011
17183TIP3    H273041   6.215   3.930  13.297 -0.4137  0.0719 -0.6497
17184TIP3   OH273042   2.943   3.678   5.268  0.0205  0.2784 -1.2041
17184TIP3    H173043   2.906   3.665   5.181 -1.3341 -1.9581 -0.3790
17184TIP3    H273044   2.944   3.591   5.307  2.6481  0.8644  0.2798
17185TIP3   OH273045   5.126   1.558  16.490  0.0563  0.3012  0.1603
17185TIP3    H173046   5.199   1.610  16.454 -0.0783 -0.5098 -1.3631
17185TIP3    H273047   5.161   1.521  16.571  1.0767  0.5671 -0.1445
17186TIP3   OH273048   6.499   1.048   3.559 -0.4583  0.4447  0.0963
17186TIP3    H173049   6.589   1.042   3.527 -0.4970  0.2205  0.0253
17186TIP3    H273050   6.469   1.134   3.530 -0.7302 -0.0272 -1.0928
17187TIP3   OH273051   0.275   5.759  16.634 -0.0067 -0.5462 -0.1919
17187TIP3    H173052   0.349   5.751  16.693 -1.0057  0.4801  1.2667
17187TIP3    H273053   0.231   5.840  16.661 -1.1973 -0.6994 -1.5477
17188TIP3   OH273054   1.462   6.442   4.339 -0.3098  0.6254  0.0069
17188TIP3    H173055   1.376   6.411   4.366  0.0785 -0.0453  0.5073
17188TIP3    H273056   1.498   6.371   4.286  0.1680  0.6477  0.2934
17189TIP3   OH273057   5.886   5.262   3.684 -0.1889 -0.0240 -0.2034
17189TIP3    H173058   5.791   5.267   3.696 -0.2409 -0.9060 -0.1330
17189TIP3    H273059   5.910   5.179   3.727  0.6303  0.2695 -0.0934
17190TIP3   OH273060   3.607   2.045   3.927  0.2535 -0.1276  0.3366
17190TIP3    H173061   3.538   2.057   3.863  0.7278 -0.6320 -0.2814
17190TIP3    H273062   3.568   2.072   4.010 -0.2323  0.9676 -0.2203
17191TIP3   OH273063   0.540   4.776   2.810 -0.3387  0.4486 -0.0783
17191TIP3    H173064   0.460   4.725   2.801 -0.1379  0.0449  0.3849
17191TIP3    H273065   0.599   4.720   2.860  0.2337  0.7451 -0.4145
17192TIP3   OH273066   3.040   5.018   1.306  0.4344  0.2482 -0.2289
17192TIP3    H173067   3.046   5.050   1.396  0.1119 -0.8146  0.1773
17192TIP3    H273068   2.946   5.012   1.289  0.4830 -0.8830 -0.1475
17193TIP3   OH273069   4.414   1.234  16.229  0.0140  0.8870  0.2664
17193TIP3    H173070   4.420   1.328  16.213 -1.3991  0.8529 -0.6054
17193TIP3    H273071   4.434   1.225  16.322 -0.9407  2.1833  0.6320
17194TIP3   OH273072   3.458   5.358   4.312  0.2432  0.3478  0.5998
17194TIP3    H173073   3.374   5.391   4.342 -0.0824  2.0554 -1.9110
17194TIP3    H273074   3.437   5.279   4.262  0.2889  0.0631  1.0250
17195TIP3   OH273075   1.125   1.469  12.468  0.7443  0.1734  0.1300
17195TIP3    H173076   1.090   1.537  12.526 -3.2535 -1.9608  0.6149
17195TIP3    H273077   1.132   1.392  12.524 -1.3245 -1.4351 -1.6335
17196TIP3   OH273078   0.965   0.705   1.651  0.4139  0.7081  0.6391
17196TIP3    H173079   0.948   0.697   1.745  0.5742 -0.6824  0.5770
17196TIP3    H273080   1.056   0.674   1.641 -0.2587 -1.1522 -0.1975
17197TIP3   OH273081   2.528   5.415  11.542  0.6054  0.1076 -0.2381
17197TIP3    H173082   2.495   5.480  11.604 -1.1455 -1.5960  0.7320
17197TIP3    H273083   2.577   5.353  11.596 -0.0063 -0.8117 -0.7140
17198TIP3   OH273084   6.223   5.569  15.362  0.1422 -0.1911 -0.1260
17198TIP3    H173085   6.293   5.633  15.347  2.2192 -2.4536 -0.6445
17198TIP3    H273086   6.198   5.583  15.453  2.3404 -0.2334  0.5534
17199TIP3   OH273087   5.627   3.496  16.979 -0.1743 -0.3041  0.3381
17199TIP3    H173088   5.566   3.475  17.050 -0.6855  0.3875  0.1138
17199TIP3    H273089   5.700   3.541  17.023 -0.0633 -0.6621  0.5336
17200TIP3   OH273090   5.794   3.699   0.791 -0.3872 -0.2342  0.1672
17200TIP3    H173091   5.767   3.614   0.827  0.7512  0.1331  1.9744
17200TIP3    H273092   5.860   3.732   0.852 -0.4344  1.7376 -0.7668
17201TIP3   OH273093   0.074   3.697   0.619  0.1644  0.0731  0.0167
17201TIP3    H173094  -0.002   3.713   0.564  1.9872  1.0285 -2.4136
17201TIP3    H273095   0.100   3.784   0.650 -0.2875 -0.3508  1.7148
17202TIP3   OH273096   3.842   2.887   1.374  0.2011  0.2466 -0.6618
17202TIP3    H173097   3.937   2.893   1.384 -0.0189  1.0824  1.4808
17202TIP3    H273098   3.810   2.975   1.395 -1.1118 -0.3653  0.0738
17203TIP3   OH273099   3.305   2.274  16.723  0.0997  0.0697  0.1949
17203TIP3    H173100   3.301   2.180  16.705 -0.4581  0.3310 -1.0962
17203TIP3    H273101   3.398   2.294  16.722  0.2093 -0.4151  0.1936
17204TIP3   OH273102   4.831   5.506  15.641  0.7165 -0.1909  0.4537
17204TIP3    H173103   4.847   5.467  15.555  2.0580 -2.4082  1.6180
17204TIP3    H273104   4.832   5.601  15.624  1.0113 -0.5388 -1.9362
17205TIP3   OH273105   6.025   5.090   4.397 -0.4189  0.2973  0.2215
17205TIP3    H173106   5.939   5.096   4.438 -0.6834 -0.7467 -0.1445
17205TIP3    H273107   6.031   4.999   4.367 -0.5656  1.1782 -2.7746
17206TIP3   OH273108   3.284   6.814   1.437 -0.5088  0.4877 -0.1923
17206TIP3    H173109   3.256   6.906   1.440  0.5129  0.8101  0.0293
17206TIP3    H273110   3.361   6.814   1.380 -0.1175 -0.1219  0.3213
17207TIP3   OH273111   2.092   3.740  15.755 -0.2118 -0.6255 -0.1971
17207TIP3    H173112   2.070   3.670  15.694  2.0179 -0.9159 -0.7691
17207TIP3    H273113   2.188   3.737  15.761 -0.1102  1.8056  0.4291
17208TIP3   OH273114   0.032   4.101  12.723  0.2204  0.2023 -0.0273
17208TIP3    H173115   0.046   4.007  12.722  0.9816  0.3012  0.1733
17208TIP3    H273116  -0.048   4.113  12.775 -0.1706 -0.3572 -0.4957
17209TIP3   OH273117   4.088   0.210   0.536 -0.1773 -0.4103  0.3240
17209TIP3    H173118   4.106   0.236   0.626 -1.7286  0.4463  0.4279
17209TIP3    H273119   4.067   0.117   0.541 -0.1794 -0.3841  0.8438
17210TIP3   OH273120   5.919   3.267   0.248 -0.2063  0.6466  0.2173
17210TIP3    H173121   5.971   3.268   0.329  1.1315 -1.1595 -0.5666
17210TIP3    H273122   5.895   3.176   0.235  0.0121  0.8173 -1.6719
17211TIP3   OH273123   1.969   4.186   0.855  0.1421 -0.0232  0.1840
17211TIP3    H173124   1.981   4.115   0.917  1.5489  0.4230  0.4702
17211TIP3    H273125   1.912   4.150   0.787  1.7382 -1.8302 -0.2877
17212TIP3   OH273126   6.402   0.573  15.691  0.2478 -0.3519  0.2117
17212TIP3    H173127   6.388   0.648  15.748 -0.0083 -0.4559  0.2871
17212TIP3    H273128   6.406   0.498  15.751  0.3303 -0.4175  0.1233
17213TIP3   OH273129   5.478   6.541   3.834  0.0192  0.4533  0.4690
17213TIP3    H173130   5.513   6.631   3.834  1.7444 -0.0519  3.8697
17213TIP3    H273131   5.390   6.549   3.869 -0.1400  0.8839 -0.0171
17214TIP3   OH273132   6.308   6.343   5.035  0.0940 -0.8235 -0.7230
17214TIP3    H173133   6.298   6.265   5.090 -0.5518 -1.0487 -1.1535
17214TIP3    H273134   6.236   6.337   4.972 -0.0093  0.1656 -0.7032
17215TIP3   OH273135   5.612   6.101  16.783 -0.4194  0.4783  0.5455
17215TIP3    H173136   5.620   6.044  16.860 -1.2382  0.3194  0.5186
17215TIP3    H273137   5.640   6.046  16.710 -1.0799  0.1520  0.5362
17216TIP3   OH273138   2.585   2.590   2.109  0.2133 -0.2654 -0.4387
17216TIP3    H173139   2.521   2.563   2.043 -1.5184  1.1084  0.6192
17216TIP3    H273140   2.601   2.682   2.090  0.0776  0.0135  0.7363
17217TIP3   OH273141   0.528   6.047   6.630 -0.3289 -0.0380  0.0192
17217TIP3    H173142   0.480   6.055   6.547 -0.2545 -1.3306 -0.1761
17217TIP3    H273143   0.611   6.092   6.614 -0.0366 -0.8493 -0.8650
17218TIP3   OH273144   6.478   1.329  15.469 -0.3220  0.5907 -0.3670
17218TIP3    H173145   6.420   1.296  15.538  0.5916 -0.9121 -0.2638
17218TIP3    H273146   6.562   1.288  15.487  0.6945  2.4341 -0.7319
17219TIP3   OH273147   4.142   0.177  16.376 -0.0721 -0.3465 -0.1996
17219TIP3    H173148   4.153   0.141  16.288 -0.1139 -0.9477  0.0363
17219TIP3    H273149   4.232   0.186  16.409 -0.0641 -0.2818 -0.2385
17220TIP3   OH273150   1.172   6.497  15.277  0.1313 -0.4070  0.0832
17220TIP3    H173151   1.083   6.531  15.282 -0.0507 -0.8088 -0.3750
17220TIP3    H273152   1.172   6.442  15.199  1.5693  1.8447 -1.6095
17221TIP3   OH273153   1.078   1.279  13.214  0.0437  0.0846 -0.2605
17221TIP3    H173154   1.171   1.267  13.232  0.9380  4.1793 -1.1400
17221TIP3    H273155   1.073   1.293  13.120 -1.7924 -1.5782 -0.4960
17222TIP3   OH273156   6.690   6.361  15.248  0.0345  0.8001 -0.4912
17222TIP3    H173157   6.647   6.346  15.164 -1.8375  0.7626  0.4299
17222TIP3    H273158   6.771   6.310  15.243 -1.0302 -0.8647 -1.5081
17223TIP3   OH273159   6.662   5.024   4.955 -0.3685  0.0881 -0.2678
17223TIP3    H173160   6.713   5.071   5.021  0.2934  1.1131 -1.4725
17223TIP3    H273161   6.686   4.932   4.967 -1.7030 -0.0329  2.1529
17224TIP3   OH273162   5.606   2.528   5.164 -0.6248 -0.2902  0.2259
17224TIP3    H173163   5.665   2.453   5.174 -0.2543 -0.1529 -0.7485
17224TIP3    H273164   5.602   2.568   5.251  2.3653  0.8876 -0.0484
17225TIP3   OH273165   4.020   1.094   4.236  0.0700 -0.3040 -0.7021
17225TIP3    H173166   4.057   1.170   4.191  0.1165  1.3491  1.8691
17225TIP3    H273167   3.928   1.118   4.251  0.2359 -0.4219  0.6743
17226TIP3   OH273168   4.244   2.365   2.158 -0.7926 -0.1318 -0.3607
17226TIP3    H173169   4.287   2.310   2.224 -0.8941 -0.0911 -0.2600
17226TIP3    H273170   4.314   2.419   2.122 -0.9610  0.7860  0.6400
17227TIP3   OH273171   6.584   2.499   1.235 -0.0560 -0.3947 -0.0928
17227TIP3    H173172   6.658   2.463   1.186  0.8982  1.6617 -0.2764
17227TIP3    H273173   6.522   2.525   1.167 -0.4064 -0.9616  0.0030
17228TIP3   OH273174   5.317   0.458  15.877  0.4182  0.4266 -0.1049
17228TIP3    H173175   5.279   0.498  15.798  1.1156  2.1346  0.3704
17228TIP3    H273176   5.287   0.514  15.948 -2.1637 -2.4123  1.2580
17229TIP3   OH273177   1.416   6.672   5.503 -0.2117  0.3966  0.6307
17229TIP3    H173178   1.347   6.616   5.466  0.8278 -0.5412  0.0724
17229TIP3    H273179   1.392   6.760   5.474 -0.2567 -0.1239 -1.0751
17230TIP3   OH273180   3.613   1.676   2.383 -0.6257 -0.5951  0.5977
17230TIP3    H173181   3.652   1.758   2.414 -1.9708 -0.0755  0.9969
17230TIP3    H273182   3.590   1.629   2.463 -0.7656 -0.9120  0.3735
17231TIP3   OH273183   0.941   6.350  13.920 -0.1396 -0.1761  0.0360
17231TIP3    H173184   0.994   6.421  13.958 -0.3784  0.8484 -1.4251
17231TIP3    H273185   0.994   6.319  13.846 -0.7084 -0.4881 -0.2419
17232TIP3   OH273186   2.024   1.188   2.855  0.3027 -0.4498 -0.0087
17232TIP3    H173187   2.090   1.208   2.788  2.0366 -2.9801  0.8099
17232TIP3    H273188   2.024   1.265   2.912 -1.7036  2.1044 -3.0702
17233TIP3   OH273189   0.909   5.612  15.413 -0.4767 -0.0302  0.1684
17233TIP3    H173190   0.899   5.552  15.487 -1.5306 -0.4809 -0.3143
17233TIP3    H273191   0.851   5.577  15.346 -0.7481  1.2566 -0.2994
17234TIP3   OH273192   3.698   2.336  11.329  0.0073  0.2229 -0.4386
17234TIP3    H173193   3.790   2.362  11.330 -0.4100  1.7401  1.0320
17234TIP3    H273194   3.656   2.398  11.270 -0.6325  1.7128  1.5060
17235TIP3   OH273195   3.539   3.126   1.177 -0.3115  0.2454 -0.1205
17235TIP3    H173196   3.544   3.039   1.135 -2.4707  0.0205  0.0123
17235TIP3    H273197   3.484   3.113   1.253  1.0221  1.3470  1.0829
17236TIP3   OH273198   2.944   6.074   3.730  0.1532 -0.0980 -0.8414
17236TIP3    H173199   3.004   6.053   3.801 -0.8006 -0.1825 -0.0391
17236TIP3    H273200   2.971   6.018   3.657 -0.1925 -1.6081  0.1438
17237TIP3   OH273201   5.304   6.547  12.629 -0.5913  0.6583 -0.2387
17237TIP3    H173202   5.399   6.556  12.624 -0.5755  0.3968 -0.4606
17237TIP3    H273203   5.270   6.605  12.562 -0.5795  0.5997 -0.2957
17238TIP3   OH273204   1.014   1.609   6.030 -0.2901 -0.3726 -0.2193
17238TIP3    H173205   1.108   1.592   6.035  0.0239  1.3590  0.4778
17238TIP3    H273206   1.002   1.649   5.944 -0.3150 -0.1451 -0.1088
17239TIP3   OH273207   1.131   4.512  11.333 -0.5669 -0.1554  0.0483
17239TIP3    H173208   1.071   4.581  11.360  0.1790  0.9873 -1.0990
17239TIP3    H273209   1.089   4.472  11.256 -0.8449 -0.7928  0.5187
17240TIP3   OH273210   6.437   5.371  12.904  0.0981  0.2781  0.3708
17240TIP3    H173211   6.446   5.437  12.973 -0.2597 -0.0708  0.7590
17240TIP3    H273212   6.426   5.422  12.823 -1.7257  0.7302  0.8573
17241TIP3   OH273213   4.399   4.599   5.513 -0.3706  0.1497  0.1360
17241TIP3    H173214   4.471   4.630   5.568  0.1596 -0.0405 -0.4470
17241TIP3    H273215   4.366   4.679   5.471  2.0174 -0.1527 -2.6013
17242TIP3   OH273216   4.257   0.899   0.563 -0.0505  0.7242 -0.4907
17242TIP3    H173217   4.210   0.976   0.531  0.3583  1.1308 -0.1315
17242TIP3    H273218   4.240   0.898   0.657 -1.8802 -0.9031 -0.7790
17243TIP3   OH273219   2.037   1.930  15.635 -0.3191  0.5084 -0.1773
17243TIP3    H173220   2.044   1.972  15.720  1.6182 -0.8908  0.4329
17243TIP3    H273221   2.118   1.953  15.590 -0.7209  0.1415 -1.1312
17244TIP3   OH273222   0.817   4.090   1.859 -0.0350 -0.4945  0.1878
17244TIP3    H173223   0.800   4.184   1.867  1.6668 -0.0883 -0.5637
17244TIP3    H273224   0.759   4.061   1.789 -0.2521  0.0935  0.1193
17245TIP3   OH273225   3.225   5.511  15.938  0.2794  0.3036  0.5005
17245TIP3    H173226   3.176   5.497  16.019  0.6503  0.8493  0.8250
17245TIP3    H273227   3.212   5.604  15.918 -0.2568  0.0586 -0.3692
17246TIP3   OH273228   0.207   4.275  16.388 -0.2795  0.7578  0.0411
17246TIP3    H173229   0.162   4.220  16.452 -0.0573 -0.0029 -0.4466
17246TIP3    H273230   0.293   4.292  16.426 -0.2324  0.5010  0.0490
17247TIP3   OH273231   2.090   5.814  16.070 -0.0407 -0.3653  0.2773
17247TIP3    H173232   2.039   5.755  16.126  0.0863 -1.1516 -0.4040
17247TIP3    H273233   2.042   5.814  15.987  0.4710 -0.2355 -0.0198
17248TIP3   OH273234   3.484   1.898  16.068  0.1326 -0.6873  0.1028
17248TIP3    H173235   3.574   1.888  16.039 -0.0078 -2.6053  0.1920
17248TIP3    H273236   3.491   1.913  16.163  0.3533 -1.6412  0.2491
17249TIP3   OH273237   6.271   0.606  11.409 -0.2484 -0.1637 -0.0571
17249TIP3    H173238   6.201   0.649  11.360  0.5814  0.1811 -0.9795
17249TIP3    H273239   6.337   0.674  11.420  0.7357 -0.9561 -0.8287
17250TIP3   OH273240   0.016   3.214  12.181 -0.2323  0.0175  0.2866
17250TIP3    H173241  -0.050   3.267  12.137  0.7794  0.6526 -0.4948
17250TIP3    H273242   0.021   3.250  12.270 -1.3442 -0.4234  0.5465
17251TIP3   OH273243   6.331   5.946   2.114  1.0314 -0.2359  0.0241
17251TIP3    H173244   6.268   6.017   2.128  0.1823 -1.4427  3.3558
17251TIP3    H273245   6.372   5.965   2.030 -1.6464  2.2467 -0.8458
17252TIP3   OH273246   6.650   5.638  11.690 -0.4157  0.1826  0.1234
17252TIP3    H173247   6.568   5.631  11.739  0.2846 -0.0626  1.2896
17252TIP3    H273248   6.626   5.685  11.610 -1.9859 -1.1950 -0.2786
17253TIP3   OH273249   0.433   4.837   1.153  0.1316  0.0202 -0.5381
17253TIP3    H173250   0.382   4.918   1.154  0.3211  0.2023 -2.2652
17253TIP3    H273251   0.403   4.789   1.230 -0.7780  1.2391 -0.0931
17254TIP3   OH273252   2.453   2.120  17.032  0.0962 -0.1668  0.4530
17254TIP3    H173253   2.491   2.111  16.944 -0.1549  0.6279  0.2516
17254TIP3    H273254   2.500   2.056  17.085 -0.7405 -1.6906 -0.5748
17255TIP3   OH273255   2.462   0.299   3.162 -0.2626 -0.0981  0.2383
17255TIP3    H173256   2.492   0.354   3.234 -0.2353  0.2238 -0.0168
17255TIP3    H273257   2.523   0.318   3.091 -0.8584  0.2928 -0.1684
17256TIP3   OH273258   5.795   5.437   0.250 -0.5704  0.9158  0.2968
17256TIP3    H173259   5.784   5.505   0.183 -1.1660  0.8493  0.3245
17256TIP3    H273260   5.828   5.484   0.327  1.5147  0.7920 -0.4465
17257TIP3   OH273261   4.440   2.883  15.503 -0.4858  0.0144 -0.4100
17257TIP3    H173262   4.417   2.868  15.594  0.2245 -0.9038 -0.3693
17257TIP3    H273263   4.525   2.928  15.506 -0.6529  0.3499 -0.6139
17258TIP3   OH273264   0.603   6.418   4.601  0.6370  0.0930  0.5543
17258TIP3    H173265   0.687   6.373   4.601  1.6958  1.9403  1.6534
17258TIP3    H273266   0.572   6.412   4.511  1.5657 -1.2764  0.3007
17259TIP3   OH273267   0.581   1.318   3.468  0.8349 -0.3321  0.2868
17259TIP3    H173268   0.631   1.397   3.447  0.2722 -0.2871 -1.0023
17259TIP3    H273269   0.496   1.333   3.426  0.2806 -1.0742  1.1178
17260TIP3   OH273270   1.830   5.701   0.401  0.0315  0.0720  0.1706
17260TIP3    H173271   1.881   5.635   0.447 -1.0968 -0.1919  1.1041
17260TIP3    H273272   1.864   5.785   0.432  1.2064 -0.0432 -0.7241
17261TIP3   OH273273   4.580   6.642   0.799  1.0308 -0.7849 -0.1912
17261TIP3    H173274   4.634   6.702   0.749 -1.2126  1.8056  0.2289
17261TIP3    H273275   4.493   6.649   0.760 -0.1409 -0.8873  2.1795
17262TIP3   OH273276   4.222   0.190  11.887 -0.1809  0.9130 -0.7139
17262TIP3    H173277   4.171   0.191  11.968  0.8736  0.2409  0.0046
17262TIP3    H273278   4.173   0.133  11.828 -0.7141  1.0068 -0.3646
17263TIP3   OH273279   6.054   1.682  16.573  0.3940 -0.1209  0.7013
17263TIP3    H173280   6.008   1.765  16.568 -0.7680 -0.5359  3.0363
17263TIP3    H273281   6.102   1.687  16.656  3.6655 -0.2205 -1.0057
17264TIP3   OH273282   6.430   2.013  15.486  0.0455  0.0452 -0.2276
17264TIP3    H173283   6.387   1.971  15.560 -0.7391  1.1154 -0.0496
17264TIP3    H273284   6.362   2.019  15.418  0.4300  0.1173 -0.6133
17265TIP3   OH273285   0.707   6.576   4.232  0.0984 -0.0379 -0.2537
17265TIP3    H173286   0.739   6.549   4.146 -1.7383 -0.6929 -0.7911
17265TIP3    H273287   0.620   6.612   4.214  0.7835  2.3966  1.0132
17266TIP3   OH273288   0.568   0.487  15.109  0.0057  0.3968 -0.4365
17266TIP3    H173289   0.511   0.562  15.127  0.1433  0.7467 -1.4196
17266TIP3    H273290   0.507   0.417  15.084 -0.1476  0.0612  0.7872
17267TIP3   OH273291   3.074   0.805  15.208 -0.5987  0.2420  0.5473
17267TIP3    H173292   3.016   0.879  15.228  0.4049  0.8000  1.4923
17267TIP3    H273293   3.114   0.827  15.124 -2.3242 -0.5324 -0.5353
17268TIP3   OH273294   2.796   0.142   3.061 -0.3137  0.0440  0.1074
17268TIP3    H173295   2.754   0.058   3.044 -0.6346  0.4696 -1.4156
17268TIP3    H273296   2.880   0.137   3.017 -0.9411  1.0105 -1.2945
17269TIP3   OH273297   4.853   2.312   1.755  0.4555  1.0028 -0.0389
17269TIP3    H173298   4.802   2.288   1.677  0.0588  0.7318  0.3009
17269TIP3    H273299   4.924   2.247   1.758  0.0112  0.5265  0.2687
17270TIP3   OH273300   4.291   3.720   3.034  0.5773 -0.2178 -0.0264
17270TIP3    H173301   4.287   3.713   3.130 -1.3678  0.5288 -0.0241
17270TIP3    H273302   4.290   3.814   3.016  4.0995 -0.1772 -0.7584
17271TIP3   OH273303   2.066   3.648  11.704  0.2988 -0.2241 -0.7957
17271TIP3    H173304   2.087   3.650  11.611  2.8071  0.7847 -0.2872
17271TIP3    H273305   2.117   3.575  11.739 -0.3254 -0.3572 -0.1358
17272TIP3   OH273306   4.174   5.818  11.748  0.3470  0.0415 -0.1449
17272TIP3    H173307   4.266   5.843  11.754  0.6218 -0.6305 -1.1983
17272TIP3    H273308   4.159   5.762  11.824  1.2059 -0.9794 -0.6929
17273TIP3   OH273309   1.062   1.912  11.822  0.9177  0.0904  0.2967
17273TIP3    H173310   0.996   1.968  11.862 -0.8240 -0.9624 -0.9465
17273TIP3    H273311   1.052   1.926  11.728  2.8873  0.3008  0.0621
17274TIP3   OH273312   3.666   1.550  13.317  0.0666  0.0534  0.0663
17274TIP3    H173313   3.595   1.581  13.261  0.5555  1.4200  0.1532
17274TIP3    H273314   3.712   1.485  13.265  1.2809  2.1625 -1.6881
17275TIP3   OH273315   3.419   4.669   2.159  0.1380  0.4383 -0.1026
17275TIP3    H173316   3.393   4.581   2.131  0.0299  0.7806 -1.1282
17275TIP3    H273317   3.501   4.656   2.205 -0.4000 -0.3198  0.6765
17276TIP3   OH273318   2.253   5.672   3.367 -0.1849  0.0948  0.4202
17276TIP3    H173319   2.172   5.655   3.415  0.1918 -1.6911  0.4881
17276TIP3    H273320   2.316   5.698   3.435 -0.8736  2.3471  0.2690
17277TIP3   OH273321   0.076   1.941  12.932 -0.4366 -0.0430 -0.2381
17277TIP3    H173322   0.038   1.882  12.866 -1.7050  2.0792 -1.5238
17277TIP3    H273323   0.109   1.882  13.000 -3.1980 -2.2164 -0.5777
17278TIP3   OH273324   3.583   0.227  16.105  0.3615  0.3847 -0.2764
17278TIP3    H173325   3.635   0.245  16.026  0.7025 -0.0631 -0.1598
17278TIP3    H273326   3.497   0.203  16.072  0.7204 -0.5733 -0.5609
17279TIP3   OH273327   3.950   5.676  11.685 -0.3687 -0.5680 -0.0241
17279TIP3    H173328   3.999   5.595  11.701 -1.2222 -1.3153 -1.1049
17279TIP3    H273329   4.007   5.745  11.720  1.4100 -1.4078 -1.1063
17280TIP3   OH273330   1.987   5.757   2.123  0.3414 -0.7988  0.6339
17280TIP3    H173331   2.010   5.850   2.130 -0.0956 -0.7976  2.5494
17280TIP3    H273332   2.071   5.712   2.111  0.8478 -0.3444  2.2067
17281TIP3   OH273333   6.539   0.702  13.557 -0.1489  0.4296  0.1197
17281TIP3    H173334   6.523   0.649  13.635 -1.4949  0.2302 -0.2652
17281TIP3    H273335   6.596   0.648  13.503  1.4473  0.8876  1.2701
17282TIP3   OH273336   6.693   1.523  13.486 -0.0200 -0.2396  0.2799
17282TIP3    H173337   6.780   1.562  13.474 -0.6664  1.1551 -0.0797
17282TIP3    H273338   6.665   1.555  13.572  0.3347 -1.7500  0.9857
17283TIP3   OH273339   4.942   6.795   3.726 -0.3723 -0.1517 -0.3119
17283TIP3    H173340   4.946   6.707   3.764 -3.1131  0.2647  1.2105
17283TIP3    H273341   4.950   6.781   3.632 -0.4999 -2.0081 -0.0867
17284TIP3   OH273342   0.896   4.303  13.555  0.3009 -0.0115  0.1719
17284TIP3    H173343   0.867   4.343  13.637  0.0796  1.6229 -0.6549
17284TIP3    H273344   0.816   4.297  13.502  0.5777 -0.3203 -0.2107
17285TIP3   OH273345   0.375   2.425  16.103 -0.3809 -0.3796  0.5731
17285TIP3    H173346   0.425   2.505  16.112  1.0495 -1.2707  0.9117
17285TIP3    H273347   0.415   2.379  16.029 -0.6841 -1.1164  0.8509
17286TIP3   OH273348   4.042   6.738  13.968 -0.2078 -0.1342  0.4168
17286TIP3    H173349   4.120   6.757  14.021 -0.3474 -0.3209  0.6931
17286TIP3    H273350   4.011   6.654  14.001  0.0010 -0.5102 -0.3161
17287TIP3   OH273351   5.132   2.537   0.670  0.7175  0.3211 -0.3165
17287TIP3    H173352   5.224   2.564   0.661  0.3543  1.7164 -0.1757
17287TIP3    H273353   5.131   2.476   0.743  1.5966 -0.0699 -0.6176
17288TIP3   OH273354   0.706   4.098  10.256 -0.4314  0.1230 -0.0123
17288TIP3    H173355   0.663   4.182  10.241 -0.0341  0.7204  1.9457
17288TIP3    H273356   0.794   4.120  10.286  0.8279 -1.0774 -2.4899
17289TIP3   OH273357   1.378   1.796   5.151 -0.3659 -0.0870  0.3377
17289TIP3    H173358   1.284   1.812   5.163 -0.3987  0.7330 -0.8383
17289TIP3    H273359   1.383   1.740   5.073 -0.0134 -2.7674  2.1602
17290TIP3   OH273360   5.362   0.612  12.410 -0.0240 -0.1648 -0.0894
17290TIP3    H173361   5.306   0.674  12.455  0.0812 -0.1178 -0.0226
17290TIP3    H273362   5.375   0.649  12.323 -0.9956 -0.7179 -0.4860
17291TIP3   OH273363   5.456   5.233  15.765 -0.1535  0.4909 -0.1850
17291TIP3    H173364   5.476   5.229  15.858  1.9810  2.1269 -0.4859
17291TIP3    H273365   5.448   5.142  15.737  1.7556 -0.1324  1.1231
17292TIP3   OH273366   3.919   3.264  13.354 -0.4120  1.5888 -0.4665
17292TIP3    H173367   3.975   3.204  13.306 -1.3145  1.3005 -1.1950
17292TIP3    H273368   3.976   3.337  13.378  0.4847  0.8635 -0.3424
17293TIP3   OH273369   6.503   3.302   0.915  0.6230 -0.5306  0.7066
17293TIP3    H173370   6.451   3.291   0.836  1.3334 -0.8068  0.2661
17293TIP3    H273371   6.592   3.320   0.883  0.1750  3.8457  1.3048
17294TIP3   OH273372   6.473   6.111  14.865  0.6774 -0.2864  0.0044
17294TIP3    H173373   6.531   6.037  14.845  0.8135 -0.3901  0.7440
17294TIP3    H273374   6.389   6.087  14.826  0.3754 -1.4048  1.2849
17295TIP3   OH273375   0.292   1.617  15.275 -0.4359 -0.3621  0.3119
17295TIP3    H173376   0.241   1.641  15.352  0.7647 -0.0426  1.0454
17295TIP3    H273377   0.358   1.686  15.268 -1.1700  0.1996 -1.6557
17296TIP3   OH273378   3.140   2.027   4.266  0.5764  0.4468 -0.6746
17296TIP3    H173379   3.187   2.013   4.348  5.0415  1.2888 -2.7975
17296TIP3    H273380   3.115   2.119   4.267 -0.8995  0.0748  0.3199
17297TIP3   OH273381   3.421   6.026  13.051 -0.4023 -0.7433  0.9140
17297TIP3    H173382   3.482   6.022  12.978 -0.7160 -0.5275  0.6370
17297TIP3    H273383   3.341   5.985  13.018 -0.0212 -2.1681  1.6774
17298TIP3   OH273384   2.432   2.529   1.131  0.4661 -0.6448 -0.4927
17298TIP3    H173385   2.487   2.538   1.208 -1.2702  0.4260  0.6880
17298TIP3    H273386   2.426   2.435   1.116 -0.7143 -1.0444  1.9211
17299TIP3   OH273387   4.275   4.575   2.932 -0.2938 -0.1289  0.1243
17299TIP3    H173388   4.307   4.543   2.848  1.9336  0.8274  0.5448
17299TIP3    H273389   4.330   4.531   2.997  0.6226  1.9936  0.8514
17300TIP3   OH273390   0.045   3.638  13.187 -0.4268 -0.1051  0.5439
17300TIP3    H173391   0.008   3.630  13.098  0.0760 -1.3728  0.4334
17300TIP3    H273392   0.035   3.731  13.208  1.0295  0.6071 -1.5443
17301TIP3   OH273393   0.520   3.565  14.907  0.0728 -0.3715  0.3156
17301TIP3    H173394   0.594   3.561  14.968  0.2692 -1.5713  0.0208
17301TIP3    H273395   0.445   3.585  14.962  0.5910  0.8300  0.6287
17302TIP3   OH273396   5.438   3.934  13.216 -0.0294  0.5586  0.3164
17302TIP3    H173397   5.496   3.927  13.292  1.5445  1.2880 -0.7604
17302TIP3    H273398   5.410   3.844  13.199  1.0408  0.1341  0.6901
17303TIP3   OH273399   0.467   2.761  12.977 -0.0168  0.1456  0.2410
17303TIP3    H173400   0.480   2.796  12.889  1.0087 -0.2867  0.2106
17303TIP3    H273401   0.401   2.692  12.965  0.3644 -0.1425 -0.2542
17304TIP3   OH273402   6.512   0.490   2.449  0.0769  0.2549  0.3238
17304TIP3    H173403   6.425   0.506   2.486 -0.1092 -0.6693  0.3130
17304TIP3    H273404   6.572   0.510   2.520 -0.2256 -0.4702  0.7957
17305TIP3   OH273405   6.571   5.803   4.337 -0.1019  0.5099 -0.7764
17305TIP3    H173406   6.507   5.853   4.285 -1.0062 -1.6363 -1.8653
17305TIP3    H273407   6.533   5.716   4.343  1.7481 -0.2643  0.4484
17306TIP3   OH273408   0.496   3.818   3.866  0.2409 -0.1138  0.1571
17306TIP3    H173409   0.495   3.901   3.913  1.2654  0.2844 -0.5047
17306TIP3    H273410   0.460   3.755   3.929  0.6754  0.5767  1.1221
17307TIP3   OH273411   3.656   6.144  12.326  0.7361  0.1814 -0.0809
17307TIP3    H173412   3.628   6.054  12.347  2.2035 -0.2938 -0.0269
17307TIP3    H273413   3.629   6.195  12.402 -3.6003  0.6546 -1.6601
17308TIP3   OH273414   3.573   4.037  12.460 -0.5058  0.3920 -0.6474
17308TIP3    H173415   3.626   4.057  12.383  0.8976  0.7905  0.3765
17308TIP3    H273416   3.614   4.087  12.531  0.4200 -2.5350  1.0942
17309TIP3   OH273417   0.488   5.149  15.216 -0.3028  0.2632 -0.4596
17309TIP3    H173418   0.441   5.216  15.167  0.4005  1.4213  0.3958
17309TIP3    H273419   0.571   5.139  15.170  0.2951  1.2427  0.3599
17310TIP3   OH273420   3.011   5.005   3.336 -0.3729 -0.3015 -0.0802
17310TIP3    H173421   2.980   5.028   3.424  0.5110 -0.9482  0.4220
17310TIP3    H273422   3.053   4.920   3.348 -0.7637 -0.6769 -1.2603
17311TIP3   OH273423   3.749   0.429   6.403  0.1754  0.2340  0.3588
17311TIP3    H173424   3.710   0.343   6.422 -0.6252  0.6117  0.4689
17311TIP3    H273425   3.839   0.422   6.434 -0.2840 -0.1224  1.6642
17312TIP3   OH273426   3.580   3.326  14.248  0.3148 -0.2884 -0.2126
17312TIP3    H173427   3.577   3.231  14.256  0.1216 -0.2904 -0.2861
17312TIP3    H273428   3.585   3.341  14.153 -1.3239 -0.1983 -0.3211
17313TIP3   OH273429   6.412   3.910  13.732  0.5100  0.9972  0.0617
17313TIP3    H173430   6.390   3.853  13.658  0.9145  1.4834 -0.4396
17313TIP3    H273431   6.378   3.996  13.707  0.4550  1.1162  0.5380
17314TIP3   OH273432   0.896   1.152  10.783  0.3414 -0.2371  0.0802
17314TIP3    H173433   0.836   1.080  10.763  0.1244  0.5313 -2.4298
17314TIP3    H273434   0.849   1.204  10.849  0.3254 -2.0998  1.6114
17315TIP3   OH273435   5.632   6.804   6.107 -0.4146  0.5219 -0.1229
17315TIP3    H173436   5.652   6.756   6.187  0.4736 -0.2241 -0.7783
17315TIP3    H273437   5.550   6.849   6.126 -0.1547  0.4413  1.2412
17316TIP3   OH273438   2.412   2.823   0.602 -0.6358  0.1748  0.4283
17316TIP3    H173439   2.501   2.799   0.629 -0.6665  0.1446  0.5025
17316TIP3    H273440   2.422   2.851   0.511 -0.6186 -0.2450  0.2964
17317TIP3   OH273441   6.246   4.510  16.774  0.2469  0.4334  0.0948
17317TIP3    H173442   6.223   4.447  16.843  0.6974 -0.4508 -0.5350
17317TIP3    H273443   6.271   4.455  16.699 -0.9776  1.3575 -1.0368
17318TIP3   OH273444   6.549   6.156   4.417  0.0700  0.1560  0.2242
17318TIP3    H173445   6.548   6.144   4.322  1.0408 -0.5827  0.2900
17318TIP3    H273446   6.504   6.239   4.431  0.8130  0.7892 -0.9667
17319TIP3   OH273447   2.195   0.499  13.157  0.4624 -0.4396 -0.8737
17319TIP3    H173448   2.283   0.506  13.195 -0.1217  1.2007  0.3619
17319TIP3    H273449   2.139   0.479  13.232 -0.7857  3.2509 -0.6132
17320TIP3   OH273450   6.784   0.699  11.526 -0.1815  0.0322 -0.1597
17320TIP3    H173451   6.691   0.713  11.540 -0.6874  2.3330 -4.2867
17320TIP3    H273452   6.818   0.786  11.506  3.2189 -0.5251  2.2507
17321TIP3   OH273453   6.099   2.934  15.295 -0.2993  0.3214  0.3508
17321TIP3    H173454   6.177   2.967  15.339  0.8796  0.4816 -1.7129
17321TIP3    H273455   6.132   2.871  15.231 -1.6629  1.4673 -1.5928
17322TIP3   OH273456   5.540   4.528   1.748 -0.2411  0.2268  0.1967
17322TIP3    H173457   5.583   4.537   1.834  0.2637 -1.6167  0.1791
17322TIP3    H273458   5.559   4.610   1.703  0.5061  0.7488  1.4080
17323TIP3   OH273459   5.770   1.368   4.056  0.5137  0.4652 -0.2030
17323TIP3    H173460   5.844   1.424   4.034  0.2694 -0.0018 -2.5112
17323TIP3    H273461   5.807   1.280   4.061  0.8896  0.6997  3.3622
17324TIP3   OH273462   0.430   1.827  16.280 -0.7333  0.2216  0.3971
17324TIP3    H173463   0.443   1.877  16.199  0.1132 -1.1059 -0.3082
17324TIP3    H273464   0.366   1.879  16.329 -1.3460  1.0050 -1.1571
17325TIP3   OH273465   3.837   5.738  12.441 -0.0983  0.0609  0.0015
17325TIP3    H173466   3.867   5.816  12.487 -1.1573  0.5832 -0.1530
17325TIP3    H273467   3.917   5.695  12.411  0.4780  1.5487 -0.6727
17326TIP3   OH273468   3.779   0.998   5.400  1.0507 -0.6447 -0.5155
17326TIP3    H173469   3.861   0.988   5.351  1.7242 -0.5495  0.5524
17326TIP3    H273470   3.766   1.093   5.404  0.4752 -0.6804 -1.3249
17327TIP3   OH273471   2.019   5.853  15.143 -0.2525  0.3390 -0.2319
17327TIP3    H173472   1.938   5.877  15.099 -0.5496 -0.1896  0.0205
17327TIP3    H273473   2.032   5.761  15.122  0.3424  0.4525 -0.3639
17328TIP3   OH273474   1.569   6.725   3.659  0.2854  0.3311 -0.1154
17328TIP3    H173475   1.546   6.664   3.588  1.5995 -1.5338  0.9685
17328TIP3    H273476   1.485   6.751   3.696 -0.3167 -1.3483 -0.2251
17329TIP3   OH273477   1.642   3.277  10.304  0.0707 -0.2467  0.1165
17329TIP3    H173478   1.633   3.351  10.364  0.4634 -0.0961 -0.0056
17329TIP3    H273479   1.591   3.207  10.344 -1.2664  0.4397 -0.3432
17330TIP3   OH273480   3.191   5.845  11.396  0.2939 -0.4550  0.6007
17330TIP3    H173481   3.265   5.861  11.338  0.6360 -1.4162  0.7441
17330TIP3    H273482   3.114   5.868  11.344  0.5735 -1.6224 -0.3826
17331TIP3   OH273483   3.636   0.799   2.443  0.0933 -0.8949 -0.0924
17331TIP3    H173484   3.689   0.876   2.462  0.5486 -0.8981 -1.2821
17331TIP3    H273485   3.561   0.832   2.394 -0.1024 -1.1261  0.0426
17332TIP3   OH273486   3.157   2.188  11.609  0.0468  0.3650  0.7241
17332TIP3    H173487   3.194   2.101  11.625 -0.5093  0.4886  3.0363
17332TIP3    H273488   3.196   2.216  11.526  0.3321 -2.0200 -0.0051
17333TIP3   OH273489   3.311   6.718   0.464 -0.2718 -0.6908 -0.2312
17333TIP3    H173490   3.273   6.772   0.394  2.3774 -0.2060 -1.4110
17333TIP3    H273491   3.270   6.751   0.544  0.1950  2.2109 -1.0547
17334TIP3   OH273492   0.926   0.877  16.204  0.2692 -0.1855  0.2057
17334TIP3    H173493   0.840   0.906  16.174 -0.0013  0.1022  1.1949
17334TIP3    H273494   0.937   0.790  16.166 -0.3642 -0.1375 -0.1055
17335TIP3   OH273495   5.522   6.452  14.140  0.0713 -0.1465 -0.3866
17335TIP3    H173496   5.537   6.501  14.221 -0.1187  0.4601 -0.7110
17335TIP3    H273497   5.508   6.519  14.074 -1.3611 -0.6415 -0.6210
17336TIP3   OH273498   5.949   5.035  15.339  0.4212  0.2005 -0.6215
17336TIP3    H173499   5.933   5.126  15.315 -1.0915 -0.1271 -0.9634
17336TIP3    H273500   5.865   5.004  15.375  0.6489 -1.2817 -1.2692
17337TIP3   OH273501   0.178   2.495  16.290 -0.4216 -0.0452  0.0400
17337TIP3    H173502   0.099   2.513  16.240  0.1729  0.1363 -0.8367
17337TIP3    H273503   0.244   2.469  16.225 -0.0824 -1.3824  0.8553
17338TIP3   OH273504   4.746   3.904   1.229  0.7474 -0.3278 -0.6486
17338TIP3    H173505   4.715   3.937   1.145  0.3120 -0.6212 -0.6122
17338TIP3    H273506   4.723   3.972   1.292 -1.6461 -1.3216 -0.3112
17339TIP3   OH273507   6.058   3.520  12.752 -0.3204  0.1534  0.0282
17339TIP3    H173508   6.107   3.558  12.825  0.8475  1.2057 -1.2285
17339TIP3    H273509   6.108   3.546  12.674  0.3114 -3.6268 -1.0058
17340TIP3   OH273510   4.352   1.602  11.912  0.6692 -0.7298  0.1416
17340TIP3    H173511   4.304   1.549  11.976 -2.8093  1.4773 -0.3215
17340TIP3    H273512   4.301   1.594  11.832  0.4444  2.4451 -0.1882
17341TIP3   OH273513   2.159   5.157  13.845 -0.7042  0.0561  0.5471
17341TIP3    H173514   2.099   5.202  13.785 -0.6524 -0.2556  0.2607
17341TIP3    H273515   2.113   5.077  13.869 -1.1743  0.6609  1.7433
17342TIP3   OH273516   1.977   5.285   0.226  0.1923 -0.6309  0.6376
17342TIP3    H173517   1.948   5.320   0.142  0.7810  2.1673  1.4990
17342TIP3    H273518   1.899   5.288   0.282  0.2689 -0.5968  0.7445
17343TIP3   OH273519   5.080   6.625   4.518 -0.0315 -0.3408 -0.0146
17343TIP3    H173520   4.993   6.657   4.539 -0.0735 -0.7053  0.3746
17343TIP3    H273521   5.068   6.533   4.495  0.4703 -0.9056  1.8159
17344TIP3   OH273522   1.844   2.577  13.068 -0.2847  0.2413  0.7818
17344TIP3    H173523   1.782   2.560  12.998  0.4963  0.5343 -0.0015
17344TIP3    H273524   1.929   2.554  13.031  0.1336  0.3009  1.6670
17345TIP3   OH273525   2.327   3.753  15.404  0.3865  0.2866 -0.5153
17345TIP3    H173526   2.381   3.698  15.347  0.4172 -0.0403 -0.1740
17345TIP3    H273527   2.246   3.703  15.415  0.5102  0.1888 -0.0035
17346TIP3   OH273528   4.148   2.369   1.666  0.3164  0.0290  0.4041
17346TIP3    H173529   4.213   2.355   1.598 -1.5429 -0.2912 -1.4329
17346TIP3    H273530   4.168   2.455   1.701  1.7429 -0.0846 -0.0715
17347TIP3   OH273531   6.461   3.223  15.503 -0.5149 -0.2416  0.5372
17347TIP3    H173532   6.533   3.159  15.498 -0.6247 -0.2827 -1.1039
17347TIP3    H273533   6.484   3.290  15.438 -0.6096  1.2063  1.9436
17348TIP3   OH273534   0.583   4.543   1.749 -0.5956 -0.3393  0.1425
17348TIP3    H173535   0.678   4.549   1.737 -0.3679  0.1599  1.8734
17348TIP3    H273536   0.566   4.450   1.761 -0.7023 -0.7334 -2.6323
17349TIP3   OH273537   3.419   0.090   6.515 -0.5410 -0.0106  0.1780
17349TIP3    H173538   3.446   0.059   6.429 -0.2543  2.3264 -0.6498
17349TIP3    H273539   3.491   0.146   6.545 -0.4893 -1.0166  2.1045
17350TIP3   OH273540   1.439   5.290  11.600  0.5410 -0.2886 -0.5613
17350TIP3    H173541   1.531   5.262  11.606  0.2470 -1.1572  0.0097
17350TIP3    H273542   1.422   5.335  11.682 -0.2812 -2.4650  0.5557
17351TIP3   OH273543   2.702   5.371   5.267  0.1441  0.2660 -0.1097
17351TIP3    H173544   2.710   5.455   5.313  3.3214  0.9051 -1.5857
17351TIP3    H273545   2.755   5.310   5.319  2.4662  0.6192 -1.9185
17352TIP3   OH273546   6.771   3.610   3.446  0.0453  0.4863  0.4912
17352TIP3    H173547   6.809   3.697   3.439  3.3205 -0.6773  1.6873
17352TIP3    H273548   6.746   3.601   3.538  2.7007 -0.7750  1.2014
17353TIP3   OH273549   2.901   0.037   5.614 -0.3723  0.1504  0.5633
17353TIP3    H173550   2.818   0.077   5.641 -0.0672  0.4165  1.1236
17353TIP3    H273551   2.937  -0.000   5.695 -0.8050 -1.5657  0.0051
17354TIP3   OH273552   1.484   2.423   4.583 -0.7467 -0.1686  0.1272
17354TIP3    H173553   1.512   2.478   4.656 -2.6698  1.5711 -0.3407
17354TIP3    H273554   1.444   2.346   4.625 -1.2177  0.4798  0.8856
17355TIP3   OH273555   3.424   5.044  16.019 -0.1660  0.2302  0.0503
17355TIP3    H173556   3.435   5.124  15.968  0.4302  0.4874  0.5632
17355TIP3    H273557   3.486   5.053  16.091 -0.0289 -0.7311  0.0680
17356TIP3   OH273558   3.286   2.259  15.607  0.1808 -0.0948  0.1042
17356TIP3    H173559   3.330   2.181  15.574 -0.1754  0.0194 -0.6534
17356TIP3    H273560   3.356   2.310  15.648  0.5906 -0.3565 -0.2597
17357TIP3   OH273561   3.063   5.601  11.378 -0.7308 -0.5921  0.0841
17357TIP3    H173562   3.118   5.678  11.392  0.7251 -1.4056 -0.9283
17357TIP3    H273563   3.009   5.596  11.457 -0.4523  1.1181  0.4281
17358TIP3   OH273564   4.510   4.243  13.179  0.1107 -0.1909  0.5613
17358TIP3    H173565   4.416   4.229  13.191  0.4702 -4.2207  0.2978
17358TIP3    H273566   4.531   4.196  13.098  2.6689 -1.8866  2.0541
17359TIP3   OH273567   3.176   0.927  12.476  0.2673  0.5003 -0.1345
17359TIP3    H173568   3.245   0.874  12.437 -0.5383  0.4415 -1.5320
17359TIP3    H273569   3.145   0.982  12.405 -0.8503  0.8175  0.5758
17360TIP3   OH273570   1.192   5.975   2.924  0.0422 -0.4584 -0.1494
17360TIP3    H173571   1.191   5.928   2.840  1.3244 -2.6937  0.9887
17360TIP3    H273572   1.135   5.922   2.981 -0.5003  0.8129  0.5315
17361TIP3   OH273573   5.337   6.700  15.871 -0.3076 -0.0063  0.2001
17361TIP3    H173574   5.387   6.623  15.842  0.3350 -0.6739  2.7948
17361TIP3    H273575   5.376   6.722  15.955  1.0921  4.6601 -1.3746
17362TIP3   OH273576   4.708   0.484  15.204  0.2089 -0.2202 -0.6808
17362TIP3    H173577   4.706   0.431  15.124 -0.2557  0.4970 -1.1497
17362TIP3    H273578   4.692   0.420  15.274 -1.3875 -0.5758 -1.3134
17363TIP3   OH273579   4.508   4.654  14.733  0.3540  0.2331  0.0110
17363TIP3    H173580   4.485   4.562  14.750 -0.9053  0.4875 -0.1642
17363TIP3    H273581   4.460   4.675  14.652  1.8696  0.6076 -0.8208
17364TIP3   OH273582   1.807   0.692   6.060  0.0900  0.5562 -0.0077
17364TIP3    H173583   1.725   0.740   6.062 -0.5726 -0.5252  1.7757
17364TIP3    H273584   1.841   0.698   6.150 -0.0241 -2.1913  0.3223
17365TIP3   OH273585   4.399   3.536   1.822 -0.4933 -0.3929  0.7146
17365TIP3    H173586   4.423   3.460   1.875 -0.2406 -1.0519 -0.3193
17365TIP3    H273587   4.352   3.500   1.748  0.8995  0.3011 -0.5589
17366TIP3   OH273588   6.404   4.566   4.245 -0.1226 -0.0927  0.5210
17366TIP3    H173589   6.404   4.484   4.294 -0.8391 -0.0045  0.6759
17366TIP3    H273590   6.335   4.618   4.285 -0.2268  0.2693 -0.1121
17367TIP3   OH273591   0.386   2.646  11.383 -0.5031  0.2616 -0.2788
17367TIP3    H173592   0.402   2.557  11.413  1.7202  0.3912 -0.8676
17367TIP3    H273593   0.463   2.695  11.412 -0.3095  1.3364 -2.3938
17368TIP3   OH273594   5.028   5.753   5.767  0.0394 -0.5258 -0.2050
17368TIP3    H173595   4.942   5.715   5.750 -0.1667  0.2736 -1.0148
17368TIP3    H273596   5.043   5.738   5.861 -0.2839 -2.0433 -0.3647
17369TIP3   OH273597   1.024   5.767  12.907  0.1485 -0.3574 -0.3506
17369TIP3    H173598   1.099   5.743  12.961 -0.6630 -1.5176  0.3134
17369TIP3    H273599   1.061   5.783  12.820  1.3445  0.6109  0.3091
17370TIP3   OH273600   2.697   2.682  10.159 -0.1379 -0.8097  0.3349
17370TIP3    H173601   2.651   2.755  10.116  2.2259  0.0619 -0.9294
17370TIP3    H273602   2.642   2.606  10.142 -0.5792 -0.0426 -2.1924
17371TIP3   OH273603   0.118   5.737   2.075 -0.4516 -0.1798  0.7449
17371TIP3    H173604   0.158   5.771   1.995 -0.2141 -0.9576  0.5247
17371TIP3    H273605   0.093   5.815   2.125  2.6654  0.4085  1.6071
17372TIP3   OH273606   4.801   3.301  17.092  0.0230  0.3189  0.3611
17372TIP3    H173607   4.880   3.342  17.055 -0.1205  0.1662 -0.1202
17372TIP3    H273608   4.729   3.333  17.038 -0.2016  0.1737  0.5708
17373TIP3   OH273609   0.642   0.186  14.706 -0.2888 -0.0404  0.6886
17373TIP3    H173610   0.593   0.252  14.657 -0.3536  0.3099  1.2171
17373TIP3    H273611   0.645   0.110  14.648 -0.8698  0.1671  0.3816
17374TIP3   OH273612   4.853   1.513  15.307  0.5771 -0.0504  0.1711
17374TIP3    H173613   4.791   1.473  15.247  1.7791 -1.9152  0.0820
17374TIP3    H273614   4.803   1.525  15.388 -0.2906 -0.1411 -0.3403
17375TIP3   OH273615   4.839   6.375  12.264  0.1213 -0.0319 -0.6059
17375TIP3    H173616   4.795   6.324  12.195 -0.5593 -1.0692  0.5473
17375TIP3    H273617   4.916   6.412  12.220  0.2737 -1.5046 -1.6881
17376TIP3   OH273618   0.797   4.074   5.409  0.2994  0.1548 -0.0281
17376TIP3    H173619   0.787   4.015   5.483  0.9522 -0.5019 -0.4480
17376TIP3    H273620   0.853   4.145   5.443  0.2699  0.0635  0.2146
17377TIP3   OH273621   6.676   2.108  12.586 -0.1210  0.3047  0.0942
17377TIP3    H173622   6.602   2.162  12.556 -0.1695 -0.9970 -2.3619
17377TIP3    H273623   6.639   2.021  12.596  1.0073 -0.3154 -0.9494
17378TIP3   OH273624   1.666   5.237  13.662  0.3265 -0.7338 -0.4863
17378TIP3    H173625   1.576   5.251  13.632 -0.6651 -1.7750  1.7657
17378TIP3    H273626   1.680   5.307  13.726  1.2167 -0.4892 -0.9353
17379TIP3   OH273627   6.214   3.876   1.032  0.5550  0.2309 -0.6886
17379TIP3    H173628   6.163   3.939   1.085  0.0610  0.4854 -1.4496
17379TIP3    H273629   6.255   3.930   0.965 -2.0397 -0.5151 -3.0536
17380TIP3   OH273630   6.407   5.360   5.117  0.2726 -1.0795  0.0617
17380TIP3    H173631   6.352   5.378   5.041  0.2283 -2.8616 -0.3657
17380TIP3    H273632   6.495   5.383   5.088  0.2296 -1.5680 -0.4845
17381TIP3   OH273633   0.780   4.621  14.384 -0.6446 -0.4514  0.1713
17381TIP3    H173634   0.800   4.549  14.323 -2.2945 -1.0019  0.2536
17381TIP3    H273635   0.732   4.580  14.455 -0.1593  0.4781  1.0589
17382TIP3   OH273636   5.476   0.278  11.648  0.0237 -0.3192  0.6929
17382TIP3    H173637   5.490   0.354  11.592  1.3499  1.1840  2.9214
17382TIP3    H273638   5.386   0.289  11.681  0.0131 -0.0391  0.5699
17383TIP3   OH273639   2.938   1.708  10.870 -0.4244  0.1330 -0.2656
17383TIP3    H173640   2.973   1.706  10.781  1.1765  0.3790  0.3120
17383TIP3    H273641   2.946   1.618  10.901  0.4491  0.3310  0.1205
17384TIP3   OH273642   2.320   2.440  16.900  0.3650 -0.3220  0.0700
17384TIP3    H173643   2.272   2.380  16.843  0.9614 -0.2760 -0.4927
17384TIP3    H273644   2.253   2.490  16.946 -0.1472 -1.4877  0.6165
17385TIP3   OH273645   5.463   0.777   5.201 -0.5588 -0.4166  0.3745
17385TIP3    H173646   5.513   0.822   5.269  1.3532  1.3649 -2.0266
17385TIP3    H273647   5.381   0.826   5.196 -0.2979  0.0633  0.7031
17386TIP3   OH273648   5.207   3.271  14.971 -0.2854 -0.0700  0.0855
17386TIP3    H173649   5.238   3.195  15.020 -0.5953 -0.8503 -0.9132
17386TIP3    H273650   5.267   3.278  14.897 -0.2974  0.6282  0.1374
17387TIP3   OH273651   3.345   5.291   6.345 -0.8087 -0.6581 -0.2653
17387TIP3    H173652   3.393   5.341   6.410 -1.6868 -0.3857  0.1924
17387TIP3    H273653   3.380   5.202   6.351  1.2431 -0.0050 -1.5580
17388TIP3   OH273654   3.284   6.285   0.904 -0.0840  0.1568  0.0374
17388TIP3    H173655   3.235   6.202   0.906 -1.5040  0.9490 -0.1649
17388TIP3    H273656   3.292   6.304   0.810 -0.3939  0.5848  0.0947
17389TIP3   OH273657   2.327   0.475   3.338  0.0770  0.3905 -0.4108
17389TIP3    H173658   2.391   0.546   3.340  0.1950  0.2795  1.4916
17389TIP3    H273659   2.353   0.417   3.409 -1.4431 -0.2829 -0.3646
17390TIP3   OH273660   4.326   5.344  15.570 -0.0304 -0.4149  0.0125
17390TIP3    H173661   4.394   5.281  15.546 -0.8395 -0.9606 -0.9249
17390TIP3    H273662   4.295   5.378  15.486  0.2147  1.0615  0.4978
17391TIP3   OH273663   6.313   1.635   1.024 -0.5308 -0.0310 -0.4550
17391TIP3    H173664   6.255   1.703   0.990 -1.3170  0.6954  2.1363
17391TIP3    H273665   6.390   1.683   1.055 -0.7178 -0.4145  0.6124
17392TIP3   OH273666   2.526   0.400  14.598 -0.3885  0.2718 -0.2690
17392TIP3    H173667   2.556   0.330  14.656  0.1568  0.4295 -0.3581
17392TIP3    H273668   2.438   0.373  14.572 -0.8076  0.4043  0.9616
17393TIP3   OH273669   1.110   2.535  15.357  0.2768 -0.0399 -0.0995
17393TIP3    H173670   1.189   2.590  15.359 -0.8571  1.6433  0.1760
17393TIP3    H273671   1.117   2.487  15.274  0.8177  1.2697 -0.8461
17394TIP3   OH273672   0.730   2.796  13.504 -0.5131 -0.1305 -0.6299
17394TIP3    H173673   0.715   2.886  13.475 -2.1954 -0.5202 -1.0966
17394TIP3    H273674   0.648   2.750  13.485 -0.2792 -1.3921  1.0726
17395TIP3   OH273675   4.280   3.156   1.514 -0.3260 -0.0191  0.6582
17395TIP3    H173676   4.254   3.232   1.566 -1.0171 -1.6267  2.8040
17395TIP3    H273677   4.361   3.126   1.555  0.1172 -0.2616 -0.3765
17396TIP3   OH273678   1.464   5.551  15.275  0.4240 -0.1961  0.4933
17396TIP3    H173679   1.400   5.611  15.237  0.6095 -0.3632 -0.0787
17396TIP3    H273680   1.419   5.515  15.352  0.1742  0.3830  0.6238
17397TIP3   OH273681   2.542   6.641   4.586 -0.5614  0.8729 -0.2449
17397TIP3    H173682   2.633   6.648   4.555 -0.3831 -0.8321 -0.2139
17397TIP3    H273683   2.549   6.644   4.682 -0.7220  2.3395 -0.2624
17398TIP3   OH273684   5.555   1.613   3.093 -0.0310 -0.4526 -0.1194
17398TIP3    H173685   5.563   1.703   3.062  0.9167  0.3871  2.3177
17398TIP3    H273686   5.563   1.620   3.188  0.5845 -3.1705  0.0977
17399TIP3   OH273687   4.574   2.392   2.563  0.5986  0.3807 -0.4589
17399TIP3    H173688   4.582   2.418   2.472 -2.1288 -0.5835 -1.0520
17399TIP3    H273689   4.647   2.331   2.578  0.0267 -0.8957 -2.5606
17400TIP3   OH273690   0.458   6.242   1.145 -0.2576  0.9615  0.5591
17400TIP3    H173691   0.395   6.248   1.217  0.8900 -0.6435  1.7861
17400TIP3    H273692   0.539   6.276   1.181  0.6204 -0.8822  0.4291
17401TIP3   OH273693   3.846   2.597  11.129 -0.3703 -0.0999 -0.3412
17401TIP3    H173694   3.845   2.548  11.047 -2.1285  0.1944 -0.5415
17401TIP3    H273695   3.936   2.626  11.139  0.5958 -2.7544 -0.5728
17402TIP3   OH273696   1.453   4.499   0.658 -0.0238  0.1648 -0.7027
17402TIP3    H173697   1.513   4.555   0.707  0.2545 -0.3372 -0.4594
17402TIP3    H273698   1.432   4.549   0.579 -1.6170  1.6411  0.5582
17403TIP3   OH273699   5.226   3.182   1.405  0.5529  0.2090 -0.0813
17403TIP3    H173700   5.303   3.238   1.393  0.0514  0.6342 -1.5289
17403TIP3    H273701   5.152   3.242   1.410  0.0608 -0.2671 -1.1626
17404TIP3   OH273702   3.104   5.097  15.431  0.5638 -0.2727 -0.0456
17404TIP3    H173703   3.048   5.021  15.417  0.9966 -0.6901  0.4336
17404TIP3    H273704   3.188   5.071  15.393  1.0189 -0.4464  1.0434
17405TIP3   OH273705   3.333   4.347   3.771 -0.2636 -0.1876  0.0098
17405TIP3    H173706   3.297   4.397   3.844  0.4995 -0.5189  0.6178
17405TIP3    H273707   3.352   4.412   3.704 -1.5868  0.0505 -0.1730
17406TIP3   OH273708   5.449   4.279  11.143 -0.0589  0.0343 -0.0746
17406TIP3    H173709   5.515   4.346  11.120 -0.0096 -0.0521 -0.1854
17406TIP3    H273710   5.415   4.250  11.059  1.5331 -1.7096 -0.1827
17407TIP3   OH273711   0.974   4.063  11.597 -0.3096 -0.1591  0.5808
17407TIP3    H173712   0.946   4.154  11.609  1.6726  0.7909 -1.4022
17407TIP3    H273713   0.919   4.030  11.526 -0.1822 -0.1108  0.4598
17408TIP3   OH273714   6.010   0.693   4.005  0.5430 -0.6596 -1.0979
17408TIP3    H173715   5.999   0.774   3.955 -1.2074 -0.2311 -0.1316
17408TIP3    H273716   6.039   0.723   4.091  0.7028 -1.1228 -0.9915
17409TIP3   OH273717   1.242   6.392  12.355  0.3513  0.9199  0.1947
17409TIP3    H173718   1.199   6.416  12.272  0.6837  0.2092 -0.1956
17409TIP3    H273719   1.180   6.418  12.422 -0.3436  0.6504 -0.3265
17410TIP3   OH273720   5.900   4.870  13.935 -0.4215 -0.0278  0.1838
17410TIP3    H173721   5.854   4.920  14.003 -0.3548  0.2536  0.0216
17410TIP3    H273722   5.939   4.797  13.983  1.3966  1.2957  0.8270
17411TIP3   OH273723   3.629   1.620  15.695  0.0624  0.1187 -0.5403
17411TIP3    H173724   3.578   1.628  15.614 -0.0704 -0.3971 -0.5102
17411TIP3    H273725   3.655   1.528  15.699 -1.8261 -0.4081  1.1299
17412TIP3   OH273726   1.003   5.196  17.083  0.0830 -0.0910  0.1764
17412TIP3    H173727   0.920   5.244  17.084  0.4757  0.5911  0.0072
17412TIP3    H273728   1.002   5.145  17.165  0.1688  1.0814  0.9210
17413TIP3   OH273729   6.090   6.820  14.575 -0.6849 -0.1985 -0.4224
17413TIP3    H173730   6.082   6.756  14.645 -1.1250 -0.7266 -0.9461
17413TIP3    H273731   6.038   6.785  14.503  0.2226  0.0316 -1.2296
17414TIP3   OH273732   3.284   4.349   1.179 -0.5422 -0.1584 -0.4987
17414TIP3    H173733   3.372   4.318   1.203 -0.7052  0.2196  0.6642
17414TIP3    H273734   3.291   4.371   1.086  0.6663  0.0633 -0.3808
17415TIP3   OH273735   5.736   2.531  14.031  0.4258  0.2686 -0.0684
17415TIP3    H173736   5.822   2.506  14.065  0.8810 -0.1635 -1.4539
17415TIP3    H273737   5.677   2.524  14.106  1.5992  0.6167  0.9151
17416TIP3   OH273738   6.469   4.263  13.214 -0.2137  0.5622 -0.7839
17416TIP3    H173739   6.564   4.266  13.201 -0.2603  0.3482 -1.2123
17416TIP3    H273740   6.436   4.216  13.137 -0.7882  1.6589 -1.2335
17417TIP3   OH273741   4.577   3.635  15.263 -0.3038 -0.1385  0.5604
17417TIP3    H173742   4.558   3.616  15.355 -0.2566  0.5713  0.7203
17417TIP3    H273743   4.620   3.721  15.264 -1.0643  0.2712 -0.1936
17418TIP3   OH273744   6.585   1.848   6.174  0.2829 -0.1459  0.4109
17418TIP3    H173745   6.670   1.819   6.143  0.5799  0.8861  0.2295
17418TIP3    H273746   6.585   1.826   6.268  0.9580  0.3133  0.5245
17419TIP3   OH273747   3.747   5.365  15.983 -0.5518 -0.3215 -0.1049
17419TIP3    H173748   3.758   5.452  15.944 -0.7539  0.1259  0.8282
17419TIP3    H273749   3.834   5.325  15.978 -0.6450 -0.4103 -1.3242
17420TIP3   OH273750   6.458   3.028   4.849  0.6758 -0.3158 -1.0726
17420TIP3    H173751   6.398   2.987   4.787 -0.3264 -2.1585  0.9755
17420TIP3    H273752   6.413   3.107   4.878 -1.0733 -1.8703  0.7265
17421TIP3   OH273753   6.124   2.731  13.969 -0.0146 -0.3731  0.2256
17421TIP3    H173754   6.106   2.724  13.876 -2.5918  1.9449  0.4328
17421TIP3    H273755   6.141   2.824  13.983  3.0638 -1.0300  1.7267
17422TIP3   OH273756   3.252   0.115  13.980  0.5293 -0.4056  0.0843
17422TIP3    H173757   3.261   0.114  13.885  0.1892  0.0587  0.0464
17422TIP3    H273758   3.158   0.099  13.995  0.2762  1.1625  0.2889
17423TIP3   OH273759   4.478   1.265   5.557 -0.6221  0.7866 -0.2218
17423TIP3    H173760   4.446   1.352   5.580 -1.9548  0.0584  0.8617
17423TIP3    H273761   4.558   1.254   5.610 -0.8898  1.0506  0.2379
17424TIP3   OH273762   3.033   3.017   2.572 -0.4653  0.4934  0.0831
17424TIP3    H173763   3.064   3.079   2.506 -0.9396 -0.6043 -1.2363
17424TIP3    H273764   2.953   3.056   2.606  0.0082  1.2719  0.3206
17425TIP3   OH273765   0.823   3.580   0.486 -0.1124 -0.0569  0.1834
17425TIP3    H173766   0.758   3.628   0.537 -1.6269  3.0891 -4.1058
17425TIP3    H273767   0.905   3.628   0.499 -0.7595  1.4829 -1.0555
17426TIP3   OH273768   4.484   2.514  14.915  0.4465 -0.5489  0.1213
17426TIP3    H173769   4.480   2.476  15.003 -0.6783 -1.3830 -0.2731
17426TIP3    H273770   4.475   2.439  14.856  1.7428 -0.0621 -0.7266
17427TIP3   OH273771   2.859   5.704   3.030  0.3328  0.0413 -0.3950
17427TIP3    H173772   2.941   5.656   3.025  0.6356  0.6579 -1.7345
17427TIP3    H273773   2.796   5.649   2.984  0.2953  0.1332 -0.4562
17428TIP3   OH273774   6.191   4.725   4.341  0.6145 -0.2071  0.8647
17428TIP3    H173775   6.098   4.747   4.328  0.7438 -0.4907 -0.8565
17428TIP3    H273776   6.236   4.809   4.336  0.5864 -0.2298 -0.0948
17429TIP3   OH273777   6.486   4.019   4.116 -0.0547  0.0787  0.1244
17429TIP3    H173778   6.418   3.969   4.162  0.6533 -1.1089 -0.0808
17429TIP3    H273779   6.556   4.030   4.181  0.4239 -0.5257 -0.2709
17430TIP3   OH273780   4.068   4.459  11.475  0.6021 -0.4264  0.4245
17430TIP3    H173781   4.133   4.396  11.445  0.7920  0.3538 -0.8550
17430TIP3    H273782   3.987   4.408  11.481  0.7644 -0.8242 -0.5197
17431TIP3   OH273783   0.317   0.402  14.675 -0.0565  0.0709 -0.4978
17431TIP3    H173784   0.307   0.467  14.745 -1.3684 -0.1542 -0.4514
17431TIP3    H273785   0.340   0.453  14.598 -1.4248  0.6581 -0.5494
17432TIP3   OH273786   0.073   1.486  15.102  0.0343 -0.0630 -0.3833
17432TIP3    H173787   0.136   1.556  15.121 -0.4726  0.4821 -0.6791
17432TIP3    H273788   0.087   1.422  15.172  0.2920  0.4801  0.0760
17433TIP3   OH273789   0.632   2.576   2.093  0.5210 -0.1167  0.1630
17433TIP3    H173790   0.690   2.642   2.055  0.9601 -0.6181 -0.0365
17433TIP3    H273791   0.613   2.516   2.021  0.5299 -0.4912  0.4727
17434TIP3   OH273792   0.093   3.096  12.743 -0.2307  0.1476  0.0032
17434TIP3    H173793   0.111   3.160  12.675 -1.2837 -0.9422 -1.3522
17434TIP3    H273794   0.180   3.067  12.772  0.3032 -0.8276 -2.3219
17435TIP3   OH273795   5.971   5.197   1.994 -0.0021 -0.4438 -0.0358
17435TIP3    H173796   5.977   5.293   2.000 -0.2019 -0.3181 -1.5054
17435TIP3    H273797   5.942   5.170   2.081  0.6208  0.7783  0.5827
17436TIP3   OH273798   5.764   5.879  13.300  0.2239 -0.1881 -0.1322
17436TIP3    H173799   5.818   5.958  13.291 -0.8125  0.4677 -0.7821
17436TIP3    H273800   5.811   5.825  13.363  1.6342  0.3636 -0.6681
17437TIP3   OH273801   1.249   1.351  14.206  1.1051 -0.4346 -0.2424
17437TIP3    H173802   1.241   1.388  14.294 -2.0220  2.0124 -1.3557
17437TIP3    H273803   1.220   1.260  14.215  2.6607 -0.8137  1.5001
17438TIP3   OH273804   0.944   6.064   4.260  0.0323 -0.0540  0.3595
17438TIP3    H173805   0.855   6.093   4.280  0.3109  0.1280  1.4026
17438TIP3    H273806   0.971   6.119   4.187 -1.3911 -1.4269 -1.3260
17439TIP3   OH273807   5.945   5.749  13.496 -0.7763 -0.1470  0.5932
17439TIP3    H173808   6.010   5.774  13.561 -0.4399  1.4508 -0.3127
17439TIP3    H273809   5.995   5.730  13.417 -1.3154 -0.2485  0.2674
17440TIP3   OH273810   1.190   2.469  15.607 -0.0068 -0.3360 -0.5242
17440TIP3    H173811   1.279   2.503  15.599 -0.2213  1.1092  1.9777
17440TIP3    H273812   1.135   2.533  15.561 -0.0011  0.3578  0.4211
17441TIP3   OH273813   2.655   4.560  15.921 -0.5396 -0.3098  0.1632
17441TIP3    H173814   2.655   4.590  15.830  0.5722  0.2934  0.3381
17441TIP3    H273815   2.600   4.623  15.968  0.2017  0.3279  0.1845
17442TIP3   OH273816   3.543   3.823   1.261  0.2455 -0.3361 -0.3029
17442TIP3    H173817   3.464   3.861   1.221 -0.0095  1.1194  1.4345
17442TIP3    H273818   3.615   3.850   1.204 -0.2321  0.5778 -0.4851
17443TIP3   OH273819   5.365   5.521   0.799 -0.7516  0.6935  0.7141
17443TIP3    H173820   5.384   5.599   0.747  0.1741 -0.4922 -0.8227
17443TIP3    H273821   5.428   5.523   0.871  0.4041  0.5423 -0.2579
17444TIP3   OH273822   1.484   4.253  11.877 -0.5025  0.0954  0.2085
17444TIP3    H173823   1.544   4.203  11.933  0.0640  0.3573 -0.1648
17444TIP3    H273824   1.479   4.202  11.796 -1.3043 -0.2699  0.4720
17445TIP3   OH273825   4.110   0.921  11.233  0.0586  0.5132 -0.0675
17445TIP3    H173826   4.205   0.913  11.218 -0.1484 -0.8525 -0.9038
17445TIP3    H273827   4.075   0.948  11.148 -0.6896 -3.1190 -1.1110
17446TIP3   OH273828   4.786   6.519   4.411 -0.3375  0.1010  0.0862
17446TIP3    H173829   4.750   6.552   4.329  1.2757  1.5476 -0.1035
17446TIP3    H273830   4.810   6.428   4.392  1.2222  0.7847 -1.5070
17447TIP3   OH273831   0.900   0.214  13.699 -0.4085 -0.2647 -0.2652
17447TIP3    H173832   0.960   0.288  13.698  1.1089 -1.4476 -0.3716
17447TIP3    H273833   0.884   0.194  13.607 -2.0005  0.8227 -0.2494
17448TIP3   OH273834   4.314   3.693  16.234 -0.0035  0.2748 -0.2558
17448TIP3    H173835   4.392   3.749  16.241  0.7973 -0.8365  0.1318
17448TIP3    H273836   4.252   3.730  16.297  1.0476 -0.0877  1.0342
17449TIP3   OH273837   5.856   3.968   3.260  0.2252  0.1746 -0.2905
17449TIP3    H173838   5.909   4.031   3.308  0.1643 -0.3604  0.5016
17449TIP3    H273839   5.898   3.961   3.174 -0.5891  2.3457 -0.9270
17450TIP3   OH273840   1.251   6.489   3.543 -0.0337 -0.2941  0.7236
17450TIP3    H173841   1.244   6.412   3.599 -0.3283  1.3486  3.0449
17450TIP3    H273842   1.161   6.519   3.531  0.2140  0.7488  1.3895
17451TIP3   OH273843   2.514   1.093  13.390 -0.0368  0.8736 -0.0867
17451TIP3    H173844   2.600   1.095  13.432 -0.6937  1.4468  1.2924
17451TIP3    H273845   2.475   1.011  13.422 -0.1275  0.7753 -0.4501
17452TIP3   OH273846   5.423   1.194  16.790  0.1597 -0.1704 -0.3154
17452TIP3    H173847   5.465   1.269  16.749  2.1833 -0.6480  0.7496
17452TIP3    H273848   5.368   1.157  16.721  0.3093  1.3728 -1.3190
17453TIP3   OH273849   5.496   0.660  11.183  0.2295 -0.6130 -0.2204
17453TIP3    H173850   5.560   0.590  11.196 -1.0689 -1.5366  1.7797
17453TIP3    H273851   5.415   0.624  11.220 -0.3718  2.1150  1.3609
17454TIP3   OH273852   1.787   4.611  16.459  0.0879 -0.1550  0.3341
17454TIP3    H173853   1.748   4.686  16.503  1.3770  0.7573  0.0040
17454TIP3    H273854   1.750   4.535  16.502 -0.1263  0.6916  1.6970
17455TIP3   OH273855   2.133   2.463   2.173  0.5505  0.1641  0.1809
17455TIP3    H173856   2.192   2.440   2.101 -1.4782 -0.0200 -1.5180
17455TIP3    H273857   2.174   2.426   2.251  3.4774  1.4559 -0.6229
17456TIP3   OH273858   4.642   1.968  15.619 -0.7664 -0.1083 -0.5804
17456TIP3    H173859   4.639   2.056  15.580 -1.1216 -0.0969 -0.5314
17456TIP3    H273860   4.678   1.982  15.707 -1.0578  0.0229 -0.4821
17457TIP3   OH273861   1.048   1.534   2.266  0.4454  0.8082  0.0433
17457TIP3    H173862   1.111   1.479   2.220  2.1140  1.9928  0.8217
17457TIP3    H273863   1.099   1.579   2.333 -1.3421  1.4058  1.0756
17458TIP3   OH273864   0.790   1.281  12.494  0.7272  0.1263 -0.3669
17458TIP3    H173865   0.864   1.224  12.514  0.7936 -0.7129 -2.6650
17458TIP3    H273866   0.746   1.294  12.578  3.7902  1.2348  1.2214
17459TIP3   OH273867   5.929   0.392   4.926  0.1201  0.4508 -0.5330
17459TIP3    H173868   5.862   0.376   4.992  0.7624 -0.9124 -0.1716
17459TIP3    H273869   5.962   0.304   4.903  1.5110  1.0504 -0.9746
17460TIP3   OH273870   4.712   0.514  16.178  0.7955  0.4179  0.3060
17460TIP3    H173871   4.796   0.535  16.220  1.3454 -0.0427 -0.5398
17460TIP3    H273872   4.693   0.591  16.124  2.1328 -0.5826 -1.7290
17461TIP3   OH273873   6.518   6.338  15.020 -0.0460 -0.4196  0.2695
17461TIP3    H173874   6.437   6.372  14.982  0.0678 -0.7700 -0.3101
17461TIP3    H273875   6.526   6.249  14.984  0.4842 -0.4663  0.4854
17462TIP3   OH273876   5.379   6.046   2.612 -0.1506  0.2664 -0.0499
17462TIP3    H173877   5.445   6.036   2.543 -0.1924  1.1217 -0.2299
17462TIP3    H273878   5.393   6.135   2.645  0.1794 -0.3056  1.3814
17463TIP3   OH273879   6.376   1.170   2.854  0.3239  0.4409  0.1431
17463TIP3    H173880   6.403   1.207   2.770 -1.7142 -2.0050 -1.7478
17463TIP3    H273881   6.289   1.206   2.869  0.2319  0.0295  0.6327
17464TIP3   OH273882   0.105   3.850  13.377 -0.1988  0.0422  0.1641
17464TIP3    H173883   0.104   3.939  13.414 -0.6089  0.2110 -0.2424
17464TIP3    H273884   0.099   3.792  13.453 -0.8293  0.3812  0.3848
17465TIP3   OH273885   0.001   0.628  16.908  0.1782  0.7584  0.5552
17465TIP3    H173886   0.095   0.646  16.902 -0.0243  1.4658 -0.8248
17465TIP3    H273887  -0.016   0.623  17.002  1.6040  0.5361  0.8342
17466TIP3   OH273888   4.324   0.491   6.231 -0.4040 -0.2545  0.3433
17466TIP3    H173889   4.392   0.481   6.298  0.1753  1.9282  0.1713
17466TIP3    H273890   4.331   0.412   6.177  1.7450 -0.2654  0.5620
17467TIP3   OH273891   2.397   5.632  11.707 -0.5533  0.1523 -0.6594
17467TIP3    H173892   2.435   5.631  11.794 -0.5993 -0.2336 -0.6421
17467TIP3    H273893   2.376   5.724  11.690 -0.3120  0.2580 -0.3672
17468TIP3   OH273894   3.655   3.518  13.009  0.0974  0.0823  0.0298
17468TIP3    H173895   3.678   3.611  13.006 -1.5756  0.5491  0.7124
17468TIP3    H273896   3.559   3.517  13.009  0.0919 -1.6574 -0.2086
17469TIP3   OH273897   6.595   4.529   1.889  0.5509  0.7418  0.2053
17469TIP3    H173898   6.668   4.591   1.883  0.0713  1.5630  2.1437
17469TIP3    H273899   6.517   4.581   1.870 -0.0519  1.3038  3.5747
17470TIP3   OH273900   2.695   0.712  13.464  0.0907 -0.0931 -0.4453
17470TIP3    H173901   2.784   0.683  13.487 -0.3760 -1.9682 -0.8743
17470TIP3    H273902   2.698   0.807  13.474  1.5532 -0.2954  1.5886
17471TIP3   OH273903   6.333   3.611   3.633 -0.4105 -0.1487  0.1412
17471TIP3    H173904   6.386   3.690   3.646  0.0314 -0.3626 -0.3443
17471TIP3    H273905   6.253   3.628   3.682  0.0267  0.2549  0.7309
17472TIP3   OH273906   3.621   5.656  12.601  0.3425  0.3334  0.1929
17472TIP3    H173907   3.693   5.678  12.542  0.2781  0.8355  0.2974
17472TIP3    H273908   3.633   5.714  12.677  0.2984 -0.1539  0.5774
17473TIP3   OH273909   0.874   5.136  14.681  0.3560 -0.6195 -0.7360
17473TIP3    H173910   0.926   5.057  14.695  2.1333  0.7979  1.3049
17473TIP3    H273911   0.914   5.176  14.603 -0.1578 -1.3692 -1.4104
17474TIP3   OH273912   0.565   1.069   2.856  0.4570 -0.1334  0.5460
17474TIP3    H173913   0.658   1.095   2.858  0.5367 -0.3955  0.3273
17474TIP3    H273914   0.542   1.053   2.947  0.6231 -0.0498  0.6029
17475TIP3   OH273915   2.722   0.928  14.701  0.3004 -0.2617 -0.1051
17475TIP3    H173916   2.634   0.914  14.667 -0.1814 -0.9103  1.3740
17475TIP3    H273917   2.734   1.023  14.696 -0.3806 -0.1921 -0.5586
17476TIP3   OH273918   5.123   0.165   5.565 -0.0189 -0.1701 -0.8330
17476TIP3    H173919   5.184   0.187   5.635  0.9962 -2.5631 -0.8554
17476TIP3    H273920   5.146   0.225   5.494  1.3817 -0.0802 -0.3437
17477TIP3   OH273921   5.421   4.046  12.875  0.3390 -0.2330 -0.1364
17477TIP3    H173922   5.410   4.100  12.953 -0.1576 -0.5060 -0.0168
17477TIP3    H273923   5.505   4.074  12.839 -0.0028  0.7902 -0.1996
17478TIP3   OH273924   2.556   2.123  12.554 -0.1513  0.3342 -0.0269
17478TIP3    H173925   2.512   2.122  12.639  1.7340 -1.3299  1.0234
17478TIP3    H273926   2.549   2.214  12.525  1.4829  1.6878  3.2588
17479TIP3   OH273927   6.688   6.367   2.705  0.3922  0.0131 -0.3950
17479TIP3    H173928   6.652   6.287   2.668  0.9132 -0.1892 -0.4740
17479TIP3    H273929   6.751   6.338   2.771 -0.9845  0.3744  1.1377
17480TIP3   OH273930   3.409   0.086  15.449 -0.5397  0.0795  0.5922
17480TIP3    H173931   3.324   0.123  15.424 -0.1403  2.0865  1.9710
17480TIP3    H273932   3.472   0.154  15.429  0.5137 -0.6582  1.3115
17481TIP3   OH273933   2.322   5.642  12.858 -0.2538 -0.1026 -0.2575
17481TIP3    H173934   2.324   5.736  12.873 -0.2252  0.3596 -2.6835
17481TIP3    H273935   2.229   5.620  12.855 -0.2653 -0.0783 -0.0732
17482TIP3   OH273936   3.074   2.119   0.849  0.0887  0.8204  0.2911
17482TIP3    H173937   3.008   2.163   0.795  0.2523  0.8404  0.1063
17482TIP3    H273938   3.155   2.127   0.799 -0.2941 -1.7207 -0.8794
17483TIP3   OH273939   3.751   3.647  13.270  0.5784  0.7686  0.7428
17483TIP3    H173940   3.730   3.672  13.180  2.9342 -0.4525 -0.2575
17483TIP3    H273941   3.681   3.587  13.296  0.4909  0.1744 -0.7609
17484TIP3   OH273942   4.077   5.434  11.716  0.2098 -0.2858 -0.3547
17484TIP3    H173943   4.029   5.395  11.789 -0.6823  0.1958 -0.6781
17484TIP3    H273944   4.141   5.367  11.691 -0.8733 -1.2942 -0.4920
17485TIP3   OH273945   3.541   1.915  12.735  0.0974 -0.3193 -0.6732
17485TIP3    H173946   3.604   1.918  12.807  0.2443 -0.8571 -0.7757
17485TIP3    H273947   3.566   1.988  12.679  0.7207 -0.5991 -0.7793
17486TIP3   OH273948   3.294   4.579  15.561  0.1917  0.2545 -0.5701
17486TIP3    H173949   3.359   4.532  15.614  0.1298 -1.4013 -1.8886
17486TIP3    H273950   3.308   4.671  15.582  0.8292 -0.2821  1.5482
17487TIP3   OH273951   4.019   6.775  15.285  0.3183  0.0203  0.4307
17487TIP3    H173952   4.069   6.840  15.234  0.8894 -0.1510  0.7582
17487TIP3    H273953   3.930   6.808  15.285  0.9485  1.9591  2.3614
17488TIP3   OH273954   4.638   4.170   3.903 -0.1364 -0.1465  0.1855
17488TIP3    H173955   4.582   4.114   3.957  1.5393 -2.4519 -0.2852
17488TIP3    H273956   4.712   4.193   3.960 -0.0102  0.2367 -0.1251
17489TIP3   OH273957   1.700   1.517   5.057  0.1142  0.3511  0.0451
17489TIP3    H173958   1.773   1.579   5.049  0.1317  0.3783  0.3866
17489TIP3    H273959   1.729   1.455   5.124 -0.7614  1.1993  1.2344
17490TIP3   OH273960   0.671   0.648  12.247 -0.7622 -0.5418 -0.3318
17490TIP3    H173961   0.619   0.568  12.244  1.1269 -1.7866 -1.9543
17490TIP3    H273962   0.638   0.700  12.173 -1.7679  0.0765  0.5266
17491TIP3   OH273963   4.012   5.991  13.264  0.1664 -0.3799  0.0289
17491TIP3    H173964   3.927   6.027  13.292 -0.2991 -0.7052 -0.9215
17491TIP3    H273965   4.042   6.051  13.196  0.6878 -0.2959  0.3278
17492TIP3   OH273966   1.760   5.747   1.446  0.5227  0.2663  0.2622
17492TIP3    H173967   1.668   5.740   1.471  0.5394  0.5137  0.3977
17492TIP3    H273968   1.802   5.787   1.522  0.3133  2.4389 -0.6758
17493TIP3   OH273969   0.900   4.142   1.208 -0.0380 -0.1773 -0.2166
17493TIP3    H173970   0.832   4.104   1.264 -0.1773  0.6472  0.1732
17493TIP3    H273971   0.859   4.145   1.121 -0.4829  0.2478 -0.0001
17494TIP3   OH273972   5.006   3.583   3.649  0.0619  0.3572  0.0935
17494TIP3    H173973   5.012   3.536   3.732 -1.0083  1.1405  0.6402
17494TIP3    H273974   4.914   3.611   3.644  0.0248  0.0434 -1.5140
17495TIP3   OH273975   4.449   5.143   4.204 -0.0270  0.2500  0.2822
17495TIP3    H173976   4.477   5.062   4.163  0.1400  0.0640  0.7569
17495TIP3    H273977   4.490   5.212   4.152 -1.0740  0.0830 -0.8103
17496TIP3   OH273978   5.675   3.171  11.341  0.4972 -1.2978  0.1872
17496TIP3    H173979   5.701   3.261  11.322  1.8254 -1.6085  0.4709
17496TIP3    H273980   5.640   3.175  11.430 -1.5342 -0.6882 -0.5631
17497TIP3   OH273981   6.768   4.099  15.530  0.1541  0.2343  0.3152
17497TIP3    H173982   6.762   4.005  15.515 -0.7991  0.2137  0.7608
17497TIP3    H273983   6.814   4.133  15.453  0.6361 -0.6092  0.2240
17498TIP3   OH273984   2.742   4.581  15.643 -0.4040  0.6649  0.1967
17498TIP3    H173985   2.683   4.600  15.570  0.9169  2.9828 -0.3934
17498TIP3    H273986   2.825   4.559  15.602 -0.0483  0.4406  1.0110
17499TIP3   OH273987   2.568   6.604   1.192 -0.2732 -0.4364  0.0628
17499TIP3    H173988   2.642   6.600   1.252 -0.0498  0.7130 -0.1094
17499TIP3    H273989   2.535   6.514   1.188  0.9506 -0.9129  0.3383
17500TIP3   OH273990   6.446   5.948   1.857 -0.8042  0.0521 -0.0750
17500TIP3    H173991   6.511   6.018   1.858  0.3461 -0.9013  3.2827
17500TIP3    H273992   6.484   5.881   1.799 -0.8436  1.1724 -1.4622
17501TIP3   OH273993   3.655   3.552   3.373 -0.7221 -0.7653  0.2423
17501TIP3    H173994   3.664   3.457   3.376 -1.1149 -0.9318 -1.9291
17501TIP3    H273995   3.732   3.582   3.324 -1.9804 -0.2990 -1.5575
17502TIP3   OH273996   4.120   4.597   1.514  0.0365 -0.1397 -0.0864
17502TIP3    H173997   4.161   4.680   1.539  1.9301 -1.7868  2.8640
17502TIP3    H273998   4.029   4.606   1.544  0.2016  0.8631  0.1561
17503TIP3   OH273999   1.447   3.951  16.999 -0.6219 -0.1404  0.0898
17503TIP3    H174000   1.354   3.968  17.007 -0.7657 -0.4651 -0.8069
17503TIP3    H274001   1.460   3.927  16.907  0.0943 -1.6177  0.5418
17504TIP3   OH274002   0.428   4.134   1.738 -0.3400 -0.1081 -0.5539
17504TIP3    H174003   0.354   4.177   1.781  0.2817  1.9756 -1.4029
17504TIP3    H274004   0.482   4.101   1.810 -0.9360  0.4084  0.1456
17505TIP3   OH274005   3.656   5.794  12.855 -0.2173  0.3588  0.6021
17505TIP3    H174006   3.750   5.805  12.864 -0.5336  3.7016  1.0760
17505TIP3    H274007   3.623   5.792  12.945 -0.6376 -0.8345  0.4422
17506TIP3   OH274008   6.823   0.422   1.233  0.6032  0.2965 -0.4047
17506TIP3    H174009   6.914   0.451   1.243  0.4258  0.7177  0.0570
17506TIP3    H274010   6.788   0.423   1.322 -0.1945  1.2771 -0.7052
17507TIP3   OH274011   4.068   3.838  12.842  0.1267  0.6400  0.1985
17507TIP3    H174012   4.032   3.749  12.845  1.6426 -0.1764 -2.6499
17507TIP3    H274013   4.026   3.879  12.767  1.1116  1.5393  0.1145
17508TIP3   OH274014   3.969   5.154   5.164 -0.0870  0.0544 -0.1520
17508TIP3    H174015   4.006   5.117   5.244  1.6842 -0.6843 -1.2528
17508TIP3    H274016   3.964   5.248   5.181  1.0463  0.0083  0.5346
17509TIP3   OH274017   4.740   2.456   0.752 -0.0330  0.2504  0.0449
17509TIP3    H174018   4.648   2.432   0.754 -0.1632  0.7627  1.7481
17509TIP3    H274019   4.756   2.497   0.837  1.6338  0.6610 -0.4301
17510TIP3   OH274020   1.213   2.649  16.654 -0.0531 -0.5175  0.0357
17510TIP3    H174021   1.162   2.679  16.730  0.4868  0.9212 -0.1403
17510TIP3    H274022   1.285   2.712  16.647 -0.2495 -0.4403 -1.8394
17511TIP3   OH274023   1.001   5.949   1.470 -0.0629 -0.1123  0.3618
17511TIP3    H174024   1.024   5.920   1.382  0.8688  0.3507  0.4500
17511TIP3    H274025   0.941   5.881   1.502  1.1032 -1.3036  0.0976
17512TIP3   OH274026   3.017   6.747  16.730 -0.1790  0.7223  0.2295
17512TIP3    H174027   2.936   6.752  16.678 -0.5577 -1.8792  0.4095
17512TIP3    H274028   2.989   6.767  16.819 -0.8209 -0.7785  0.4004
17513TIP3   OH274029   6.509   3.759  14.832 -0.0439  0.5447 -0.3261
17513TIP3    H174030   6.509   3.692  14.764 -0.3767  0.5574 -0.3407
17513TIP3    H274031   6.599   3.793  14.833 -0.6791  2.6255 -2.8456
17514TIP3   OH274032   5.697   6.779   1.009 -0.5707 -0.1390  0.8981
17514TIP3    H174033   5.750   6.821   1.078  0.1683  3.5131 -1.5966
17514TIP3    H274034   5.610   6.772   1.048  0.4856 -1.2457  3.2566
17515TIP3   OH274035   6.503   6.020   5.055  0.2650  0.2454 -0.3832
17515TIP3    H174036   6.550   6.075   5.118  0.9647 -0.8875  0.1153
17515TIP3    H274037   6.419   6.003   5.098 -0.0549  1.1067 -0.6478
17516TIP3   OH274038   4.310   6.301  10.918 -0.0055  0.3636  0.4244
17516TIP3    H174039   4.328   6.228  10.978 -1.5889  0.8535  1.5464
17516TIP3    H274040   4.397   6.332  10.892  0.7116 -1.6253  0.2546
17517TIP3   OH274041   2.023   1.837  11.508 -0.0533 -0.0958  0.4396
17517TIP3    H174042   1.982   1.761  11.465  0.8728 -0.3749  0.0267
17517TIP3    H274043   1.951   1.879  11.554 -0.7729 -0.6859 -0.1065
17518TIP3   OH274044   0.631   2.774   3.152  0.5931  0.4846 -0.5060
17518TIP3    H174045   0.703   2.725   3.112  1.4987  0.4358  1.1290
17518TIP3    H274046   0.668   2.812   3.231 -0.9306  1.2850 -0.1327
17519TIP3   OH274047   3.187   4.511   2.580 -0.9710 -0.7894  0.4921
17519TIP3    H174048   3.267   4.517   2.528 -2.3875  0.3644 -1.6931
17519TIP3    H274049   3.207   4.560   2.660  1.2130 -2.4602  1.0411
17520TIP3   OH274050   3.203   6.677  12.870  0.0800  0.2690 -0.8536
17520TIP3    H174051   3.192   6.676  12.775 -2.0785  0.5944 -0.6560
17520TIP3    H274052   3.129   6.729  12.902 -0.3561 -1.4118  1.0983
17521TIP3   OH274053   1.768   3.086  16.510  0.4600 -0.0629  0.4442
17521TIP3    H174054   1.706   3.134  16.565 -1.2093 -0.7841 -0.7369
17521TIP3    H274055   1.768   3.133  16.427  1.9651  0.2462  0.5780
17522TIP3   OH274056   2.624   5.656   1.098  0.1393 -0.1816  0.2505
17522TIP3    H174057   2.633   5.744   1.062  0.3221 -0.2811  0.0494
17522TIP3    H274058   2.536   5.629   1.073  0.2616 -0.2465 -0.1199
17523TIP3   OH274059   1.621   0.190  16.379 -0.6514  0.3208  0.0702
17523TIP3    H174060   1.607   0.179  16.286 -0.1643 -0.9053  0.1188
17523TIP3    H274061   1.680   0.265  16.386 -0.0297 -0.0890 -0.6652
17524TIP3   OH274062   6.551   2.847   3.522  0.1327 -0.1591 -0.1244
17524TIP3    H174063   6.613   2.906   3.479 -0.5395  1.4036  0.9612
17524TIP3    H274064   6.469   2.896   3.523 -0.5181 -1.2432  0.5758
17525TIP3   OH274065   3.349   3.543   6.087  0.0824 -0.1136 -0.1134
17525TIP3    H174066   3.272   3.566   6.139 -1.4303 -1.6385 -1.5857
17525TIP3    H274067   3.416   3.521   6.152 -0.0849  2.9359  1.2352
17526TIP3   OH274068   0.480   1.051   3.147  0.2890  0.5319 -0.0895
17526TIP3    H174069   0.503   1.144   3.139 -1.0787  0.8051 -1.4235
17526TIP3    H274070   0.391   1.052   3.184  0.1327 -0.2315 -0.4266
17527TIP3   OH274071   2.823   1.856  14.507  0.6120  0.2058 -0.1132
17527TIP3    H174072   2.813   1.896  14.594  2.5489 -0.1155  0.3008
17527TIP3    H274073   2.748   1.888  14.457 -1.1530 -0.4110  1.9567
17528TIP3   OH274074   3.801   0.681   2.200  0.1042 -0.2420  0.6687
17528TIP3    H174075   3.856   0.668   2.277 -0.1319  0.6031  0.9857
17528TIP3    H274076   3.786   0.593   2.166  0.8838 -0.5566  1.1122
17529TIP3   OH274077   1.473   0.934  11.854  0.3324  0.3827 -0.1312
17529TIP3    H174078   1.531   0.859  11.866 -1.0194 -0.3834  2.2389
17529TIP3    H274079   1.393   0.897  11.817  0.2052  0.9252 -0.4093
17530TIP3   OH274080   2.938   4.609  16.052 -0.0685  0.1236 -0.6410
17530TIP3    H174081   2.850   4.572  16.050  0.6487 -1.6684 -1.0823
17530TIP3    H274082   2.958   4.627  15.960  0.2051  0.0741 -0.5906
17531TIP3   OH274083   6.795   2.267  15.194  0.6405  0.2932 -0.2078
17531TIP3    H174084   6.802   2.315  15.111  0.4980  0.6217 -0.0341
17531TIP3    H274085   6.832   2.327  15.259 -1.2128  0.9567  0.3030
17532TIP3   OH274086   1.367   0.869  15.771  0.8602  0.1397  0.0225
17532TIP3    H174087   1.454   0.909  15.768  0.5917  0.8789  1.2610
17532TIP3    H274088   1.316   0.927  15.828 -0.6508  0.0924 -1.2097
17533TIP3   OH274089   1.264   3.322   4.602 -0.3348 -0.3046 -0.1343
17533TIP3    H174090   1.342   3.376   4.613 -0.8325  0.1816  1.3075
17533TIP3    H274091   1.292   3.250   4.546  1.3344 -0.4970  0.8827
17534TIP3   OH274092   5.815   0.725   5.130  0.3996  0.2445  0.5665
17534TIP3    H174093   5.879   0.712   5.060  0.6947 -2.3036  1.2218
17534TIP3    H274094   5.794   0.819   5.126  0.0813  0.1440 -3.1566
17535TIP3   OH274095   3.952   2.198  15.309 -0.1499 -0.5094  0.1709
17535TIP3    H174096   3.871   2.249  15.297  2.1655  3.2335 -1.5105
17535TIP3    H274097   4.015   2.241  15.251  3.3790 -2.5291  2.2073
17536TIP3   OH274098   1.553   1.919  10.920  0.6555  0.1509 -0.2268
17536TIP3    H174099   1.460   1.906  10.941  0.9010 -1.9396 -0.2405
17536TIP3    H274100   1.556   1.918  10.824  0.5917  1.1051 -0.2419
17537TIP3   OH274101   5.426   3.136  15.073 -0.4378 -0.3632 -0.6745
17537TIP3    H174102   5.413   3.173  14.986  0.9961 -0.2430 -0.8668
17537TIP3    H274103   5.502   3.182  15.107 -1.1079 -0.2610  0.7386
17538TIP3   OH274104   4.492   5.176  11.441  0.2656 -0.6585 -0.0065
17538TIP3    H174105   4.503   5.101  11.382 -1.9981 -0.0729 -1.2997
17538TIP3    H274106   4.509   5.253  11.385 -2.0255 -0.0901 -0.0220
17539TIP3   OH274107   4.074   1.852  14.713  0.2384 -0.4302 -0.5096
17539TIP3    H174108   4.016   1.877  14.785 -0.3018 -0.8312 -0.7994
17539TIP3    H274109   4.161   1.880  14.742  0.0503 -0.7193  0.3559
17540TIP3   OH274110   1.257   3.970   3.356 -0.2334 -0.3914  0.1633
17540TIP3    H174111   1.350   3.957   3.373 -0.1878 -1.0594 -0.5562
17540TIP3    H274112   1.239   4.059   3.387  1.1904  0.6938 -1.9375
17541TIP3   OH274113   5.437   3.219   0.712  0.4156  0.3254  0.4071
17541TIP3    H174114   5.433   3.280   0.638 -2.4375 -1.1083 -0.7501
17541TIP3    H274115   5.403   3.268   0.786  0.2564  0.7932  0.0289
17542TIP3   OH274116   6.376   6.397   2.572 -0.2741 -0.3871  0.2659
17542TIP3    H174117   6.408   6.429   2.657 -0.1358  0.2777 -0.0360
17542TIP3    H274118   6.453   6.360   2.529 -0.5007 -1.4952  0.7638
17543TIP3   OH274119   4.263   0.521   5.000 -0.6030 -0.2208  0.4763
17543TIP3    H174120   4.202   0.447   5.001 -0.7764 -0.0894  0.0815
17543TIP3    H274121   4.344   0.487   5.038 -0.2598 -0.9856 -0.8960
17544TIP3   OH274122   0.569   1.376   4.581  0.1900  0.1056 -0.2891
17544TIP3    H174123   0.559   1.436   4.655 -0.5289  1.9624 -1.8075
17544TIP3    H274124   0.615   1.301   4.617 -0.8613  0.5693  2.2190
17545TIP3   OH274125   4.446   1.772  11.326 -0.0301  0.3913 -0.2736
17545TIP3    H174126   4.531   1.759  11.284 -0.6554  1.0251 -1.7812
17545TIP3    H274127   4.398   1.691  11.311  0.3190 -0.0219  0.7000
17546TIP3   OH274128   1.119   0.071   2.600  0.3658  0.5343  0.5900
17546TIP3    H174129   1.061   0.139   2.568  2.3074  2.2417  0.5040
17546TIP3    H274130   1.099   0.064   2.693  0.6447  1.7909  0.7603
17547TIP3   OH274131   5.985   4.938   3.437 -0.1055  0.1838  0.7521
17547TIP3    H174132   5.910   4.986   3.474 -1.0099 -0.3372 -0.3309
17547TIP3    H274133   6.028   5.001   3.380 -0.2135  0.2421  0.7345
17548TIP3   OH274134   6.205   0.745  14.451 -0.2900 -0.0487 -0.5299
17548TIP3    H174135   6.160   0.829  14.456 -0.4730  0.0616 -2.8631
17548TIP3    H274136   6.289   0.765  14.409  0.3334 -0.8173  0.3082
17549TIP3   OH274137   4.264   2.455   0.959 -0.5957  0.0747 -0.3794
17549TIP3    H174138   4.219   2.430   1.040 -0.2132 -1.4711 -0.6182
17549TIP3    H274139   4.200   2.510   0.913 -1.0924  0.3709  0.6324
17550TIP3   OH274140   6.657   6.501  11.659 -0.1782 -0.1432 -0.2816
17550TIP3    H174141   6.566   6.508  11.628 -0.6194  0.5439  1.0832
17550TIP3    H274142   6.682   6.591  11.679  0.6020 -0.4016 -0.0659
17551TIP3   OH274143   4.138   4.237   4.167  0.4150  0.3258 -0.1002
17551TIP3    H174144   4.185   4.266   4.090  0.0902  0.5401 -0.2198
17551TIP3    H274145   4.162   4.145   4.177 -0.8443 -0.1794 -1.4346
17552TIP3   OH274146   0.571   5.572  13.686 -0.2942  0.3113 -0.2240
17552TIP3    H174147   0.484   5.533  13.677  0.0717 -0.4111 -0.7670
17552TIP3    H274148   0.608   5.530  13.763 -0.2530  0.2662 -0.2682
17553TIP3   OH274149   0.931   1.514   3.208  0.1091  0.2648  0.3392
17553TIP3    H174150   0.880   1.546   3.133 -0.8250  1.2352  1.3473
17553TIP3    H274151   0.981   1.590   3.237  2.4046 -0.7328 -0.7820
17554TIP3   OH274152   5.526   1.221   1.666  0.3218  0.2619 -0.0419
17554TIP3    H174153   5.564   1.263   1.590  0.8215  1.4186  0.8108
17554TIP3    H274154   5.585   1.244   1.738 -0.7509  0.1735  0.8964
17555TIP3   OH274155   2.766   4.206  16.500 -0.4817 -0.0375  0.0177
17555TIP3    H174156   2.799   4.293  16.478  0.0081 -0.6570 -1.9944
17555TIP3    H274157   2.732   4.172  16.417 -0.6325 -1.7629  0.7402
17556TIP3   OH274158   0.732   3.786   0.047  0.1982 -0.3628  0.0063
17556TIP3    H174159   0.745   3.692   0.033  1.8012 -0.5193  1.9937
17556TIP3    H274160   0.812   3.815   0.093 -1.1626  1.5039  1.3810
17557TIP3   OH274161   2.239   2.484  12.241 -0.2733  0.2988 -0.2552
17557TIP3    H174162   2.253   2.402  12.194 -1.6638  0.3934 -0.8774
17557TIP3    H274163   2.283   2.471  12.325 -0.2195 -0.9593 -0.4586
17558TIP3   OH274164   1.873   3.766   5.627 -0.2275 -0.4144 -0.2685
17558TIP3    H174165   1.850   3.781   5.536  0.6421  0.3952 -0.3696
17558TIP3    H274166   1.968   3.765   5.629 -0.2337 -0.6847  0.5891
17559TIP3   OH274167   6.351   2.133   2.739 -0.4644  0.2136  0.6465
17559TIP3    H174168   6.277   2.109   2.684 -1.0157  1.1821  0.9369
17559TIP3    H274169   6.406   2.055   2.742 -0.2919  0.1777 -1.4723
17560TIP3   OH274170   4.924   2.197   3.877  0.0467  0.1291  0.1317
17560TIP3    H174171   4.965   2.147   3.948  0.4113 -0.1411 -0.2657
17560TIP3    H274172   4.901   2.132   3.811  0.2958  0.4528 -0.2790
17561TIP3   OH274173   1.269   1.922   5.669 -0.2783  0.4762  0.3155
17561TIP3    H174174   1.300   1.908   5.579 -0.2342  0.0620  0.3930
17561TIP3    H274175   1.239   2.013   5.670 -0.2576  0.4913 -0.1136
17562TIP3   OH274176   0.471   3.338   4.120  0.1794  0.4980 -0.6039
17562TIP3    H174177   0.397   3.288   4.156  0.0827 -0.6059 -2.2103
17562TIP3    H274178   0.442   3.429   4.122 -0.1574  0.3818  1.2138
17563TIP3   OH274179   4.166   2.969   2.218 -0.0660 -0.7341 -0.1311
17563TIP3    H174180   4.083   2.948   2.176 -0.4661 -0.2886  0.4236
17563TIP3    H274181   4.194   2.887   2.259  0.6923 -1.3667 -1.8508
17564TIP3   OH274182   1.956   2.717  11.419 -0.5368  0.5678 -0.6164
17564TIP3    H174183   2.030   2.667  11.385 -1.1823  0.9981 -2.8449
17564TIP3    H274184   1.913   2.753  11.341 -2.5385  1.1265  0.6445
17565TIP3   OH274185   1.207   4.923  14.112  0.4332 -0.4622 -0.8822
17565TIP3    H174186   1.247   4.880  14.187 -0.6462 -1.5670 -0.9034
17565TIP3    H274187   1.256   5.005  14.101  2.3519 -1.5253 -0.6435
17566TIP3   OH274188   5.752   5.267  14.536  0.1843  0.2840 -0.4253
17566TIP3    H174189   5.692   5.304  14.601  0.6539 -1.4079  1.0604
17566TIP3    H274190   5.707   5.189  14.503  1.8219 -1.5389  1.3853
17567TIP3   OH274191   5.539   1.239  14.824 -0.4775 -0.1803  0.0590
17567TIP3    H174192   5.626   1.279  14.819 -0.9146  0.8230  0.1697
17567TIP3    H274193   5.480   1.313  14.839 -1.5462 -0.6130 -1.6560
17568TIP3   OH274194   3.558   4.970  12.413  0.0568 -0.4254 -0.2629
17568TIP3    H174195   3.583   4.895  12.468  1.0393 -0.5994 -0.9183
17568TIP3    H274196   3.631   5.032  12.423 -0.7976  0.5052  0.3620
17569TIP3   OH274197   3.421   3.061  11.794 -0.1050  0.4737  0.6400
17569TIP3    H174198   3.346   3.005  11.816 -1.5448  1.5653 -1.2142
17569TIP3    H274199   3.394   3.148  11.822  1.6434  0.5115  2.4150
17570TIP3   OH274200   6.004   0.435  13.865 -0.3920  0.3350 -0.0376
17570TIP3    H174201   5.938   0.371  13.841  0.2919 -0.1426 -0.6776
17570TIP3    H274202   6.047   0.398  13.942 -0.2005  0.1691 -0.2245
17571TIP3   OH274203   0.300   3.062  11.535  0.5428 -0.1306 -0.5885
17571TIP3    H174204   0.236   3.132  11.527 -1.0107 -1.2537  1.2429
17571TIP3    H274205   0.340   3.056  11.448 -1.7223  0.7221 -1.7691
17572TIP3   OH274206   1.775   5.987   3.372 -0.4210  0.1631 -0.8793
17572TIP3    H174207   1.862   6.006   3.405  0.3506 -2.1694 -1.3923
17572TIP3    H274208   1.724   5.965   3.449 -0.1312  0.0804 -0.7098
17573TIP3   OH274209   1.282   5.676  11.534 -0.3059  0.2136 -0.5790
17573TIP3    H174210   1.376   5.668  11.549 -0.3228 -0.0311 -0.6032
17573TIP3    H274211   1.274   5.690  11.439 -0.4311 -2.2719 -1.0054
17574TIP3   OH274212   0.032   2.001   4.923 -0.1555 -0.4458 -0.1323
17574TIP3    H174213   0.006   2.003   4.830  0.2178  0.6262 -0.2281
17574TIP3    H274214  -0.051   1.995   4.971 -0.3165 -1.9603 -0.5343
17575TIP3   OH274215   1.039   2.112   4.247  0.1273  0.1514  0.2343
17575TIP3    H174216   0.987   2.054   4.191 -0.5328 -1.0306  1.9555
17575TIP3    H274217   1.014   2.086   4.336  1.7747  1.3412  1.0831
17576TIP3   OH274218   6.734   1.377  15.981 -0.1670 -0.0155  0.3695
17576TIP3    H174219   6.705   1.288  15.960  0.1327 -0.0374  0.0516
17576TIP3    H274220   6.753   1.417  15.897 -0.6838  0.4853  0.4866
17577TIP3   OH274221   0.180   5.482   3.733  0.1693  0.3166 -0.0812
17577TIP3    H174222   0.269   5.515   3.724 -0.0608  0.9225 -0.1809
17577TIP3    H274223   0.182   5.396   3.691  0.7860  0.1740  0.2254
17578TIP3   OH274224   3.244   2.142  12.935  0.3032 -0.4691 -0.0399
17578TIP3    H174225   3.318   2.161  12.993 -0.0193  0.9283 -0.0548
17578TIP3    H274226   3.268   2.183  12.851 -0.6585  0.3907  0.0827
17579TIP3   OH274227   1.604   2.556   4.788  0.0725 -0.5456 -0.0221
17579TIP3    H174228   1.586   2.573   4.881  0.4149 -0.1765 -0.0201
17579TIP3    H274229   1.673   2.618   4.765 -0.9813  0.3708 -0.8909
17580TIP3   OH274230   2.427   1.089   1.551  1.2461  0.5390  0.0510
17580TIP3    H174231   2.407   1.182   1.551 -0.0492  0.3132  1.6452
17580TIP3    H274232   2.349   1.048   1.590  1.4224 -1.2984 -1.3931
17581TIP3   OH274233   2.239   1.483  11.128 -0.3880 -0.3265  0.0023
17581TIP3    H174234   2.318   1.476  11.075  0.4615  3.1057  0.5595
17581TIP3    H274235   2.173   1.516  11.068  0.0776  1.7747  0.5702
17582TIP3   OH274236   3.446   1.988  14.836  0.4048 -0.2475 -0.0863
17582TIP3    H174237   3.445   2.084  14.831 -0.9794 -0.2117  0.2863
17582TIP3    H274238   3.491   1.960  14.756 -0.3157  0.7064 -0.8573
17583TIP3   OH274239   2.805   1.702   4.096  0.2017  0.2168  0.1734
17583TIP3    H174240   2.840   1.791   4.100 -1.0355  0.7004  0.8232
17583TIP3    H274241   2.711   1.714   4.083 -0.0267 -0.9883  0.6050
17584TIP3   OH274242   6.593   2.056   2.220 -0.0390  0.0559  0.0130
17584TIP3    H174243   6.550   2.059   2.305  1.6880 -0.3128  0.9557
17584TIP3    H274244   6.529   2.015   2.162 -0.7984 -0.8607  1.4234
17585TIP3   OH274245   5.467   5.004   1.710 -0.2389  0.5871 -0.0856
17585TIP3    H174246   5.555   5.040   1.702  0.0294  0.1646  0.7716
17585TIP3    H274247   5.412   5.061   1.656  0.7520  0.0952 -1.6876
17586TIP3   OH274248   6.719   1.554  15.426 -0.0192 -0.5463  0.5973
17586TIP3    H174249   6.765   1.482  15.383 -0.9522 -1.7453  1.5253
17586TIP3    H274250   6.785   1.623  15.435  0.3530 -0.4143 -2.2268
17587TIP3   OH274251   0.827   5.099   0.664  0.1338  0.1642 -0.9856
17587TIP3    H174252   0.872   5.079   0.746  1.4308  0.5184 -1.5746
17587TIP3    H274253   0.823   5.015   0.618 -0.2380  0.0434 -0.7398
17588TIP3   OH274254   2.449   1.898  14.239  0.1566  0.1221 -1.0099
17588TIP3    H174255   2.363   1.916  14.277  0.0604 -1.9411 -0.1172
17588TIP3    H274256   2.504   1.969  14.271 -0.5081 -0.2057  1.0202
17589TIP3   OH274257   0.994   6.148   5.493 -0.3513 -0.2288  0.1849
17589TIP3    H174258   1.033   6.176   5.575 -0.5964  0.1095  0.1897
17589TIP3    H274259   0.901   6.169   5.502 -0.5711 -1.1854  0.2421
17590TIP3   OH274260   1.939   4.963   2.883  0.1539  0.2647 -0.2497
17590TIP3    H174261   1.931   4.908   2.805 -0.0278 -0.4315  0.2403
17590TIP3    H274262   2.033   4.972   2.897  0.1855  0.1607 -0.3967
17591TIP3   OH274263   3.937   0.360  13.898  0.1761  0.2055 -0.0768
17591TIP3    H174264   3.910   0.445  13.864  0.0649 -1.1830 -3.9913
17591TIP3    H274265   4.024   0.375  13.935  0.0174  2.0707 -0.3950
17592TIP3   OH274266   1.568   2.534  11.372  0.0892  0.8367 -0.0372
17592TIP3    H174267   1.529   2.509  11.455  0.8690  0.6403  0.2760
17592TIP3    H274268   1.611   2.454  11.340 -2.6050  0.0226 -2.0722
17593TIP3   OH274269   4.622   1.114  14.837 -0.4074  0.3981  0.4069
17593TIP3    H174270   4.685   1.146  14.772  1.0111 -1.6435  0.6962
17593TIP3    H274271   4.625   1.019  14.830 -2.9298  0.1908  0.9935
17594TIP3   OH274272   0.334   6.121  13.511 -0.6309 -0.2692 -0.0848
17594TIP3    H174273   0.340   6.170  13.593 -1.9915  1.7197 -1.0995
17594TIP3    H274274   0.411   6.064  13.512  1.2629  2.1201  1.0521
17595TIP3   OH274275   0.304   3.175  15.537 -0.2637 -0.3250 -0.0971
17595TIP3    H174276   0.383   3.229  15.539  1.8019 -3.1253 -0.6193
17595TIP3    H274277   0.312   3.124  15.457 -2.4057 -1.0174  0.0738
17596TIP3   OH274278   0.297   6.169  14.564 -0.0037 -0.3474  0.4487
17596TIP3    H174279   0.276   6.092  14.513 -1.1636 -0.2940  0.8088
17596TIP3    H274280   0.306   6.137  14.654  0.5393 -0.2193  0.4432
17597TIP3   OH274281   0.443   4.625   6.853 -0.4870  0.0013  0.0436
17597TIP3    H174282   0.523   4.611   6.802  0.3298  0.6299  1.1130
17597TIP3    H274283   0.392   4.544   6.840 -0.3030  0.1255 -1.7070
17598TIP3   OH274284   1.544   3.815  11.758  0.0000  0.4433  0.0730
17598TIP3    H174285   1.456   3.847  11.777 -0.4870 -0.6441 -0.2415
17598TIP3    H274286   1.543   3.724  11.789  0.5299 -0.0457 -1.2629
17599TIP3   OH274287   0.084   4.482   1.346  0.3666  0.2684 -0.3959
17599TIP3    H174288   0.057   4.486   1.254 -0.4920 -1.5084 -0.2580
17599TIP3    H274289   0.150   4.551   1.355 -1.1537  2.0147 -1.7782
17600TIP3   OH274290   3.773   4.179   3.027  0.2604 -0.9743 -0.5157
17600TIP3    H174291   3.726   4.256   2.995  0.3092 -0.7634 -0.0935
17600TIP3    H274292   3.793   4.200   3.119 -0.3419 -1.7727 -0.1886
17601TIP3   OH274293   5.742   0.870   2.012  0.6991  0.1494 -0.5144
17601TIP3    H174294   5.691   0.938   1.967  0.2966  0.2318  0.0662
17601TIP3    H274295   5.677   0.818   2.059  0.8165 -1.5740 -2.1350
17602TIP3   OH274296   5.132   6.293  15.444  0.0208  0.0714  0.0550
17602TIP3    H174297   5.044   6.291  15.406  0.4733  0.0283 -1.0046
17602TIP3    H274298   5.136   6.214  15.498  0.8278 -2.3008 -3.1781
17603TIP3   OH274299   3.685   0.354  13.958  0.5397  0.2892 -0.4827
17603TIP3    H174300   3.710   0.365  14.050  1.0877 -2.5380 -0.1802
17603TIP3    H274301   3.769   0.351  13.911  0.4055 -0.8036 -0.6756
17604TIP3   OH274302   3.027   6.509   5.038  0.6162 -0.6575  0.0834
17604TIP3    H174303   3.004   6.600   5.021  3.1445  0.2020  0.9362
17604TIP3    H274304   2.992   6.491   5.125  0.2122 -0.4875 -0.0406
17605TIP3   OH274305   6.418   1.958   2.015  0.4481  0.1952 -0.4786
17605TIP3    H174306   6.411   1.863   2.028 -1.8735  0.3579 -0.1090
17605TIP3    H274307   6.452   1.967   1.926  0.6126 -0.9760 -0.5521
17606TIP3   OH274308   5.254   1.732  16.793  0.2335  0.2764  0.5389
17606TIP3    H174309   5.295   1.808  16.752  0.7654  0.8320  2.0313
17606TIP3    H274310   5.247   1.755  16.886 -0.3584 -1.1727  0.8908
17607TIP3   OH274311   4.456   5.995  14.473 -0.4607  0.4088 -0.4090
17607TIP3    H174312   4.515   5.933  14.431  1.1994  1.1702  0.6388
17607TIP3    H274313   4.378   5.996  14.419  0.4257 -0.7862 -1.7746
17608TIP3   OH274314   1.873   3.346   2.103  0.2492  0.0209 -0.4987
17608TIP3    H174315   1.873   3.411   2.033 -0.9040 -0.7261 -1.2180
17608TIP3    H274316   1.811   3.279   2.074  0.4839 -0.7877  0.7921
17609TIP3   OH274317   2.523   2.558  10.481 -0.3520  1.2255 -0.1332
17609TIP3    H174318   2.474   2.480  10.455  1.8161 -1.1565  2.3870
17609TIP3    H274319   2.603   2.554  10.428  1.8980 -1.0246  3.1200
17610TIP3   OH274320   6.029   4.762   5.599 -0.4529 -0.0251  0.1425
17610TIP3    H174321   5.954   4.704   5.611 -1.4828  1.1341 -0.3744
17610TIP3    H274322   6.075   4.760   5.683 -1.9686  0.4435  1.0344
17611TIP3   OH274323   4.003   6.134  12.247  0.0123  0.3776  0.6663
17611TIP3    H174324   4.055   6.210  12.221 -0.8207  0.5886 -0.4129
17611TIP3    H274325   3.947   6.115  12.172 -2.0337  0.6343  2.0511
17612TIP3   OH274326   0.857   2.971   5.872 -0.0016 -0.4282  0.2797
17612TIP3    H174327   0.884   2.927   5.953 -0.4738  0.1553  0.7568
17612TIP3    H274328   0.925   2.947   5.808 -0.1773 -1.7357  0.5580
17613TIP3   OH274329   0.338   6.749   2.187 -0.2590 -0.0148  0.1208
17613TIP3    H174330   0.340   6.747   2.091 -1.1380 -0.2162  0.0940
17613TIP3    H274331   0.247   6.729   2.209  0.2082 -1.2618  1.0367
17614TIP3   OH274332   5.462   5.466   3.926 -0.0706 -0.4943  0.7551
17614TIP3    H174333   5.556   5.487   3.928 -0.2116  0.4032 -0.4177
17614TIP3    H274334   5.426   5.506   4.005 -0.0592  2.5859 -0.6375
17615TIP3   OH274335   5.117   4.173  16.988  0.0194  0.3453  0.0388
17615TIP3    H174336   5.067   4.203  17.064 -2.2038 -1.3458 -0.6378
17615TIP3    H274337   5.162   4.094  17.019 -0.7734 -0.2627 -0.3373
17616TIP3   OH274338   4.187   4.458  13.022 -0.0175  0.1232 -0.0924
17616TIP3    H174339   4.230   4.523  12.966  1.3035  0.3198  1.0970
17616TIP3    H274340   4.203   4.375  12.978  1.9872  0.1411  0.4834
17617TIP3   OH274341   0.809   5.330  16.671 -0.2207  0.0175 -0.1029
17617TIP3    H174342   0.732   5.273  16.671 -0.4130  0.2784 -0.2213
17617TIP3    H274343   0.882   5.270  16.688 -0.4727 -0.1946  0.2566
17618TIP3   OH274344   5.435   4.328   0.026  0.7553 -0.1139  0.9326
17618TIP3    H174345   5.529   4.320   0.041  0.9266  0.4463  0.2325
17618TIP3    H274346   5.417   4.422   0.037  0.7238  0.1897 -1.2374
17619TIP3   OH274347   3.945   4.873   4.890 -0.0470  0.0109 -0.4625
17619TIP3    H174348   3.931   4.836   4.803 -0.9075 -0.0279 -0.3139
17619TIP3    H274349   3.860   4.909   4.915  1.0115  3.4087 -1.1859
17620TIP3   OH274350   2.577   1.658  11.880  0.3558 -0.2085 -0.4217
17620TIP3    H174351   2.576   1.611  11.797  1.2525  0.7968 -1.0267
17620TIP3    H274352   2.492   1.639  11.919 -0.1210 -0.6163 -1.6095
17621TIP3   OH274353   5.037   2.445   5.703 -0.1013  0.4445  0.6861
17621TIP3    H174354   5.068   2.527   5.740 -1.7758  1.4010  0.1066
17621TIP3    H274355   4.947   2.464   5.676 -0.0474 -1.1625 -0.7917
17622TIP3   OH274356   2.303   3.440  13.428  0.4954  0.0793 -0.2300
17622TIP3    H174357   2.359   3.512  13.400 -1.1774  1.6568  0.3013
17622TIP3    H274358   2.248   3.477  13.497 -1.7068 -1.1353 -1.2232
17623TIP3   OH274359   3.186   0.161   0.515  0.4707  0.0242 -0.2967
17623TIP3    H174360   3.281   0.160   0.507  0.5232  0.8838  0.0514
17623TIP3    H274361   3.156   0.210   0.439  0.2112 -1.2543 -1.0438
17624TIP3   OH274362   0.715   5.519   2.956 -0.1339  0.7570  0.3289
17624TIP3    H174363   0.760   5.444   2.917 -1.2884  0.9358 -1.4756
17624TIP3    H274364   0.770   5.594   2.931  0.5461  0.6219  1.3723
17625TIP3   OH274365   1.204   2.069  14.037  0.1330 -0.0319  0.2788
17625TIP3    H174366   1.156   2.035  13.962 -2.2122  1.2348  1.0949
17625TIP3    H274367   1.278   2.116  13.999 -1.4166  1.2363 -1.3269
17626TIP3   OH274368   1.793   4.745   5.233  0.0131 -0.2735 -0.1001
17626TIP3    H174369   1.775   4.706   5.318 -1.3120  0.1561 -0.1757
17626TIP3    H274370   1.889   4.745   5.227  0.1519  0.2472  1.6412
17627TIP3   OH274371   2.051   2.241  16.155 -0.4306  0.2688  0.1136
17627TIP3    H174372   2.076   2.207  16.069 -1.4646 -0.2180 -0.0147
17627TIP3    H274373   2.119   2.304  16.177  0.2121 -0.1039 -0.7574
17628TIP3   OH274374   3.672   3.584  11.199  0.1805 -0.4192  0.5788
17628TIP3    H174375   3.618   3.588  11.120 -0.3504  1.0537  0.9833
17628TIP3    H274376   3.609   3.591  11.271  0.6917 -1.3648  1.1465
17629TIP3   OH274377   6.492   5.781  16.101 -0.0812 -0.3222 -0.0997
17629TIP3    H174378   6.484   5.848  16.168  0.5670 -1.1253  0.8125
17629TIP3    H274379   6.586   5.760  16.099 -0.2478 -1.0826 -0.4686
17630TIP3   OH274380   3.466   0.848  16.425 -0.0479  0.2165  0.2009
17630TIP3    H174381   3.439   0.834  16.516  0.7901 -0.6554  0.3346
17630TIP3    H274382   3.385   0.864  16.378 -0.4211  1.5984  1.2431
17631TIP3   OH274383   1.819   1.164   6.128 -0.2403  0.0456  0.2752
17631TIP3    H174384   1.732   1.196   6.106 -0.3775 -0.7681 -0.4338
17631TIP3    H274385   1.863   1.156   6.043 -0.1289 -1.3590  0.4431
17632TIP3   OH274386   3.604   2.878  15.208 -0.2090 -0.0037 -0.0579
17632TIP3    H174387   3.653   2.950  15.247 -2.3468  0.6475  1.6020
17632TIP3    H274388   3.599   2.901  15.115  1.9586  0.2378 -0.1731
17633TIP3   OH274389   5.229   2.812  12.564 -0.3022  0.3816 -0.2369
17633TIP3    H174390   5.159   2.752  12.536  1.7635 -1.8350 -1.0420
17633TIP3    H274391   5.256   2.856  12.483  1.0275 -0.8688 -0.5249
17634TIP3   OH274392   0.766   3.675  16.209  0.2137 -0.0124  0.1878
17634TIP3    H174393   0.782   3.769  16.216  0.8736  0.2804 -3.3218
17634TIP3    H274394   0.829   3.635  16.269 -0.3897  1.7215  2.0904
17635TIP3   OH274395   3.371   0.620  15.444 -0.4379  0.0359  0.4177
17635TIP3    H174396   3.436   0.687  15.421 -0.8002  0.3991  0.4291
17635TIP3    H274397   3.371   0.618  15.540  1.5105 -1.9109  0.4376
17636TIP3   OH274398   5.365   5.740  13.182 -0.2472  0.0728  0.1378
17636TIP3    H174399   5.287   5.791  13.162 -0.1752  0.1671  0.0916
17636TIP3    H274400   5.381   5.756  13.275  0.2230  0.7721 -0.0486
17637TIP3   OH274401   0.975   6.494   3.267  0.7252  0.6763  0.2123
17637TIP3    H174402   0.981   6.551   3.344  3.8571 -1.1483  1.4653
17637TIP3    H274403   1.059   6.503   3.224 -0.4238  0.4536 -2.2134
17638TIP3   OH274404   3.470   4.300   6.050  0.6794  0.3320 -0.7451
17638TIP3    H174405   3.463   4.205   6.062  1.4013  0.2980 -0.5986
17638TIP3    H274406   3.550   4.312   5.998 -0.0493  0.7795 -1.8121
17639TIP3   OH274407   5.671   6.298   3.214  0.0698 -0.3897  0.0760
17639TIP3    H174408   5.689   6.213   3.174  1.2417 -0.8079  1.4042
17639TIP3    H274409   5.756   6.343   3.214 -0.2230  0.1866  0.7347
17640TIP3   OH274410   6.463   2.790  12.929  0.5075 -0.1174 -0.9543
17640TIP3    H174411   6.482   2.884  12.924  1.5513 -0.2434  0.1533
17640TIP3    H274412   6.536   2.748  12.882 -0.4685 -0.3513 -2.3083
17641TIP3   OH274413   5.003   5.174  11.993  0.5215 -0.0504  0.9150
17641TIP3    H174414   5.062   5.237  11.952  0.5617  1.4900  3.1750
17641TIP3    H274415   4.949   5.141  11.921  1.3263  1.6621 -0.5352
17642TIP3   OH274416   4.283   6.540   1.269 -0.2606  0.8132 -0.0229
17642TIP3    H174417   4.227   6.462   1.267 -0.3158  0.7898  1.5868
17642TIP3    H274418   4.233   6.605   1.318  0.0574  1.6605 -0.7894
17643TIP3   OH274419   3.798   1.426  16.236  0.2660  0.6696 -0.5085
17643TIP3    H174420   3.703   1.433  16.227  0.3499  0.6966 -1.5432
17643TIP3    H274421   3.833   1.470  16.159  1.1243  0.7196 -0.1040
17644TIP3   OH274422   6.632   1.018   2.921  0.2589 -0.6658  0.8290
17644TIP3    H174423   6.682   1.050   2.995  0.5685 -0.5926  0.5909
17644TIP3    H274424   6.556   1.077   2.916  1.7261  1.2206 -0.7047
17645TIP3   OH274425   3.499   5.624   4.307 -0.0466 -0.1216 -0.1295
17645TIP3    H174426   3.461   5.631   4.219  4.3658 -0.7107 -2.3219
17645TIP3    H274427   3.507   5.529   4.321 -0.4526 -0.0206  0.8577
17646TIP3   OH274428   3.136   4.583   6.062 -0.4530  0.3406 -0.1066
17646TIP3    H174429   3.172   4.494   6.059 -1.9871 -0.3463  0.6945
17646TIP3    H274430   3.119   4.599   6.154 -1.6838  0.8269 -0.4035
17647TIP3   OH274431   2.393   5.139   6.128 -0.0443 -0.0295  0.6696
17647TIP3    H174432   2.379   5.046   6.149  2.9379 -0.7170  0.0355
17647TIP3    H274433   2.428   5.176   6.209 -3.3709  1.2603  1.7120
17648TIP3   OH274434   0.383   4.245  16.794 -0.4019 -0.2966  0.1882
17648TIP3    H174435   0.379   4.189  16.872 -0.1318  0.0390  0.4500
17648TIP3    H274436   0.346   4.329  16.823 -0.3240 -0.1779 -0.0524
17649TIP3   OH274437   3.908   3.089   5.243 -0.5161  0.3022 -0.5216
17649TIP3    H174438   3.996   3.110   5.211 -0.4076  0.7161  0.0288
17649TIP3    H274439   3.917   3.005   5.288 -0.5465  0.0108 -1.0530
17650TIP3   OH274440   6.753   1.483  11.540 -0.4617 -1.0163 -0.4918
17650TIP3    H174441   6.658   1.478  11.540 -0.7674  1.7232  2.0674
17650TIP3    H274442   6.780   1.431  11.616 -0.1052 -0.2875 -0.1084
17651TIP3   OH274443   0.771   5.944  13.292 -0.3191 -0.6677 -0.2454
17651TIP3    H174444   0.700   6.004  13.271 -0.5437 -0.8421  0.0036
17651TIP3    H274445   0.851   5.991  13.269 -0.5255 -0.5387 -0.6936
17652TIP3   OH274446   4.025   1.700   4.380 -0.1207  0.6062 -0.2664
17652TIP3    H174447   3.995   1.767   4.441 -2.3313  1.2559 -1.9055
17652TIP3    H274448   3.949   1.644   4.367  0.7823 -0.4531 -1.1886
17653TIP3   OH274449   4.099   2.370   0.224  0.3023 -0.3803 -0.0069
17653TIP3    H174450   4.191   2.355   0.204  0.5029 -1.2687  1.4919
17653TIP3    H274451   4.054   2.293   0.189  0.0684  0.1337 -0.8970
17654TIP3   OH274452   0.569   0.779   2.613 -0.4913  0.1798  0.1237
17654TIP3    H174453   0.661   0.756   2.623 -0.1984  0.5740 -1.3511
17654TIP3    H274454   0.562   0.866   2.651 -0.0951  0.4147 -0.3198
17655TIP3   OH274455   1.454   4.799   1.489 -0.2020 -0.0260 -0.3534
17655TIP3    H174456   1.524   4.859   1.462 -0.5349 -0.2227 -1.7375
17655TIP3    H274457   1.388   4.854   1.530  0.5947  0.2082  0.6462
17656TIP3   OH274458   6.623   6.186  12.133 -0.0145 -0.3763  0.2034
17656TIP3    H174459   6.559   6.117  12.116  1.0764 -1.4542  0.3219
17656TIP3    H274460   6.643   6.222  12.047  1.1161 -1.8070 -0.1702
17657TIP3   OH274461   6.582   1.808   5.784 -0.3154 -0.1316 -0.5217
17657TIP3    H174462   6.597   1.726   5.831 -1.4170 -0.4907 -0.7661
17657TIP3    H274463   6.550   1.781   5.698  1.1454  0.5333 -1.3038
17658TIP3   OH274464   2.268   5.940  14.595  0.2524 -0.7706  0.6529
17658TIP3    H174465   2.174   5.950  14.579 -0.0935 -0.9046  2.4309
17658TIP3    H274466   2.287   5.849  14.570  0.0973 -0.5046 -0.4775
17659TIP3   OH274467   2.491   4.971  13.025 -0.0177  0.2397  0.1023
17659TIP3    H174468   2.402   4.936  13.023 -0.0140  0.2484 -0.5337
17659TIP3    H274469   2.482   5.057  13.065 -0.3722  0.4517 -0.4300
17660TIP3   OH274470   5.662   3.834  11.312  0.1209 -0.0420  0.0348
17660TIP3    H174471   5.586   3.786  11.345  0.4952  0.0970  1.1462
17660TIP3    H274472   5.639   3.926  11.320 -0.1394  0.0003 -0.9970
17661TIP3   OH274473   5.761   4.668  10.659 -0.3647  0.1830  0.9684
17661TIP3    H174474   5.722   4.752  10.683 -0.5670  0.0195  1.2174
17661TIP3    H274475   5.708   4.603  10.705  1.0566  0.0180  2.4468
17662TIP3   OH274476   6.333   6.024  12.881 -0.4922 -0.0200  0.3373
17662TIP3    H174477   6.297   6.063  12.802 -0.3213  1.5504  0.9917
17662TIP3    H274478   6.257   6.009  12.937 -0.3666  1.7361  1.0524
17663TIP3   OH274479   2.477   4.751  15.982 -0.3025 -0.0621 -0.3765
17663TIP3    H174480   2.385   4.770  15.963 -0.5271 -0.1679  0.5743
17663TIP3    H274481   2.485   4.765  16.076  0.9432  1.1104 -0.6314
17664TIP3   OH274482   0.849   1.035   4.803 -0.1315  0.8114  0.5576
17664TIP3    H174483   0.906   1.036   4.726 -0.3146  0.6662  0.4204
17664TIP3    H274484   0.835   0.942   4.821  0.5023  0.8338  1.2043
17665TIP3   OH274485   2.650   0.445  13.468 -0.7029  0.2831  0.2893
17665TIP3    H174486   2.628   0.538  13.467  2.1843  1.0614 -2.2507
17665TIP3    H274487   2.578   0.402  13.421 -0.3777  1.7664 -1.6681
17666TIP3   OH274488   4.483   6.444  16.430 -0.4902 -0.4893 -0.1690
17666TIP3    H174489   4.561   6.486  16.466 -0.7026 -0.4068  0.1993
17666TIP3    H274490   4.434   6.414  16.506 -0.9006 -0.3928 -0.3921
17667TIP3   OH274491   6.373   1.425   5.940 -0.1070  1.1378  0.3109
17667TIP3    H174492   6.349   1.413   6.032  0.9881  0.9442  0.5850
17667TIP3    H274493   6.376   1.336   5.905  1.0657  1.0755  0.5220
17668TIP3   OH274494   1.388   4.590   3.296  0.0130  0.4109  0.1532
17668TIP3    H174495   1.346   4.568   3.379  0.6056 -0.9032  0.1360
17668TIP3    H274496   1.415   4.505   3.260  0.9694  1.0674 -0.7322
17669TIP3   OH274497   1.183   5.475  11.191  0.0790 -0.3078 -0.4198
17669TIP3    H174498   1.102   5.499  11.235 -0.7401 -0.1285 -1.9373
17669TIP3    H274499   1.233   5.426  11.256 -1.4372 -0.8148  0.4011
17670TIP3   OH274500   5.671   5.809  16.893 -0.0182 -0.2210 -0.7407
17670TIP3    H174501   5.728   5.834  16.966 -1.9501 -0.2515  0.8342
17670TIP3    H274502   5.727   5.756  16.837  1.7088  0.3424  0.3661
17671TIP3   OH274503   0.083   5.040  13.994 -0.4920 -0.2286 -0.4473
17671TIP3    H174504   0.151   5.089  13.948  0.2108 -0.1116  0.6726
17671TIP3    H274505   0.013   5.103  14.008  0.4593  0.5625  1.0994
17672TIP3   OH274506   1.579   4.457  12.935 -0.7425  0.5122  0.3159
17672TIP3    H174507   1.668   4.423  12.925 -1.2185 -0.3650 -1.3689
17672TIP3    H274508   1.582   4.544  12.896 -0.1451  1.4080  2.2488
17673TIP3   OH274509   2.673   0.921  13.059  0.2249  0.2118 -0.4700
17673TIP3    H174510   2.618   0.990  13.097  0.1156 -0.1709  0.0829
17673TIP3    H274511   2.612   0.867  13.009  0.3271  0.5695 -0.9874
17674TIP3   OH274512   1.852   0.718   4.675  0.2976 -0.5913 -0.9660
17674TIP3    H174513   1.793   0.773   4.726  1.6143  0.0976 -0.1147
17674TIP3    H274514   1.796   0.650   4.639 -0.7145 -1.1604  1.4552
17675TIP3   OH274515   0.142   6.144  11.123 -0.7675  0.0199 -0.2335
17675TIP3    H174516   0.088   6.206  11.172  0.3449 -0.0161  1.0902
17675TIP3    H274517   0.228   6.151  11.163  0.2382  0.0892 -2.3045
17676TIP3   OH274518   0.535   1.869  14.614  0.4597  0.3101 -0.4591
17676TIP3    H174519   0.626   1.854  14.589  0.6200 -1.0106  0.7859
17676TIP3    H274520   0.483   1.831  14.543  0.8996 -1.7581  0.2751
17677TIP3   OH274521   2.544   2.189   1.598 -0.5391  0.7505  0.3561
17677TIP3    H174522   2.636   2.213   1.616 -0.3273  0.0416  0.2450
17677TIP3    H274523   2.530   2.215   1.507  0.1532 -0.8830 -0.2521
17678TIP3   OH274524   2.854   2.940   4.302 -0.1152 -0.5376  0.5750
17678TIP3    H174525   2.793   2.999   4.346  0.2803 -0.4746  1.0497
17678TIP3    H274526   2.872   2.982   4.217 -0.8123 -0.6152  0.3896
17679TIP3   OH274527   3.213   2.877  16.467  0.1155  0.2267 -0.0233
17679TIP3    H174528   3.186   2.946  16.406  0.0539  1.1390  1.0195
17679TIP3    H274529   3.300   2.903  16.496 -0.0963  0.1110  0.7338
17680TIP3   OH274530   3.937   6.218   5.859 -0.0626 -0.4581 -0.1886
17680TIP3    H174531   3.961   6.197   5.949  0.0335 -0.2459 -0.1661
17680TIP3    H274532   3.854   6.171   5.845  0.8168 -1.9573 -0.5709
17681TIP3   OH274533   2.558   2.190  14.129  0.7544  0.4737 -0.4184
17681TIP3    H174534   2.594   2.253  14.191 -0.7121 -1.5072  2.6886
17681TIP3    H274535   2.634   2.158  14.081  2.4366  0.3898  2.0803
17682TIP3   OH274536   2.609   4.230   0.421  0.2561  0.5900  0.0187
17682TIP3    H174537   2.683   4.180   0.455  0.4018 -0.8548 -2.2063
17682TIP3    H274538   2.648   4.293   0.361 -0.1273  1.8190  1.0254
17683TIP3   OH274539   6.246   1.417   0.858 -0.3867  0.6319  0.3219
17683TIP3    H174540   6.278   1.500   0.893 -1.1149  0.6211  1.0576
17683TIP3    H274541   6.317   1.355   0.872  0.2609  1.1765 -0.4622
17684TIP3   OH274542   4.914   5.393   1.176 -0.1911  0.0329 -0.4987
17684TIP3    H174543   4.886   5.409   1.266  0.9893  0.4062 -0.1831
17684TIP3    H274544   4.946   5.303   1.177  0.7189  0.3546 -0.3064
17685TIP3   OH274545   2.160   0.659  13.829  0.2085  0.0612  0.0290
17685TIP3    H174546   2.080   0.683  13.877  0.1990  0.5386 -0.2129
17685TIP3    H274547   2.208   0.602  13.889  0.9259  1.8558  1.2753
17686TIP3   OH274548   4.419   3.249  14.555 -0.0972 -0.1027 -0.3384
17686TIP3    H174549   4.409   3.253  14.650  1.4472  0.0365 -0.1523
17686TIP3    H274550   4.433   3.340  14.528 -1.0139 -0.0785 -0.7761
17687TIP3   OH274551   4.318   6.470   3.375 -0.2071  0.3611  0.6736
17687TIP3    H174552   4.329   6.490   3.468  1.2296 -0.2540  0.6517
17687TIP3    H274553   4.375   6.395   3.360 -0.7766  0.1684 -0.6182
17688TIP3   OH274554   3.336   3.386   5.112  0.0846  0.0387 -0.8013
17688TIP3    H174555   3.253   3.433   5.113  1.7184  3.1725 -0.8607
17688TIP3    H274556   3.347   3.359   5.021  0.0777  1.4927 -1.2502
17689TIP3   OH274557   6.502   5.189  15.087 -0.6956 -0.6549 -0.8236
17689TIP3    H174558   6.527   5.169  14.997 -0.4402 -4.2890 -0.0967
17689TIP3    H274559   6.504   5.105  15.132 -1.0149  0.9655  2.5777
17690TIP3   OH274560   5.405   0.995   4.367  0.4559  0.2442 -0.4086
17690TIP3    H174561   5.331   1.040   4.408 -0.6220 -3.4207  2.1295
17690TIP3    H274562   5.366   0.943   4.297  1.0896  0.2677 -0.7923
17691TIP3   OH274563   5.163   4.401   2.987  0.0638  0.6405  0.5075
17691TIP3    H174564   5.098   4.458   3.028 -1.8595 -0.5486 -0.7441
17691TIP3    H274565   5.155   4.420   2.893 -0.5386 -1.5098  0.0705
17692TIP3   OH274566   5.162   2.658   2.278 -0.6283  0.3484 -0.0185
17692TIP3    H174567   5.120   2.599   2.215 -0.7871  0.2426  0.1891
17692TIP3    H274568   5.170   2.607   2.358 -1.3401  0.8095  0.3582
17693TIP3   OH274569   6.057   1.822  15.347 -0.0165  0.0234 -0.1056
17693TIP3    H174570   6.096   1.807  15.433 -1.0722  0.3703  0.4464
17693TIP3    H274571   5.972   1.862  15.365 -0.4354 -0.2797 -1.2906
17694TIP3   OH274572   4.278   5.961   3.107  0.0934 -0.0149  0.1044
17694TIP3    H174573   4.267   6.054   3.088  1.2652  0.0166 -0.5509
17694TIP3    H274574   4.221   5.916   3.044  0.2467  0.2346 -0.2136
17695TIP3   OH274575   5.173   1.298  16.408  0.5089  0.7900  0.2834
17695TIP3    H174576   5.169   1.391  16.429 -0.5516  0.6963  0.5427
17695TIP3    H274577   5.256   1.288  16.360  0.4518  1.9313 -0.0866
17696TIP3   OH274578   3.119   1.284  11.075 -0.2827  0.1813  0.5458
17696TIP3    H174579   3.045   1.272  11.134 -0.6904  1.3006  0.2989
17696TIP3    H274580   3.176   1.346  11.120  0.0455  0.0427  0.3278
17697TIP3   OH274581   2.328   4.058   0.429 -0.2505 -0.3804 -0.6076
17697TIP3    H174582   2.364   3.978   0.391  1.0386 -0.9016  1.5523
17697TIP3    H274583   2.404   4.113   0.445 -0.7982  0.0979  0.5015
17698TIP3   OH274584   4.661   1.735  10.362 -0.2122  0.5260  0.3896
17698TIP3    H174585   4.636   1.662  10.305 -1.6259  1.9985 -0.9789
17698TIP3    H274586   4.610   1.720  10.442  1.8282 -1.5837  1.4193
17699TIP3   OH274587   2.772   3.349  17.144  0.3305  0.1156 -0.5185
17699TIP3    H174588   2.687   3.338  17.100  0.1406  2.0425 -0.7132
17699TIP3    H274589   2.819   3.410  17.088  1.4251 -0.0664  0.1862
17700TIP3   OH274590   2.852   2.340   0.809  0.4151  0.7079  0.0924
17700TIP3    H174591   2.931   2.394   0.809  0.4454  0.6626 -0.0251
17700TIP3    H274592   2.785   2.396   0.771  0.7776  0.1733 -1.4272
17701TIP3   OH274593   4.411   5.708   1.998  0.0325 -0.1287 -0.3479
17701TIP3    H174594   4.403   5.741   1.908  0.5218  0.5253 -0.1551
17701TIP3    H274595   4.425   5.786   2.051  0.5301 -0.5832  0.1999
17702TIP3   OH274596   6.442   1.870   4.615 -0.4582  0.5983 -0.1661
17702TIP3    H174597   6.355   1.833   4.628 -0.4320  0.0580 -1.3814
17702TIP3    H274598   6.426   1.963   4.598 -0.9456  0.2568 -1.7357
17703TIP3   OH274599   0.663   1.453  16.127 -0.1233 -0.6283  0.3581
17703TIP3    H174600   0.582   1.482  16.169 -0.6405 -0.6906 -0.5817
17703TIP3    H274601   0.685   1.370  16.171 -0.3556 -0.4195  0.8715
17704TIP3   OH274602   0.439   5.965  13.843  0.1655  0.0488 -0.1069
17704TIP3    H174603   0.509   5.961  13.778  0.2013  3.7030 -0.5281
17704TIP3    H274604   0.484   5.955  13.927  0.7958 -0.3380 -0.4802
17705TIP3   OH274605   2.936   3.919   6.212 -0.0853  0.3087  0.3384
17705TIP3    H174606   2.976   4.005   6.212 -0.3805  0.4822 -1.3633
17705TIP3    H274607   2.846   3.934   6.184 -0.2041 -0.5297  0.2220
17706TIP3   OH274608   2.659   3.125   3.657  0.0463 -0.4347 -0.4103
17706TIP3    H174609   2.649   3.216   3.627 -0.0851 -0.8637 -1.7366
17706TIP3    H274610   2.595   3.116   3.728 -1.6860 -0.1409 -1.8371
17707TIP3   OH274611   2.126   6.364  14.317  0.4107  0.1276  0.2388
17707TIP3    H174612   2.202   6.416  14.291  0.3313 -0.6756 -1.7268
17707TIP3    H274613   2.162   6.295  14.372  1.5036 -1.5300 -2.3957
17708TIP3   OH274614   1.018   6.612  14.029 -0.5799  0.5771  0.2529
17708TIP3    H174615   0.927   6.637  14.042 -0.8381 -0.7487  1.1337
17708TIP3    H274616   1.064   6.646  14.105 -0.1618  1.9692 -0.5918
17709TIP3   OH274617   0.890   3.927  14.975 -0.6143  0.1791 -0.7015
17709TIP3    H174618   0.920   3.872  14.902  1.8225 -0.0157  0.3503
17709TIP3    H274619   0.964   3.985  14.993 -2.0318  1.7991  0.1650
17710TIP3   OH274620   0.638   4.883  13.000  0.3920  0.6679  0.2112
17710TIP3    H174621   0.579   4.842  12.938  1.8351 -1.0791 -0.0806
17710TIP3    H274622   0.722   4.890  12.954  1.6162 -1.0358  1.9633
17711TIP3   OH274623   3.198   6.493   1.873 -0.8468 -0.0423 -0.7861
17711TIP3    H174624   3.175   6.542   1.794  0.4277 -0.8226 -1.6735
17711TIP3    H274625   3.117   6.491   1.924 -1.3675  1.5536 -1.4754
17712TIP3   OH274626   2.951   2.109  14.077  0.0260 -0.1467  0.1360
17712TIP3    H174627   2.870   2.057  14.077 -1.6676  2.2844 -0.5241
17712TIP3    H274628   2.975   2.116  13.985 -0.9183  1.7627 -0.0223
17713TIP3   OH274629   4.266   2.146   2.959  0.2958 -0.2088  0.6954
17713TIP3    H174630   4.229   2.180   2.878 -0.9563  1.2484  1.8255
17713TIP3    H274631   4.190   2.132   3.016  0.9755 -2.8452  1.0758
17714TIP3   OH274632   3.236   6.414  12.938  0.0402  0.7193  0.0571
17714TIP3    H174633   3.192   6.361  12.871  1.5276 -0.5484  0.0351
17714TIP3    H274634   3.228   6.504  12.907 -1.2139  0.3734 -0.6860
17715TIP3   OH274635   1.841   1.550  12.743 -0.1025  0.0123 -0.5121
17715TIP3    H174636   1.931   1.519  12.732 -0.3625 -0.7834 -0.4880
17715TIP3    H274637   1.833   1.569  12.836 -0.1083 -0.4329 -0.4164
17716TIP3   OH274638   5.012   4.178  12.125 -0.2636  0.2550  0.1788
17716TIP3    H174639   5.082   4.189  12.060 -0.1902 -0.6367  0.1060
17716TIP3    H274640   4.931   4.194  12.076 -0.1470  0.7403  0.1384
17717TIP3   OH274641   1.765   4.423  12.498 -0.5597 -0.3416  0.4009
17717TIP3    H174642   1.825   4.389  12.564 -2.0394 -2.6084  0.7076
17717TIP3    H274643   1.788   4.377  12.418 -0.9643 -0.1552  0.1754
17718TIP3   OH274644   6.329   6.133   4.091 -0.4043  0.1187  0.1017
17718TIP3    H174645   6.421   6.106   4.088 -0.3836  0.2713 -0.8119
17718TIP3    H274646   6.333   6.227   4.111 -0.4188 -0.1215  1.3559
17719TIP3   OH274647   3.348   4.087   5.672  0.3818  0.3885  0.5044
17719TIP3    H174648   3.333   3.994   5.654 -0.1974  0.4832  0.4909
17719TIP3    H274649   3.441   4.092   5.692  0.5362 -0.1031 -0.0574
17720TIP3   OH274650   5.797   2.019   3.364  0.0361 -0.7833 -0.3777
17720TIP3    H174651   5.851   1.974   3.299  0.1805  0.4005 -1.0848
17720TIP3    H274652   5.860   2.064   3.420 -0.1459 -0.7631 -0.1905
17721TIP3   OH274653   4.020   0.277   6.087  0.6715 -0.4891  1.0281
17721TIP3    H174654   4.092   0.222   6.054 -0.8981 -2.4337  0.6416
17721TIP3    H274655   3.989   0.230   6.164  0.9015  1.2586  2.2234
17722TIP3   OH274656   3.866   3.374   5.121  0.8583  0.0583 -0.3364
17722TIP3    H174657   3.925   3.414   5.185  0.1856 -0.8126  0.8553
17722TIP3    H274658   3.870   3.280   5.139 -0.6145 -0.0585 -0.4658
17723TIP3   OH274659   1.340   4.666   1.232 -0.4218  0.4574 -0.3448
17723TIP3    H174660   1.371   4.708   1.312  1.8308  0.3206 -1.0996
17723TIP3    H274661   1.355   4.731   1.163  0.4879 -0.5131 -1.0916
17724TIP3   OH274662   0.333   3.540  11.733 -0.0619  0.2366 -0.3432
17724TIP3    H174663   0.255   3.512  11.684 -0.1497 -0.3053  0.1042
17724TIP3    H274664   0.372   3.608  11.678 -0.3993 -0.0607 -0.9624
17725TIP3   OH274665   4.057   5.847   0.135 -0.4510  0.2237  0.3750
17725TIP3    H174666   4.006   5.920   0.100 -0.4486  0.4096  0.7525
17725TIP3    H274667   4.061   5.784   0.063  0.0711  0.8584 -0.1686
17726TIP3   OH274668   0.843   1.834  11.198  0.3853  0.5480  0.2316
17726TIP3    H174669   0.808   1.898  11.136  0.1714 -1.2654 -1.6185
17726TIP3    H274670   0.938   1.836  11.183  0.2516 -0.6023 -0.9516
17727TIP3   OH274671   1.440   2.991   2.492 -0.5138  0.3028  0.3324
17727TIP3    H174672   1.346   2.991   2.507 -0.5482  0.3621  0.1218
17727TIP3    H274673   1.468   2.902   2.511 -0.5919  0.3219  0.5301
17728TIP3   OH274674   2.797   0.495   4.418  0.5206 -0.1717 -0.4061
17728TIP3    H174675   2.722   0.553   4.401  0.0747 -0.6979 -0.2584
17728TIP3    H274676   2.765   0.434   4.484  1.3271  0.0787  0.2371
17729TIP3   OH274677   6.734   6.157   2.087  0.1492 -0.1349 -0.3183
17729TIP3    H174678   6.737   6.175   2.181  0.9525 -0.0039 -0.3648
17729TIP3    H274679   6.775   6.234   2.047 -0.6185  0.0257 -0.8088
17730TIP3   OH274680   2.498   0.049   3.709  0.4726 -0.0211  0.2177
17730TIP3    H174681   2.434   0.058   3.780 -0.6487 -2.5666 -0.3553
17730TIP3    H274682   2.565   0.114   3.729 -1.4047  1.5789  1.8073
17731TIP3   OH274683   3.853   4.052  13.851 -0.1495  0.4052 -0.2957
17731TIP3    H174684   3.876   4.142  13.876 -0.5817  0.5454 -0.4017
17731TIP3    H274685   3.761   4.057  13.827 -0.3492 -0.2014  0.3228
17732TIP3   OH274686   1.672   5.526  17.198 -0.1331 -0.1841 -0.0980
17732TIP3    H174687   1.620   5.474  17.260  0.1899 -0.2613  0.1057
17732TIP3    H274688   1.666   5.478  17.116 -0.1850 -0.3172 -0.0171
17733TIP3   OH274689   1.545   0.997   4.512 -0.3999  0.4869  0.0181
17733TIP3    H174690   1.506   0.923   4.558 -2.6694  1.1596 -0.6949
17733TIP3    H274691   1.634   0.969   4.492 -0.9914 -1.7850  0.3441
17734TIP3   OH274692   2.038   2.312   1.842  0.9179 -0.1144 -0.0961
17734TIP3    H174693   2.073   2.289   1.756  0.2526 -1.5694 -0.0053
17734TIP3    H274694   1.993   2.396   1.828 -2.8731 -2.2290 -2.2791
17735TIP3   OH274695   6.216   5.810  13.572 -0.0114 -0.1827 -0.2217
17735TIP3    H174696   6.247   5.733  13.620  0.3802 -0.5430 -1.0242
17735TIP3    H274697   6.267   5.883  13.607  0.9899 -0.5982 -0.7621
17736TIP3   OH274698   0.025   6.243  13.884 -0.3632 -0.1468 -0.5234
17736TIP3    H174699   0.052   6.205  13.800 -1.4392 -0.4310 -0.7564
17736TIP3    H274700   0.101   6.232  13.941  0.6215  0.6416 -1.6318
17737TIP3   OH274701   0.136   3.133  16.189  0.2277 -0.5308  0.1300
17737TIP3    H174702   0.214   3.135  16.244  0.0233  0.1005  0.4029
17737TIP3    H274703   0.064   3.119  16.250 -0.3762  3.2267  0.5121
17738TIP3   OH274704   1.906   1.848   4.574  0.3712 -0.1549  0.2726
17738TIP3    H174705   1.900   1.943   4.581  1.5862 -0.1573  2.2975
17738TIP3    H274706   2.000   1.830   4.566  0.1387 -1.1789 -0.2998
17739TIP3   OH274707   3.715   1.874  11.106 -0.2217 -0.1248  0.2212
17739TIP3    H174708   3.634   1.837  11.142  0.0255  0.0475  0.9829
17739TIP3    H274709   3.686   1.923  11.029 -0.8581  0.0261  0.5439
17740TIP3   OH274710   3.685   0.222  16.380  0.1770  0.4991 -0.3464
17740TIP3    H174711   3.768   0.267  16.397  0.0634  1.9794 -3.0951
17740TIP3    H274712   3.691   0.195  16.289 -0.6862 -3.3391  0.5651
17741TIP3   OH274713   3.907   2.714  12.008  0.3859  0.2199 -0.4870
17741TIP3    H174714   3.937   2.636  12.056 -1.0838  0.4996  0.9670
17741TIP3    H274715   3.959   2.785  12.045  0.4392  0.1929 -0.5093
17742TIP3   OH274716   4.905   0.272  10.417 -0.1731 -0.1755  0.1918
17742TIP3    H174717   4.829   0.298  10.364 -0.1115 -1.0300 -0.3272
17742TIP3    H274718   4.875   0.284  10.508 -0.6862  0.1733 -0.0155
17743TIP3   OH274719   2.070   1.684   0.136 -0.4023  0.3890  0.6834
17743TIP3    H174720   2.150   1.635   0.118  0.5747  1.5771  1.6243
17743TIP3    H274721   2.019   1.675   0.056  0.9645  0.1509 -0.2033
17744TIP3   OH274722   0.829   0.318  12.323  0.0938  0.4700 -0.2782
17744TIP3    H174723   0.809   0.376  12.250  0.3382 -0.1192 -0.8244
17744TIP3    H274724   0.750   0.318  12.377 -0.6343 -0.2192 -1.3137
17745TIP3   OH274725   6.390   3.019   1.889  0.0835 -0.3012  0.3326
17745TIP3    H174726   6.427   3.065   1.965 -1.1973 -0.2221  0.9384
17745TIP3    H274727   6.297   3.043   1.890  0.0427 -0.3217 -1.2615
17746TIP3   OH274728   1.005   4.409  15.382 -0.2279  0.0211 -0.7385
17746TIP3    H174729   1.099   4.422  15.371 -0.4465  0.2475 -2.6915
17746TIP3    H274730   0.998   4.332  15.439  1.1292 -0.0431 -0.6252
17747TIP3   OH274731   4.638   0.870   1.186  0.1288  0.2691 -0.1690
17747TIP3    H174732   4.610   0.830   1.269 -1.3056 -0.5743 -1.0006
17747TIP3    H274733   4.593   0.954   1.183 -0.1191  0.1389 -0.2270
17748TIP3   OH274734   2.397   3.879  14.786  0.2774 -0.6972 -0.5651
17748TIP3    H174735   2.333   3.946  14.809 -1.3827 -2.7567  1.3080
17748TIP3    H274736   2.481   3.925  14.783 -0.9538  1.6719 -0.8057
17749TIP3   OH274737   5.412   1.142  16.516 -0.5115  0.0058  0.5570
17749TIP3    H174738   5.473   1.105  16.453  0.9338  0.6407  1.5430
17749TIP3    H274739   5.399   1.072  16.580 -1.0120 -0.2088  0.2265
17750TIP3   OH274740   3.886   2.848  14.878 -0.0069 -0.1033 -0.0584
17750TIP3    H174741   3.930   2.821  14.798  3.4129 -0.1868  1.6612
17750TIP3    H274742   3.917   2.938  14.893 -2.0814  0.6061  0.2466
17751TIP3   OH274743   1.406   1.938   3.592  0.4618  0.5349  0.1984
17751TIP3    H174744   1.498   1.928   3.618  0.6542  2.7686  0.5651
17751TIP3    H274745   1.409   1.958   3.499  0.1036 -2.0449 -0.4579
17752TIP3   OH274746   6.231   5.290  15.050  0.1391  0.5483  0.2146
17752TIP3    H174747   6.284   5.244  15.116  0.2832  0.9675  0.3944
17752TIP3    H274748   6.246   5.240  14.969  0.0230  0.0776  0.4811
17753TIP3   OH274749   1.945   3.028   0.665 -0.4441  0.3080  0.2393
17753TIP3    H174750   1.916   2.997   0.579 -2.0903  1.9646  0.1325
17753TIP3    H274751   2.029   2.984   0.679 -1.0125 -1.4507 -1.3672
17754TIP3   OH274752   2.029   2.412   2.477  0.0382  0.0460 -0.2063
17754TIP3    H174753   2.000   2.426   2.387  1.6784  0.7782 -0.6561
17754TIP3    H274754   2.073   2.327   2.476 -1.3078 -0.6872  0.2920
17755TIP3   OH274755   6.224   2.353  15.491 -0.8834 -0.2895 -0.4759
17755TIP3    H174756   6.239   2.440  15.455  0.5740 -0.3741 -0.1293
17755TIP3    H274757   6.283   2.347  15.566 -0.3432 -1.8712 -0.9849
17756TIP3   OH274758   6.574   6.497   4.044 -0.0001  0.3202 -0.4166
17756TIP3    H174759   6.638   6.558   4.082 -0.1323 -0.1748  0.6247
17756TIP3    H274760   6.624   6.417   4.028 -0.4100 -0.1856  0.7199
17757TIP3   OH274761   5.087   6.808  16.038  0.1812  0.5002 -0.1950
17757TIP3    H174762   4.999   6.833  16.011  0.0165 -1.5570 -1.8257
17757TIP3    H274763   5.077   6.775  16.127 -0.9754 -0.8515 -0.7854
17758TIP3   OH274764   2.401   6.453  12.639 -0.3993 -0.0369 -0.8226
17758TIP3    H174765   2.309   6.456  12.663 -0.4538 -0.3788 -0.9761
17758TIP3    H274766   2.435   6.374  12.682 -0.8005 -1.3949 -2.8310
17759TIP3   OH274767   2.158   0.543   3.115 -0.0975 -0.2492 -1.0386
17759TIP3    H174768   2.175   0.469   3.056 -0.3360 -1.9428  0.9015
17759TIP3    H274769   2.215   0.527   3.190 -1.5957  0.4623  0.3052
17760TIP3   OH274770   3.717   1.817  13.294 -0.7585 -0.1437  0.3798
17760TIP3    H174771   3.810   1.798  13.279 -0.8950  0.0072 -0.7320
17760TIP3    H274772   3.677   1.731  13.304 -0.1568 -0.1830  3.3370
17761TIP3   OH274773   2.089   0.564  11.866 -0.5009 -0.2556  0.5764
17761TIP3    H174774   2.019   0.542  11.805 -0.9406  0.4153  0.8263
17761TIP3    H274775   2.167   0.524  11.828 -0.5458  1.0339 -1.0099
17762TIP3   OH274776   0.441   4.320  11.446 -0.2051  0.1630  0.3616
17762TIP3    H174777   0.507   4.386  11.426  0.7556  0.2534  3.3061
17762TIP3    H274778   0.359   4.369  11.454  0.4966  1.0977  2.5270
17763TIP3   OH274779   6.428   1.403   2.354 -0.3807 -0.2746 -0.3462
17763TIP3    H174780   6.473   1.410   2.269  0.3603 -0.7282 -0.0093
17763TIP3    H274781   6.348   1.453   2.343  0.9969  2.0916 -0.4373
17764TIP3   OH274782   3.731   2.751  12.294 -0.6519 -0.0193 -0.0487
17764TIP3    H174783   3.762   2.799  12.217 -2.5779  0.7016 -0.4316
17764TIP3    H274784   3.712   2.663  12.261 -0.8739  0.1097 -0.2720
17765TIP3   OH274785   2.300   1.588   3.205 -0.3253 -0.4450  0.3783
17765TIP3    H174786   2.227   1.565   3.263  0.4412 -1.3341  1.0324
17765TIP3    H274787   2.329   1.504   3.170 -0.3848  0.0289 -0.8386
17766TIP3   OH274788   5.159   4.201   5.371  0.1718  0.2805  0.0634
17766TIP3    H174789   5.157   4.160   5.284 -3.5304  2.8734 -1.3618
17766TIP3    H274790   5.104   4.145   5.426  1.2681 -0.5418  0.3609
17767TIP3   OH274791   5.521   4.660  14.805  0.7730 -1.1349  0.4790
17767TIP3    H174792   5.492   4.745  14.838 -0.2120 -1.5690  0.7626
17767TIP3    H274793   5.581   4.628  14.873 -0.4340 -1.5604  1.3829
17768TIP3   OH274794   1.573   5.692   0.502 -0.7329 -0.0495  0.5895
17768TIP3    H174795   1.641   5.716   0.439 -1.5333  0.2480 -0.1752
17768TIP3    H274796   1.550   5.601   0.480 -1.7800  0.4064 -0.2765
17769TIP3   OH274797   2.003   2.297  11.340 -0.7794 -0.0142 -0.2982
17769TIP3    H174798   2.045   2.211  11.346 -1.3037 -0.2379  0.2106
17769TIP3    H274799   2.070   2.359  11.369  0.5041  0.0573 -3.0819
17770TIP3   OH274800   1.253   5.077  11.255  0.7146 -0.2592 -0.2097
17770TIP3    H174801   1.224   5.062  11.345  0.0417  1.2820 -0.1415
17770TIP3    H274802   1.223   5.000  11.206  2.0295 -1.6473  1.0543
17771TIP3   OH274803   2.424   3.670   5.157  0.1007 -0.2302 -0.6546
17771TIP3    H174804   2.428   3.614   5.235 -0.8505 -0.0493 -0.4620
17771TIP3    H274805   2.390   3.613   5.088  1.3196 -0.4974 -1.0513
17772TIP3   OH274806   3.098   6.380  15.063  0.0581 -0.1289  0.4839
17772TIP3    H174807   3.009   6.397  15.093 -0.0189 -0.9845  0.7927
17772TIP3    H274808   3.090   6.299  15.012  0.9598 -1.4029  2.2429
17773TIP3   OH274809   5.929   6.035  11.317  0.0480  0.0269 -0.4136
17773TIP3    H174810   5.908   5.994  11.232 -2.5317  1.9236 -0.8021
17773TIP3    H274811   5.929   6.129  11.299 -0.7049  0.4808  1.7051
17774TIP3   OH274812   4.020   4.453   0.872 -0.6348  0.3471 -0.1375
17774TIP3    H174813   4.057   4.371   0.904 -0.1690  0.2939 -0.7914
17774TIP3    H274814   3.934   4.428   0.839 -0.4950  0.1202 -0.3356
17775TIP3   OH274815   5.307   4.145  16.708  0.4062  0.1108  0.3471
17775TIP3    H174816   5.306   4.082  16.637 -2.2805  1.0774 -0.5979
17775TIP3    H274817   5.266   4.100  16.782  1.1496 -0.1522  0.6141
17776TIP3   OH274818   1.916   2.955   1.266  0.1390 -0.5384 -0.2350
17776TIP3    H174819   1.955   2.970   1.180  1.1451 -0.2446  0.2634
17776TIP3    H274820   1.990   2.941   1.325 -0.5096 -0.2031  0.6975
17777TIP3   OH274821   4.302   3.775  12.561  0.0050 -0.6261  0.2248
17777TIP3    H174822   4.360   3.700  12.572 -1.0116 -1.4929 -0.1736
17777TIP3    H274823   4.312   3.800  12.469 -0.5079 -1.0181  0.0533
17778TIP3   OH274824   4.187   3.850  16.762  0.6161  0.3563  0.1916
17778TIP3    H174825   4.194   3.818  16.852  0.7487  1.7078  0.6935
17778TIP3    H274826   4.136   3.931  16.770 -0.1956 -0.0052 -1.0861
17779TIP3   OH274827   1.704   4.175   3.068  0.1400 -0.0551  0.1652
17779TIP3    H174828   1.722   4.194   2.976 -2.8536 -0.9380 -0.7330
17779TIP3    H274829   1.762   4.102   3.090  0.6265 -0.0836 -1.1483
17780TIP3   OH274830   6.201   4.439  12.962  0.0107 -0.5548  0.5839
17780TIP3    H174831   6.186   4.477  12.875  1.1908 -1.3798 -0.0044
17780TIP3    H274832   6.115   4.404  12.987 -0.9199  1.7359  0.8147
17781TIP3   OH274833   6.092   6.222   3.780  0.1650  0.2068 -0.1732
17781TIP3    H174834   6.059   6.233   3.691  2.6236  2.0652 -0.9537
17781TIP3    H274835   6.081   6.309   3.820  0.6842 -0.1406  0.7520
17782TIP3   OH274836   1.487   2.842   1.410 -0.5390  0.2783 -0.0212
17782TIP3    H174837   1.457   2.929   1.436  0.9706  0.9092 -0.2832
17782TIP3    H274838   1.565   2.827   1.463 -1.6049 -1.5769  1.1039
17783TIP3   OH274839   2.786   3.528  16.894  0.0680 -0.2030 -0.3379
17783TIP3    H174840   2.841   3.531  16.816  0.0137  1.0860 -0.3445
17783TIP3    H274841   2.704   3.489  16.864 -0.7258  2.1625 -1.4580
17784TIP3   OH274842   1.443   6.050  12.072  0.0939 -0.6384  0.1964
17784TIP3    H174843   1.352   6.036  12.046  0.1589  0.4156 -0.6519
17784TIP3    H274844   1.493   6.043  11.990  0.3035  2.8146 -0.0948
17785TIP3   OH274845   0.713   2.250  13.005 -0.5259  0.8503 -0.0838
17785TIP3    H174846   0.789   2.200  12.974  0.2522  1.4252  0.8301
17785TIP3    H274847   0.646   2.184  13.022  0.2947  0.1556  0.5584
17786TIP3   OH274848   5.155   0.718   2.215 -0.5160  0.1845 -0.3546
17786TIP3    H174849   5.146   0.739   2.308 -0.0402  1.5766 -0.5975
17786TIP3    H274850   5.113   0.632   2.205  0.4807 -0.5538  1.3509
17787TIP3   OH274851   2.792   5.726  10.726  0.0220  0.2296  0.5227
17787TIP3    H174852   2.796   5.684  10.812  0.6959  0.6652  0.7152
17787TIP3    H274853   2.839   5.809  10.738 -1.6135  1.2224  0.2448
17788TIP3   OH274854   0.136   2.370  14.154  0.2814  0.1766  0.1837
17788TIP3    H174855   0.227   2.338  14.152 -0.3587 -1.7662 -1.3689
17788TIP3    H274856   0.114   2.372  14.247  1.2438 -1.4941  0.5029
17789TIP3   OH274857   6.111   5.814   2.727 -0.1388  0.8330  0.3664
17789TIP3    H174858   6.117   5.888   2.667 -0.4410 -0.0872 -0.8462
17789TIP3    H274859   6.017   5.803   2.742 -0.3071 -0.8054 -1.4701
17790TIP3   OH274860   2.283   1.006  15.653 -0.1700 -0.2125  0.0406
17790TIP3    H174861   2.262   1.099  15.644  0.6192 -0.0573 -0.2812
17790TIP3    H274862   2.378   1.004  15.661  0.1031 -1.1290 -2.3931
17791TIP3   OH274863   0.854   6.476   6.183  0.0600  0.0090 -0.2568
17791TIP3    H174864   0.780   6.443   6.233  1.5904 -4.7676 -0.7229
17791TIP3    H274865   0.827   6.466   6.091  0.5509  0.2478 -0.4313
17792TIP3   OH274866   3.662   5.616  12.017  0.0042  0.5013 -0.6678
17792TIP3    H174867   3.734   5.578  12.068 -1.5462  0.6335  1.7952
17792TIP3    H274868   3.635   5.692  12.068 -0.1241  2.1145 -2.9887
17793TIP3   OH274869   2.241   4.348  12.884 -0.3969  0.0083  0.4174
17793TIP3    H174870   2.291   4.363  12.805 -1.9854 -2.0611 -1.1114
17793TIP3    H274871   2.197   4.431  12.902  1.2784  0.9867  0.1418
17794TIP3   OH274872   6.668   0.358   1.793  0.5862 -0.0390 -0.4659
17794TIP3    H174873   6.754   0.316   1.795 -0.0409 -1.5237 -1.8674
17794TIP3    H274874   6.626   0.322   1.715 -0.1643  3.0084 -1.6176
17795TIP3   OH274875   4.897   2.425   0.548 -0.4026 -0.5933  0.0691
17795TIP3    H174876   4.981   2.459   0.579 -1.4573  2.6322 -0.3014
17795TIP3    H274877   4.842   2.421   0.626 -0.3233 -1.5264  0.0954
17796TIP3   OH274878   1.930   1.755  15.800 -0.5532 -0.0593  0.3255
17796TIP3    H174879   1.893   1.806  15.872  1.4086  1.0654  0.6113
17796TIP3    H274880   1.950   1.819  15.733 -1.6871 -1.0087 -0.9843
17797TIP3   OH274881   5.273   3.957   1.239 -0.8250 -0.3011 -0.2773
17797TIP3    H174882   5.193   3.946   1.187  0.1520 -0.5749 -1.7736
17797TIP3    H274883   5.331   4.008   1.184 -0.5026  1.2912  1.4327
17798TIP3   OH274884   6.669   4.782   6.541  0.1519  0.1331  0.3341
17798TIP3    H174885   6.719   4.788   6.622 -0.3412  1.6439  0.5501
17798TIP3    H274886   6.587   4.828   6.560 -0.8714 -1.3189 -0.3623
17799TIP3   OH274887   5.362   1.637  13.049  0.1031  0.0711 -0.4698
17799TIP3    H174888   5.390   1.559  13.003  2.6830  0.5794  0.0635
17799TIP3    H274889   5.384   1.620  13.141  2.0232  1.8547 -0.5208
17800TIP3   OH274890   4.038   1.591  10.180 -0.6958 -0.4933 -0.4863
17800TIP3    H174891   4.023   1.543  10.099  0.4365 -0.3351 -0.8107
17800TIP3    H274892   4.038   1.525  10.248 -1.2196 -0.6823 -0.6647
17801TIP3   OH274893   3.498   6.822   1.277 -0.1570  0.8218 -0.0676
17801TIP3    H174894   3.523   6.850   1.189 -0.3031 -3.5009 -1.7324
17801TIP3    H274895   3.579   6.826   1.327  0.4695  1.1326 -1.0718
17802TIP3   OH274896   5.400   2.707  11.334 -0.7242 -0.0808  0.0003
17802TIP3    H174897   5.463   2.770  11.368 -0.0124 -0.4085 -0.6855
17802TIP3    H274898   5.341   2.689  11.408  1.3232 -1.4771  1.4049
17803TIP3   OH274899   2.089   2.109  10.427  0.2243 -0.1083  0.7469
17803TIP3    H174900   2.089   2.200  10.458  0.2743 -0.1635  0.9120
17803TIP3    H274901   2.174   2.099  10.384 -0.8529  0.7596 -1.7912
17804TIP3   OH274902   1.589   1.832  16.063 -0.8149 -0.0721  0.4253
17804TIP3    H174903   1.579   1.885  15.984  0.8966 -1.4889 -0.8260
17804TIP3    H274904   1.572   1.893  16.135  1.4148  2.3521 -0.8998
17805TIP3   OH274905   0.843   4.465  16.250 -0.5089 -0.3282 -0.2545
17805TIP3    H174906   0.788   4.453  16.172 -1.1614 -2.4911  0.4655
17805TIP3    H274907   0.905   4.392  16.247  0.6437  0.5895  0.3444
17806TIP3   OH274908   5.183   2.764  13.594 -0.2103  0.1762 -0.1514
17806TIP3    H174909   5.126   2.707  13.543 -0.1265 -0.1337  0.1008
17806TIP3    H274910   5.174   2.850  13.552  1.4060 -0.4669 -1.9884
17807TIP3   OH274911   6.719   0.375  16.384  0.8691  0.3874 -0.1531
17807TIP3    H174912   6.665   0.453  16.392  1.0360  0.7352 -1.8786
17807TIP3    H274913   6.663   0.311  16.341  0.9382 -0.2425  0.6704
17808TIP3   OH274914   4.842   1.735  15.800 -0.2811  0.4751 -0.5083
17808TIP3    H174915   4.933   1.718  15.776 -0.0555 -0.2773  0.7750
17808TIP3    H274916   4.847   1.811  15.858 -0.4294  0.1813 -0.1126
17809TIP3   OH274917   1.491   5.707   3.419 -0.6086  0.2360 -0.5304
17809TIP3    H174918   1.567   5.649   3.413  0.3670  1.5603 -1.5154
17809TIP3    H274919   1.462   5.698   3.510 -1.1953 -2.5982 -0.8962
17810TIP3   OH274920   6.273   3.893   0.463  0.5098 -0.0911  0.2918
17810TIP3    H174921   6.244   3.831   0.396  1.5839  0.8229 -1.0693
17810TIP3    H274922   6.202   3.892   0.528 -1.1088 -0.1868 -1.3882
17811TIP3   OH274923   1.944   1.207  15.057  0.1372  0.6886  0.1391
17811TIP3    H174924   2.037   1.202  15.082  0.1353 -1.0106 -0.0392
17811TIP3    H274925   1.902   1.140  15.111 -0.9637  1.3058  0.0664
17812TIP3   OH274926   0.751   0.852   5.855 -0.6682 -0.3909  0.1568
17812TIP3    H174927   0.665   0.833   5.891 -0.5826  0.4589  0.8445
17812TIP3    H274928   0.813   0.826   5.923 -0.2031 -3.0211 -1.1389
17813TIP3   OH274929   1.116   2.254   3.765  0.6699 -1.0288  0.2412
17813TIP3    H174930   1.189   2.194   3.782  0.1806 -2.0362 -0.9803
17813TIP3    H274931   1.131   2.285   3.676  0.3326 -0.1724  0.4777
17814TIP3   OH274932   3.312   5.462   2.088  0.0050 -0.7861  0.6919
17814TIP3    H174933   3.385   5.417   2.046 -0.5345 -2.4839  1.4803
17814TIP3    H274934   3.293   5.410   2.166 -0.9109  0.6241  1.4534
17815TIP3   OH274935   5.153   1.309  13.476 -0.2492 -0.0144  0.1340
17815TIP3    H174936   5.210   1.235  13.457  0.5995  0.8701 -0.9433
17815TIP3    H274937   5.136   1.304  13.570  0.6196 -0.9947  0.2483
17816TIP3   OH274938   6.421   0.391   3.038 -0.4689 -0.7669  0.0565
17816TIP3    H174939   6.421   0.311   2.986  1.6524  0.5905 -2.2330
17816TIP3    H274940   6.329   0.407   3.057 -1.3433 -1.6181 -2.9535
17817TIP3   OH274941   2.620   5.888  13.810  0.0643  0.0877  0.3549
17817TIP3    H174942   2.655   5.834  13.738  0.8036 -0.3114  0.9974
17817TIP3    H274943   2.622   5.977  13.775  0.3000 -0.1144 -0.1702
17818TIP3   OH274944   2.384   4.134  13.816  0.1053  0.4228  0.0279
17818TIP3    H174945   2.388   4.229  13.832 -0.6892  0.3038  1.0690
17818TIP3    H274946   2.291   4.116  13.802  0.4615  0.0755 -2.2103
17819TIP3   OH274947   0.032   0.243  11.693  0.4428  0.1862  0.4742
17819TIP3    H174948   0.044   0.324  11.743  1.4939  0.4213 -0.1318
17819TIP3    H274949   0.060   0.174  11.752  0.4313  0.3426  0.6649
17820TIP3   OH274950   0.126   5.290  14.266 -0.6976 -0.0034  0.0483
17820TIP3    H174951   0.041   5.261  14.233 -0.0666 -0.4121 -1.2646
17820TIP3    H274952   0.158   5.216  14.318  0.2541 -1.1546 -2.0890
17821TIP3   OH274953   4.941   6.761  15.397 -0.5030 -0.1871  0.2588
17821TIP3    H174954   4.919   6.849  15.428 -1.3776 -0.3273  0.0809
17821TIP3    H274955   4.964   6.773  15.305 -2.6121 -0.3779 -0.3446
17822TIP3   OH274956   2.107   6.746  15.468 -0.2965 -0.5692 -0.9373
17822TIP3    H174957   2.129   6.671  15.522  0.1709 -1.1086 -1.8406
17822TIP3    H274958   2.101   6.710  15.379 -2.6691 -0.0399 -1.0594
17823TIP3   OH274959   5.946   3.005   0.214  0.6756 -0.3259 -0.6311
17823TIP3    H174960   6.034   2.984   0.184 -0.0895  0.2622 -3.6256
17823TIP3    H274961   5.889   2.979   0.142 -1.2254  2.9178 -0.4961
17824TIP3   OH274962   6.240   6.521  13.114 -0.2252 -0.0076 -0.2262
17824TIP3    H174963   6.226   6.431  13.144 -0.6309  0.0557 -0.2190
17824TIP3    H274964   6.241   6.572  13.195  0.2698 -0.0373 -0.2116
17825TIP3   OH274965   4.264   2.686  13.633 -0.5176 -0.7031  0.4669
17825TIP3    H174966   4.354   2.661  13.613 -0.8193 -0.7760 -0.8688
17825TIP3    H274967   4.212   2.650  13.561 -1.2067  2.0458 -0.5189
17826TIP3   OH274968   5.997   0.195  11.417  0.1059  0.0472 -0.0411
17826TIP3    H174969   6.029   0.257  11.483 -0.6267  1.3326 -0.8665
17826TIP3    H274970   6.036   0.224  11.335  1.2796 -1.7397 -0.1878
17827TIP3   OH274971   3.015   6.188  12.324 -0.2082  0.1743 -0.2926
17827TIP3    H174972   2.951   6.130  12.284  0.4185  0.6120 -2.0179
17827TIP3    H274973   3.099   6.162  12.285  0.1700  1.8125 -0.6452
17828TIP3   OH274974   2.170   2.682   0.206  0.0572  0.3027 -0.2016
17828TIP3    H174975   2.224   2.626   0.261  0.9820  1.2340 -0.1363
17828TIP3    H274976   2.081   2.650   0.220  0.6717 -2.1635 -1.3632
17829TIP3   OH274977   4.876   4.982   4.092  0.5526 -0.2839 -0.4313
17829TIP3    H174978   4.930   5.039   4.146  0.6614 -1.2520  0.5084
17829TIP3    H274979   4.870   5.027   4.008  0.9921  0.8900  0.1498
17830TIP3   OH274980   5.803   4.710  13.534 -0.3345 -0.1405  0.5144
17830TIP3    H174981   5.878   4.650  13.537  1.2372  1.7336  1.1910
17830TIP3    H274982   5.780   4.714  13.441  2.2948  1.3362 -0.1738
17831TIP3   OH274983   5.271   5.779  15.825 -0.4159 -0.0282 -0.1298
17831TIP3    H174984   5.355   5.762  15.867  1.1459 -0.8234 -3.3215
17831TIP3    H274985   5.226   5.694  15.826 -0.6618  0.1030  0.4422
17832TIP3   OH274986   1.569   1.001  14.836  0.2760 -0.0139  0.2229
17832TIP3    H174987   1.559   1.095  14.821 -3.1733 -0.3910 -0.8278
17832TIP3    H274988   1.606   0.994  14.924  1.7806  2.2800 -0.1404
17833TIP3   OH274989   6.163   3.849  15.890 -0.3045 -0.3077 -0.0684
17833TIP3    H174990   6.194   3.812  15.973  0.2799 -0.6845 -0.4538
17833TIP3    H274991   6.222   3.922  15.873 -0.6083 -0.0466 -0.0063
17834TIP3   OH274992   4.966   4.631  13.443  0.3187 -0.1394 -0.4798
17834TIP3    H174993   4.890   4.583  13.411  0.3109 -0.1627 -0.4267
17834TIP3    H274994   5.041   4.576  13.421  0.3105 -0.1724 -0.4263
17835TIP3   OH274995   1.274   1.049  16.883 -0.0516  0.1509  0.4528
17835TIP3    H174996   1.355   1.000  16.896  1.2181  2.2178  0.9954
17835TIP3    H274997   1.212   1.011  16.945  0.3700 -1.6623 -0.1769
17836TIP3   OH274998   5.578   3.269  15.866 -0.4232  0.0863 -0.2390
17836TIP3    H174999   5.631   3.234  15.938  0.2508 -2.6579 -1.9558
17836TIP3    H275000   5.564   3.361  15.890  0.6391 -0.4373  2.8552
17837TIP3   OH275001   1.246   6.724   0.945  0.3794 -0.2188 -0.5517
17837TIP3    H175002   1.250   6.725   1.041  0.1026 -0.2523 -0.5385
17837TIP3    H275003   1.292   6.803   0.918  2.0655 -1.1328 -0.4534
17838TIP3   OH275004   6.016   3.521   2.000 -0.0953 -0.5149 -0.0117
17838TIP3    H175005   6.062   3.550   2.078 -0.3405 -2.7410  1.0213
17838TIP3    H275006   5.924   3.541   2.017  0.0808  1.3636 -0.9029
17839TIP3   OH275007   5.505   5.453   5.072  0.2322  0.1568 -0.5649
17839TIP3    H175008   5.450   5.379   5.101  1.7199 -0.2752  1.3843
17839TIP3    H275009   5.479   5.525   5.130  0.3378  0.5128 -0.9615
17840TIP3   OH275010   1.815   6.706   2.281 -0.1638  0.2005 -0.0880
17840TIP3    H175011   1.794   6.799   2.287 -0.4290  0.1237  0.2449
17840TIP3    H275012   1.889   6.694   2.340  1.0164  0.5180 -1.4549
17841TIP3   OH275013   0.578   4.882  11.848  0.0876  0.1819  0.1261
17841TIP3    H175014   0.544   4.818  11.911 -0.8474 -0.8720 -1.3619
17841TIP3    H275015   0.510   4.888  11.781  1.5787  0.2601 -1.4603
17842TIP3   OH275016   6.706   4.105   0.775  0.4231 -0.1343  0.4978
17842TIP3    H175017   6.629   4.120   0.721  1.1274 -0.8835 -0.7463
17842TIP3    H275018   6.748   4.028   0.737  1.9896  0.4729  0.9114
17843TIP3   OH275019   1.105   3.695  13.297  1.0206 -0.1313  0.3884
17843TIP3    H175020   1.062   3.669  13.216 -0.8340  1.5614  0.7576
17843TIP3    H275021   1.115   3.614  13.346  0.6874 -0.9404 -0.8310
17844TIP3   OH275022   0.910   5.646  16.327  0.1384 -0.5047 -0.8536
17844TIP3    H175023   0.881   5.590  16.255 -1.1272  0.5768 -1.2320
17844TIP3    H275024   0.957   5.718  16.285  0.6030 -0.5924 -0.4879
17845TIP3   OH275025   2.834   3.903  14.985  0.3806  0.4678  0.7820
17845TIP3    H175026   2.878   3.876  15.065 -0.4023  0.4910  1.2275
17845TIP3    H275027   2.822   3.822  14.936  0.3829  0.3803  0.9269
17846TIP3   OH275028   0.831   3.662   5.533 -0.3965 -0.5829  0.9495
17846TIP3    H175029   0.779   3.693   5.607  1.6601  1.6238  1.6174
17846TIP3    H275030   0.786   3.696   5.456 -0.6678  0.1826  1.4264
17847TIP3   OH275031   4.987   4.963  12.736  0.2894  0.0730 -0.5051
17847TIP3    H175032   4.913   4.981  12.795  0.8990  1.7365 -0.2037
17847TIP3    H275033   4.953   4.982  12.649 -0.1269 -0.8363 -0.5603
17848TIP3   OH275034   6.123   4.797   3.977  0.5567 -0.9467 -0.7914
17848TIP3    H175035   6.129   4.712   3.933  1.6379 -0.6832 -1.1975
17848TIP3    H275036   6.083   4.778   4.062 -1.8651 -1.4355 -1.9370
17849TIP3   OH275037   6.377   5.338  17.195  0.1603  0.1481 -0.1293
17849TIP3    H175038   6.360   5.355  17.102  0.9690  0.8199 -0.1617
17849TIP3    H275039   6.399   5.245  17.199  1.7647  0.4664 -0.8613
17850TIP3   OH275040   4.323   3.423  16.255  0.0521 -0.0200  0.6064
17850TIP3    H175041   4.411   3.428  16.293  0.7038 -2.0933 -0.4603
17850TIP3    H275042   4.297   3.514  16.244  2.4763  0.6922  0.0736
17851TIP3   OH275043   2.224   3.007   2.001  0.0795 -0.3068  0.5838
17851TIP3    H175044   2.176   2.960   2.070  0.8091 -0.8823  0.7125
17851TIP3    H275045   2.178   3.090   1.993 -1.1489 -0.9719  0.4608
17852TIP3   OH275046   6.363   1.600  15.017  0.7302  0.5946  0.6648
17852TIP3    H175047   6.444   1.553  15.038  1.6387  1.4390 -0.7894
17852TIP3    H275048   6.379   1.690  15.045  0.8394  1.0694 -0.8113
17853TIP3   OH275049   2.232   6.068  13.909 -0.3992 -0.2435 -0.3877
17853TIP3    H175050   2.258   6.002  13.845 -0.1344  1.5095 -2.1698
17853TIP3    H275051   2.210   6.145  13.857  0.8285  1.6228  1.6643
17854TIP3   OH275052   4.818   5.087   5.912 -0.3037 -0.0870  0.2039
17854TIP3    H175053   4.757   5.022   5.878 -0.6723  0.1724  0.3655
17854TIP3    H275054   4.792   5.099   6.003 -0.1781  0.2177  0.1999
17855TIP3   OH275055   2.157   5.574   2.475  0.0222  0.1403  0.1392
17855TIP3    H175056   2.063   5.564   2.483  0.0582 -1.1172 -0.7691
17855TIP3    H275057   2.173   5.667   2.489 -1.2916  0.2844  0.7568
17856TIP3   OH275058   6.318   0.122  16.891 -0.6132 -0.3227 -0.1465
17856TIP3    H175059   6.302   0.059  16.821 -0.7306 -0.3647 -0.0815
17856TIP3    H275060   6.239   0.177  16.893 -0.7302 -0.4967  0.1355
17857TIP3   OH275061   2.880   6.096   4.111  0.1173  0.7899  0.5164
17857TIP3    H175062   2.882   6.192   4.119  2.2504  0.7272  1.2921
17857TIP3    H275063   2.947   6.076   4.046 -0.7904 -0.1724 -0.1583
17858TIP3   OH275064   2.772   4.265   1.862  0.0099 -0.2056 -0.0739
17858TIP3    H175065   2.681   4.236   1.874 -0.3051  1.1747  1.2858
17858TIP3    H275066   2.792   4.314   1.942  2.9266 -2.7372  0.9375
17859TIP3   OH275067   0.374   4.834   4.077 -0.1526 -0.2849 -0.4913
17859TIP3    H175068   0.338   4.875   4.157  1.2854 -0.4829  0.3003
17859TIP3    H275069   0.298   4.802   4.030 -1.0469 -0.2633  0.8737
17860TIP3   OH275070   6.474   6.591  10.580 -0.0211 -0.4707 -0.3368
17860TIP3    H175071   6.400   6.564  10.525 -0.9092 -0.3710  0.7550
17860TIP3    H275072   6.507   6.510  10.618 -1.6716 -0.3064  1.6882
17861TIP3   OH275073   1.144   3.002  14.241  0.1400  0.8133  0.3780
17861TIP3    H175074   1.100   3.045  14.314 -1.0795  0.6999 -0.2710
17861TIP3    H275075   1.074   2.962  14.190  1.1316 -0.8629  0.2542
17862TIP3   OH275076   4.355   1.894  12.053  0.5772  0.0355 -0.2535
17862TIP3    H175077   4.311   1.925  12.133 -0.0252  1.7467 -1.1862
17862TIP3    H275078   4.284   1.879  11.991  1.0925 -0.4024 -0.7439
17863TIP3   OH275079   3.535   5.699  15.773 -0.1048 -0.3762 -0.1906
17863TIP3    H175080   3.451   5.743  15.762 -0.6967 -1.2052  0.7964
17863TIP3    H275081   3.530   5.659  15.860  2.0586  1.1638  0.7630
17864TIP3   OH275082   3.155   1.509   1.227  0.2606 -0.3963  0.1531
17864TIP3    H175083   3.102   1.439   1.188 -1.6722  1.6409 -1.1051
17864TIP3    H275084   3.100   1.544   1.298  0.4084  0.9353 -0.3564
17865TIP3   OH275085   4.386   1.858  16.429  0.0130  0.3199  0.1637
17865TIP3    H175086   4.339   1.783  16.465  2.0482 -0.2677  1.7563
17865TIP3    H275087   4.447   1.820  16.366  0.6269  0.6890  0.5263
17866TIP3   OH275088   0.837   0.667   2.337  0.0485 -0.2479  0.0884
17866TIP3    H175089   0.902   0.657   2.267  1.9068  0.9850  1.5361
17866TIP3    H275090   0.843   0.586   2.387  0.5747 -0.0770  0.3024
17867TIP3   OH275091   6.200   4.861  10.858  0.5230  0.1295  0.3718
17867TIP3    H175092   6.107   4.861  10.881  0.9175  0.5706  2.1534
17867TIP3    H275093   6.213   4.777  10.814 -0.3002 -0.9670  2.0863
17868TIP3   OH275094   1.681   6.722  15.737  0.4066  0.0082  1.0692
17868TIP3    H175095   1.662   6.798  15.682  1.3866 -0.0440  0.6365
17868TIP3    H275096   1.745   6.754  15.801  1.7902 -0.7344  0.1063
17869TIP3   OH275097   1.259   4.268   6.468  0.1727  0.5377 -0.3380
17869TIP3    H175098   1.354   4.265   6.462  0.3603 -0.1687  1.8823
17869TIP3    H275099   1.230   4.189   6.423  0.7634 -0.0327  0.2517
17870TIP3   OH275100   0.842   0.562  15.583  0.1830 -0.5255 -0.0590
17870TIP3    H175101   0.818   0.541  15.673 -0.7104  0.5783 -0.0217
17870TIP3    H275102   0.805   0.491  15.530  1.2916 -1.5434  0.4764
17871TIP3   OH275103   5.574   1.509   0.002 -0.0311 -0.2604 -0.6457
17871TIP3    H175104   5.647   1.487  -0.055  0.1869  1.1715 -0.9480
17871TIP3    H275105   5.588   1.600   0.026 -2.0242  0.2323 -1.1873
17872TIP3   OH275106   0.550   6.705  13.708 -0.1267 -0.0548  0.4780
17872TIP3    H175107   0.621   6.648  13.680 -0.2978 -0.3172  0.5717
17872TIP3    H275108   0.537   6.682  13.800  0.5487  0.9189  0.8337
17873TIP3   OH275109   4.926   1.008   3.699 -0.3091  0.5459 -0.1226
17873TIP3    H175110   4.913   1.102   3.692  1.1749  0.7720 -0.0940
17873TIP3    H275111   4.874   0.982   3.775 -1.1352  1.2449 -0.4349
17874TIP3   OH275112   3.008   5.628  15.478  0.6779  0.1577 -0.1278
17874TIP3    H175113   2.917   5.612  15.453  1.4020 -2.1696 -1.5903
17874TIP3    H275114   3.039   5.544  15.511  2.4803  0.7146 -0.3122
17875TIP3   OH275115   2.653   2.684  14.757  0.5254  0.2320 -0.6110
17875TIP3    H175116   2.677   2.635  14.679  4.2964  0.2271  0.3298
17875TIP3    H275117   2.706   2.764  14.752  0.0441  0.7297  1.3889
17876TIP3   OH275118   3.187   3.589  12.808  0.4228 -0.0774 -0.3689
17876TIP3    H175119   3.232   3.674  12.811 -2.1681  1.3837  2.3771
17876TIP3    H275120   3.188   3.565  12.715  3.5666  1.5664 -0.8857
17877TIP3   OH275121   4.195   2.021  15.578 -0.4575 -0.6598  0.5675
17877TIP3    H175122   4.184   2.008  15.483  0.1032 -0.6683  0.5037
17877TIP3    H275123   4.278   1.979  15.599 -0.5749 -0.6453  1.0643
17878TIP3   OH275124   4.067   5.801   0.944 -0.3338 -0.1452 -0.0884
17878TIP3    H175125   4.149   5.791   0.896 -0.6116  0.8524 -0.7939
17878TIP3    H275126   4.072   5.888   0.983 -1.6265  0.5193 -1.3072
17879TIP3   OH275127   2.184   0.289  11.469  0.2713 -0.3750  0.0134
17879TIP3    H175128   2.254   0.230  11.442  1.2001  0.6438  0.1227
17879TIP3    H275129   2.117   0.232  11.505  0.6950 -1.4409 -0.8319
17880TIP3   OH275130   1.234   1.690  15.005 -0.2901  0.3467 -0.0381
17880TIP3    H175131   1.274   1.771  14.971  1.7782 -0.3861  0.4592
17880TIP3    H275132   1.242   1.698  15.100 -0.0214 -0.4404  0.0128
17881TIP3   OH275133   1.651   0.355  15.364 -0.2395  0.5220  0.7334
17881TIP3    H175134   1.600   0.325  15.289 -0.1158  1.7300  0.1315
17881TIP3    H275135   1.728   0.298  15.366  0.6901  1.6053 -1.2074
17882TIP3   OH275136   6.152   4.311  11.753  0.6599 -0.3416  0.6879
17882TIP3    H175137   6.244   4.288  11.748  0.6529 -0.3473  0.5654
17882TIP3    H275138   6.110   4.258  11.685  0.4920 -0.6988  1.0652
17883TIP3   OH275139   2.908   6.235   1.101  0.2417  0.3933  0.1604
17883TIP3    H175140   2.828   6.229   1.154  0.0455 -0.5346 -0.2162
17883TIP3    H275141   2.888   6.184   1.023  2.2250 -2.4059  1.3307
17884TIP3   OH275142   2.858   2.075   1.420  0.1255  0.5894 -0.1524
17884TIP3    H175143   2.832   2.096   1.510  0.9912  0.4945  0.1262
17884TIP3    H275144   2.953   2.063   1.424  0.0041 -0.7598 -0.8262
17885TIP3   OH275145   2.155   5.269  14.154  1.2020 -0.8130 -0.0237
17885TIP3    H175146   2.137   5.266  14.060 -0.2281  0.5516  0.1681
17885TIP3    H275147   2.239   5.314  14.161  0.7040  0.2491 -0.6199
17886TIP3   OH275148   5.328   3.270   6.460  0.4212 -0.4435 -0.2396
17886TIP3    H175149   5.355   3.191   6.414  1.4430  0.5483 -1.4363
17886TIP3    H275150   5.407   3.324   6.463 -0.4274  0.8408 -0.1295
17887TIP3   OH275151   6.465   5.413  11.339 -0.2188  0.2293  0.2331
17887TIP3    H175152   6.456   5.326  11.302 -3.0593 -0.1769  1.6092
17887TIP3    H275153   6.456   5.400  11.434  2.3140  1.7336  0.7796
17888TIP3   OH275154   1.860   1.249   4.021 -0.1563 -0.1242 -0.0406
17888TIP3    H175155   1.914   1.205   4.086  0.7493 -1.0314 -1.3603
17888TIP3    H275156   1.923   1.292   3.962 -0.9522  0.8120 -0.2360
17889TIP3   OH275157   4.096   4.599  13.887  0.7274  0.0673  0.4115
17889TIP3    H175158   4.011   4.637  13.866 -0.4345 -2.8928 -0.8591
17889TIP3    H275159   4.156   4.637  13.824  0.3508  2.0382  1.1858
17890TIP3   OH275160   0.397   5.572  16.280  0.2100  0.1111 -0.2616
17890TIP3    H175161   0.477   5.605  16.321  1.2296 -0.1128 -1.9548
17890TIP3    H275162   0.378   5.636  16.210 -0.0653 -0.7714 -1.0083
17891TIP3   OH275163   3.425   1.540  16.852  0.2532  0.8611 -0.0714
17891TIP3    H175164   3.402   1.567  16.763 -2.1982 -0.8803 -0.0697
17891TIP3    H275165   3.368   1.465  16.870  1.3158  0.5863  2.6524
17892TIP3   OH275166   4.552   4.912  14.549  0.5212 -0.1215  0.2033
17892TIP3    H175167   4.617   4.873  14.491  1.9202  0.4493  1.3492
17892TIP3    H275168   4.588   4.903  14.637  0.4756  2.7855  0.6380
17893TIP3   OH275169   1.026   0.616  16.326  0.5273 -0.0624 -0.3939
17893TIP3    H175170   1.115   0.584  16.341  0.2180 -0.9735 -0.4513
17893TIP3    H275171   1.015   0.687  16.389  1.2131 -0.1031 -0.2218
17894TIP3   OH275172   6.193   2.880  12.341 -0.6758 -1.1152  0.0002
17894TIP3    H175173   6.255   2.904  12.409  0.2625  0.6304 -1.3832
17894TIP3    H275174   6.207   2.945  12.272 -2.6578 -1.8776 -1.2078
17895TIP3   OH275175   0.491   3.954   1.098  0.4205  0.0802  0.2503
17895TIP3    H175176   0.438   3.880   1.069  2.1392 -0.3119 -2.3017
17895TIP3    H275177   0.433   4.029   1.090 -0.0216 -0.4019 -1.9453
17896TIP3   OH275178   0.942   3.969   3.711  0.2475 -0.2843  0.2285
17896TIP3    H175179   0.893   4.047   3.736 -0.6807 -0.6455 -0.4020
17896TIP3    H275180   0.931   3.909   3.785 -0.3236 -0.3875  0.0613
17897TIP3   OH275181   2.592   4.807  14.870  0.2205  0.4295  0.6251
17897TIP3    H175182   2.659   4.864  14.907  2.1626 -0.4880 -1.2199
17897TIP3    H275183   2.584   4.735  14.932  1.8222 -0.0125  0.3601
17898TIP3   OH275184   3.892   5.306  11.866 -0.6619 -0.7033 -0.5153
17898TIP3    H175185   3.867   5.214  11.858  0.9822 -1.2164 -0.2205
17898TIP3    H275186   3.889   5.323  11.960 -0.4709 -0.6184 -0.5239
17899TIP3   OH275187   4.047   1.726   3.079  0.4936  0.0771  0.2911
17899TIP3    H175188   3.992   1.649   3.063  0.0244  0.7191 -1.4168
17899TIP3    H275189   3.997   1.778   3.142 -1.6162  1.2831 -2.1954
17900TIP3   OH275190   5.729   1.712  14.302 -0.0284  0.1210  0.2820
17900TIP3    H175191   5.654   1.708  14.243 -0.3909  2.6531  0.4602
17900TIP3    H275192   5.722   1.632  14.354 -1.7163 -0.4558 -0.7425
17901TIP3   OH275193   6.182   4.261  16.175 -0.4338 -0.1131 -0.0965
17901TIP3    H175194   6.271   4.226  16.172 -0.1221  0.6801 -0.4929
17901TIP3    H275195   6.153   4.246  16.265 -0.1409 -0.9480 -0.1296
17902TIP3   OH275196   0.831   3.190  15.176  0.2342 -0.3195  0.1272
17902TIP3    H175197   0.906   3.183  15.236  0.4753 -0.8960 -0.2313
17902TIP3    H275198   0.758   3.150  15.224  0.1847  0.1165  0.4224
17903TIP3   OH275199   2.281   6.392  16.067 -0.1615 -0.4174 -0.5223
17903TIP3    H175200   2.190   6.370  16.046 -0.1142 -0.1442 -1.0487
17903TIP3    H275201   2.326   6.308  16.070  0.0172 -0.4585 -2.5086
17904TIP3   OH275202   0.364   2.326   2.543  0.1851  0.4147 -0.3594
17904TIP3    H175203   0.332   2.244   2.580  1.4404 -0.3464 -0.8856
17904TIP3    H275204   0.408   2.370   2.616  0.6060  0.0226 -0.3756
17905TIP3   OH275205   1.767   6.321  13.966  0.0514  0.3197  0.1760
17905TIP3    H175206   1.835   6.331  14.032  0.9713 -3.6574  0.1303
17905TIP3    H275207   1.737   6.230  13.976 -1.8240  0.4223 -2.9590
17906TIP3   OH275208   0.029   5.127  13.228  0.4265 -0.4379 -0.5890
17906TIP3    H175209   0.099   5.113  13.165  0.7698  1.4941 -0.6871
17906TIP3    H275210   0.036   5.220  13.252 -1.1454 -0.5730  0.5407
17907TIP3   OH275211   2.392   2.782  16.340  0.2485 -0.0602 -0.1826
17907TIP3    H175212   2.449   2.734  16.280  0.0437  0.1094 -0.5095
17907TIP3    H275213   2.440   2.863  16.359  0.0530  0.1415 -0.5605
17908TIP3   OH275214   3.087   2.464  16.262  0.0626 -0.0501 -0.2380
17908TIP3    H175215   3.170   2.449  16.308 -0.0827  0.9185  0.3780
17908TIP3    H275216   3.092   2.555  16.233 -0.1838 -0.4236 -1.4823
17909TIP3   OH275217   1.821   3.243   3.159  0.7231 -0.1120  1.3598
17909TIP3    H175218   1.879   3.283   3.094 -0.3931 -0.4964  0.0786
17909TIP3    H275219   1.808   3.312   3.224 -0.3241  1.3353 -0.2656
17910TIP3   OH275220   4.686   5.813  17.167  0.1271  0.1256 -0.2644
17910TIP3    H175221   4.755   5.848  17.223  1.9652 -0.2874 -2.1818
17910TIP3    H275222   4.716   5.726  17.142 -2.2263 -1.0526  0.7132
17911TIP3   OH275223   2.098   3.279  15.546 -0.4587  0.2180  0.3217
17911TIP3    H175224   2.087   3.201  15.600 -1.8850  1.0043  1.2249
17911TIP3    H275225   2.140   3.247  15.466  1.4833 -1.0020  1.7711
17912TIP3   OH275226   5.004   6.534   3.739  0.0307 -0.3671 -0.0447
17912TIP3    H175227   5.022   6.470   3.670  2.2854  0.3314 -0.1964
17912TIP3    H275228   5.082   6.531   3.794 -2.4492 -2.3721  3.8052
17913TIP3   OH275229   4.890   2.035  10.536 -0.2570 -0.2191 -0.2442
17913TIP3    H175230   4.905   1.942  10.554 -1.5070 -0.6047 -1.0616
17913TIP3    H275231   4.814   2.058  10.589 -0.4281  0.1212 -0.6278
17914TIP3   OH275232   1.070   4.053  13.545 -0.6722 -0.1779 -0.2651
17914TIP3    H175233   1.025   4.134  13.569  1.2252  1.3814 -1.7136
17914TIP3    H275234   1.055   4.044  13.450  0.7791 -0.4386 -0.4894
17915TIP3   OH275235   4.910   6.571  17.126  0.2954  0.1074 -0.3752
17915TIP3    H175236   4.816   6.567  17.106 -0.0789  1.6524  0.8279
17915TIP3    H275237   4.948   6.620  17.052  0.3235 -1.2286 -1.2766
17916TIP3   OH275238   5.431   6.529   2.096 -0.4498 -0.6224 -0.6362
17916TIP3    H175239   5.481   6.480   2.161  0.2734 -0.6641 -1.2137
17916TIP3    H275240   5.486   6.528   2.017 -0.0677  1.6770 -0.4832
17917TIP3   OH275241   2.037   2.436  16.917 -0.0230  0.1341 -0.1007
17917TIP3    H175242   1.946   2.405  16.923 -0.4264  1.1297 -0.8293
17917TIP3    H275243   2.036   2.501  16.847  1.1004  0.7156  0.3900
17918TIP3   OH275244   6.403   5.449   1.068  0.4906  0.1012 -0.3859
17918TIP3    H175245   6.481   5.396   1.053 -0.2568 -1.4385  0.8515
17918TIP3    H275246   6.425   5.504   1.143  0.3940 -0.3389 -0.0324
17919TIP3   OH275247   3.415   0.394   0.020 -0.5762  0.4732 -0.1918
17919TIP3    H175248   3.510   0.401   0.012 -0.3706 -1.7488 -0.1792
17919TIP3    H275249   3.381   0.460  -0.041  0.9820 -0.3843 -2.0669
17920TIP3   OH275250   6.404   4.960   6.079  0.6361  0.5939  0.3944
17920TIP3    H175251   6.446   4.876   6.062 -2.1081 -0.7965 -0.1053
17920TIP3    H275252   6.475   5.016   6.112  2.9106 -1.3520 -0.8538
17921TIP3   OH275253   4.219   0.436  16.166 -0.3655  0.0339 -0.1845
17921TIP3    H175254   4.201   0.475  16.252 -0.2968 -0.4720  0.0660
17921TIP3    H275255   4.294   0.485  16.133  2.9703 -2.8976  2.2539
17922TIP3   OH275256   4.505   4.141  14.443  0.8043 -0.1092  0.3174
17922TIP3    H175257   4.524   4.062  14.494 -2.1232 -1.0411  0.1576
17922TIP3    H275258   4.479   4.108  14.357  0.9148  1.1346 -0.2095
17923TIP3   OH275259   4.738   2.793  13.561 -0.2820 -0.8125 -0.1000
17923TIP3    H175260   4.725   2.759  13.472 -1.8058 -1.0002  0.1704
17923TIP3    H275261   4.652   2.827  13.586  0.4112  0.2782  0.8832
17924TIP3   OH275262   5.127   1.359  11.696 -0.8166  0.4023  0.6096
17924TIP3    H175263   5.059   1.366  11.763 -0.7381  0.2315  0.7073
17924TIP3    H275264   5.206   1.338  11.745 -0.7458  0.3444  0.4700
17925TIP3   OH275265   0.119   4.761   2.965 -0.0754 -0.0989  0.4984
17925TIP3    H175266   0.089   4.705   3.037  1.6881 -2.2749 -0.3568
17925TIP3    H275267   0.097   4.712   2.886  1.3258  0.5232 -0.3114
17926TIP3   OH275268   0.750   1.542  13.247 -0.1287 -0.1076  0.0730
17926TIP3    H175269   0.680   1.490  13.285  0.1900 -1.0630 -0.6069
17926TIP3    H275270   0.816   1.549  13.316  1.2330 -3.3060 -0.7119
17927TIP3   OH275271   1.517   5.750  11.930 -0.2508  0.3984  0.1076
17927TIP3    H175272   1.596   5.697  11.933 -0.4121  0.1952  0.9719
17927TIP3    H275273   1.525   5.800  11.849 -0.6180 -1.7402 -1.3119
17928TIP3   OH275274   2.088   5.040  13.527 -0.0554 -0.0969  0.1288
17928TIP3    H175275   2.098   4.985  13.605 -0.2402  0.5277  0.6013
17928TIP3    H275276   2.059   4.979  13.459 -0.2286 -0.5941  0.6344
17929TIP3   OH275277   2.034   0.755   2.372 -0.1878  0.5906  0.3038
17929TIP3    H175278   2.078   0.671   2.359 -1.7714 -0.1285 -0.7116
17929TIP3    H275279   2.032   0.794   2.285 -0.1012  1.3796  0.6451
17930TIP3   OH275280   5.502   5.350  16.280 -0.0539  0.6089 -0.3267
17930TIP3    H175281   5.535   5.408  16.349 -0.4772  1.9556 -1.2048
17930TIP3    H275282   5.406   5.358  16.287 -0.2224 -1.8109  1.0120
17931TIP3   OH275283   1.814   0.151  13.682 -0.4713  0.5662 -0.1278
17931TIP3    H175284   1.905   0.148  13.709  0.4975  1.1283 -2.9364
17931TIP3    H275285   1.776   0.070  13.715  1.5036 -0.4671 -0.2429
17932TIP3   OH275286   4.333   6.100  14.849 -0.1412  0.1761  0.3311
17932TIP3    H175287   4.247   6.121  14.885  0.6453  2.0744  1.2593
17932TIP3    H275288   4.372   6.041  14.914  0.3687  1.7222  1.4951
17933TIP3   OH275289   3.273   5.419  16.957 -0.7997 -0.3167  0.1515
17933TIP3    H175290   3.342   5.403  16.893 -0.5784  1.0985 -0.0046
17933TIP3    H275291   3.320   5.432  17.040 -0.7456  1.5359 -0.1136
17934TIP3   OH275292   6.065   6.448   3.931 -0.2800 -0.3682 -0.0170
17934TIP3    H175293   6.057   6.430   4.025  0.9045 -0.5735  0.0594
17934TIP3    H275294   6.146   6.498   3.923 -0.1338 -0.7326 -0.9789
17935TIP3   OH275295   1.400   6.141   5.111  0.1714  0.3179  0.8029
17935TIP3    H175296   1.429   6.067   5.164 -1.0344  0.2550  1.4264
17935TIP3    H275297   1.393   6.213   5.173  0.5371  0.7443  0.3577
17936TIP3   OH275298   5.320   3.044  15.940 -0.3596  0.3874  0.2738
17936TIP3    H175299   5.414   3.033  15.955 -0.2613 -0.1877 -0.7200
17936TIP3    H275300   5.311   3.134  15.907 -0.1578  0.4267  0.3274
17937TIP3   OH275301   2.432   0.967   2.354  0.2820 -0.8724  1.0633
17937TIP3    H175302   2.414   0.900   2.289 -3.4967 -0.6538  1.6732
17937TIP3    H275303   2.402   1.049   2.313  1.0748 -0.1844  1.8149
17938TIP3   OH275304   0.588   5.696   3.436  0.3909 -0.4436  0.1350
17938TIP3    H175305   0.492   5.696   3.430  0.2380  0.4517  1.9264
17938TIP3    H275306   0.616   5.632   3.371 -1.3913 -0.3831 -0.7599
17939TIP3   OH275307   3.135   3.796   0.904 -0.4073 -0.2826 -0.4935
17939TIP3    H175308   3.088   3.845   0.971 -1.5034 -1.5818 -0.2637
17939TIP3    H275309   3.222   3.782   0.941 -1.1009 -1.2864  0.8445
17940TIP3   OH275310   5.269   2.365   3.257  0.3279  0.4046  0.3155
17940TIP3    H175311   5.209   2.301   3.218  1.0122 -0.4918  0.6812
17940TIP3    H275312   5.270   2.343   3.351  2.6136 -0.8337  0.0784
17941TIP3   OH275313   2.946   3.533   3.851  0.6564  0.4472 -0.0814
17941TIP3    H175314   2.905   3.608   3.895 -0.1593 -0.3115  0.5014
17941TIP3    H275315   2.876   3.494   3.799  1.3235  0.6437 -1.1470
17942TIP3   OH275316   2.706   1.511   6.170  0.4709 -0.4591 -0.5613
17942TIP3    H175317   2.725   1.470   6.255 -0.0654 -1.6409 -0.9831
17942TIP3    H275318   2.612   1.529   6.173  0.7372  1.0112 -0.2958
17943TIP3   OH275319   1.388   2.111  13.668  0.2256 -0.6255 -0.5578
17943TIP3    H175320   1.383   2.148  13.756 -0.6230  0.0396 -0.8730
17943TIP3    H275321   1.305   2.135  13.627  1.1755  0.3389 -2.0313
17944TIP3   OH275322   5.223   1.320  13.069  0.5524 -0.5692  0.6518
17944TIP3    H175323   5.262   1.264  13.136 -0.9012 -0.7988  1.3497
17944TIP3    H275324   5.178   1.388  13.119  0.3000 -0.1587 -0.1319
17945TIP3   OH275325   4.960   2.632  14.093 -0.3583 -0.0857  0.7216
17945TIP3    H175326   4.972   2.572  14.167  1.8413  1.0255  1.3265
17945TIP3    H275327   4.921   2.710  14.132 -1.9128 -0.5501  0.1661
17946TIP3   OH275328   6.510   4.419  12.756 -0.0420 -0.1046 -0.1305
17946TIP3    H175329   6.448   4.346  12.754 -0.6740  0.4381 -1.0169
17946TIP3    H275330   6.561   4.405  12.835  1.4851 -2.8237 -1.4773
17947TIP3   OH275331   1.662   0.132  12.356 -0.0647  0.0363 -0.2819
17947TIP3    H175332   1.681   0.212  12.307  0.3870 -0.9387 -1.7760
17947TIP3    H275333   1.730   0.071  12.328  0.3241 -0.5239  1.7428
17948TIP3   OH275334   2.605   4.215  14.212  0.5467 -0.5369  0.1423
17948TIP3    H175335   2.562   4.147  14.160  0.4441 -0.4658  0.1332
17948TIP3    H275336   2.687   4.232  14.165  0.9308 -1.1964  0.5680
17949TIP3   OH275337   1.808   2.706   1.278 -0.5721  0.5097 -0.4000
17949TIP3    H175338   1.814   2.668   1.190  0.8714 -1.9159  0.6415
17949TIP3    H275339   1.799   2.800   1.263  0.1646  0.2320 -3.1293
17950TIP3   OH275340   1.277   0.351  15.107  0.5177  0.1142 -0.3646
17950TIP3    H175341   1.266   0.436  15.151  2.1564 -0.5216  1.4513
17950TIP3    H275342   1.196   0.338  15.059 -0.0279  2.4233 -0.2053
17951TIP3   OH275343   3.735   4.756   5.417 -0.1123 -0.0134 -0.8141
17951TIP3    H175344   3.727   4.799   5.332  3.1267  2.3965 -0.1185
17951TIP3    H275345   3.814   4.703   5.410  2.1688  2.7251  1.3790
17952TIP3   OH275346   2.194   5.324   1.269 -0.2050  0.0515 -0.3623
17952TIP3    H175347   2.157   5.251   1.319 -2.3465  0.1624 -1.6872
17952TIP3    H275348   2.226   5.285   1.188 -1.9026  0.5736 -1.3472
17953TIP3   OH275349   0.180   3.511   5.328 -0.9366  0.2952 -0.0157
17953TIP3    H175350   0.222   3.597   5.329  0.7908 -0.4838 -1.2955
17953TIP3    H275351   0.122   3.512   5.405  0.5082  1.8812  1.1342
17954TIP3   OH275352   6.495   3.953   0.909 -0.1739  0.0312  0.2050
17954TIP3    H175353   6.578   3.992   0.879  0.0554 -1.8057 -1.8304
17954TIP3    H275354   6.435   3.966   0.835 -0.1471 -3.0569 -0.5086
17955TIP3   OH275355   5.096   1.759  10.967  0.2314  0.2189 -0.1504
17955TIP3    H175356   5.180   1.716  10.950  1.2442  1.1523  2.1021
17955TIP3    H275357   5.032   1.707  10.918  1.6332 -2.7253  0.9110
17956TIP3   OH275358   5.808   3.321   1.804 -0.3538 -0.4441 -0.0203
17956TIP3    H175359   5.879   3.258   1.815  2.2333  2.0637 -1.1041
17956TIP3    H275360   5.781   3.312   1.713 -0.7532 -0.7090  0.1213
17957TIP3   OH275361   2.216   3.766  16.923  0.5826 -0.1795  0.0548
17957TIP3    H175362   2.311   3.765  16.924  0.6475  1.0557 -1.5754
17957TIP3    H275363   2.192   3.855  16.949 -0.2402 -0.9892  2.3820
17958TIP3   OH275364   3.122   5.566  13.172 -0.2598 -0.4574  0.1443
17958TIP3    H175365   3.135   5.511  13.249 -1.6178 -1.8126 -0.5499
17958TIP3    H275366   3.045   5.529  13.129 -3.2635  3.7410  1.2287
17959TIP3   OH275367   0.029   4.961  11.376  0.2735  0.3081 -0.3545
17959TIP3    H175368   0.114   4.960  11.331  1.5596 -0.5219  1.9025
17959TIP3    H275369  -0.031   4.999  11.313  2.1542  0.1825 -2.3484
17960TIP3   OH275370   4.079   1.833  11.966  0.3193 -0.2648  0.3712
17960TIP3    H175371   4.036   1.761  12.013 -1.8028  1.9660  2.1042
17960TIP3    H275372   4.045   1.828  11.877 -0.3053 -1.0019  0.6433
17961TIP3   OH275373   6.446   4.290   4.304  0.0390  0.4421  0.0743
17961TIP3    H175374   6.371   4.296   4.363  0.0419 -3.3826  0.7112
17961TIP3    H275375   6.434   4.207   4.257  2.3952  1.1274 -1.9908
17962TIP3   OH275376   3.805   2.348  12.653 -0.0334 -0.3267 -0.3441
17962TIP3    H175377   3.763   2.338  12.739 -0.7549  0.1168 -0.6341
17962TIP3    H275378   3.844   2.435  12.656 -0.0364 -0.3215 -0.4591
17963TIP3   OH275379   2.169   3.983  15.513  0.3354 -0.6183 -0.0339
17963TIP3    H175380   2.182   3.992  15.607  2.0263  0.6156 -0.3433
17963TIP3    H275381   2.202   3.896  15.492 -0.9413 -1.2965  0.6097
17964TIP3   OH275382   1.644   0.297   3.496  0.5447  0.1765 -0.2260
17964TIP3    H175383   1.554   0.272   3.474  0.6195 -0.1119 -0.2103
17964TIP3    H275384   1.687   0.214   3.518  0.7164  0.3576  0.1174
17965TIP3   OH275385   2.428   5.373   5.586  0.3643 -0.3927  0.0085
17965TIP3    H175386   2.437   5.395   5.679 -0.0446 -0.5709  0.0899
17965TIP3    H275387   2.363   5.435   5.553 -0.2917 -1.0345  0.0868
17966TIP3   OH275388   3.405   0.602  14.391 -0.1593 -0.1233 -0.1740
17966TIP3    H175389   3.312   0.580  14.398 -0.7913  2.2283 -0.2241
17966TIP3    H275390   3.429   0.629  14.479  0.2029  0.2538 -0.3897
17967TIP3   OH275391   4.289   5.140  12.300  0.3296  0.5613 -0.6065
17967TIP3    H175392   4.291   5.068  12.237 -0.4283  0.2780 -0.3135
17967TIP3    H275393   4.381   5.167  12.308  0.8282 -1.1692  0.1832
17968TIP3   OH275394   3.525   5.794   2.043  0.4914 -0.4163  0.0139
17968TIP3    H175395   3.619   5.786   2.027  0.2497 -1.9374 -0.8437
17968TIP3    H275396   3.484   5.773   1.959 -0.6990 -3.4908  1.2243
17969TIP3   OH275397   5.364   5.692  11.463 -0.1948  0.1698 -0.2413
17969TIP3    H175398   5.386   5.650  11.546  0.9110 -1.2443 -1.2051
17969TIP3    H275399   5.422   5.652  11.400 -1.8794  0.3003 -1.9530
17970TIP3   OH275400   4.302   2.604  13.146 -0.2774 -0.5155 -1.0487
17970TIP3    H175401   4.303   2.674  13.211 -0.8460 -0.1267 -1.4494
17970TIP3    H275402   4.297   2.524  13.198  1.7386 -0.3490 -0.5366
17971TIP3   OH275403   1.190   0.048   3.364  0.1649  0.5550  0.1802
17971TIP3    H175404   1.276   0.010   3.344  0.0222  0.9141 -1.2303
17971TIP3    H275405   1.141  -0.024   3.404 -0.2436 -0.9769 -2.7855
17972TIP3   OH275406   3.049   4.221  16.242  0.4583 -0.1414 -0.3250
17972TIP3    H175407   3.088   4.298  16.284 -2.6037  0.8712  0.9224
17972TIP3    H275408   3.082   4.223  16.152  1.4621  1.8664  0.0399
17973TIP3   OH275409   2.138   4.651  15.706 -0.3280  0.4943  0.1877
17973TIP3    H175410   2.196   4.581  15.677 -1.2566 -0.2902  0.1771
17973TIP3    H275411   2.090   4.677  15.628 -2.5575 -1.3621  0.8589
17974TIP3   OH275412   4.666   0.851  14.791 -0.3020  0.1617  0.6794
17974TIP3    H175413   4.624   0.864  14.706  0.7812 -0.5751  0.0052
17974TIP3    H275414   4.602   0.803  14.843 -1.1132  0.9398  0.4111
17975TIP3   OH275415   6.744   4.247   3.535  0.6556  0.0325  0.2292
17975TIP3    H175416   6.708   4.295   3.610 -0.4261  0.9927 -0.8746
17975TIP3    H275417   6.833   4.226   3.562 -0.5103 -2.1280  2.9345
17976TIP3   OH275418   1.559   1.307  11.100  0.1311  0.2757 -0.0915
17976TIP3    H175419   1.589   1.275  11.014  0.2151  1.0844 -0.3682
17976TIP3    H275420   1.508   1.235  11.135 -0.2639  0.0926 -1.0095
17977TIP3   OH275421   5.755   2.020   1.066  0.1820  0.1783  0.1837
17977TIP3    H175422   5.786   2.039   0.978  2.0077  0.4530  0.8286
17977TIP3    H275423   5.685   1.956   1.054 -1.1285  1.8266 -1.5652
17978TIP3   OH275424   1.068   2.385  11.905  0.4732 -0.7048  0.5831
17978TIP3    H175425   1.157   2.368  11.876 -0.1573 -0.4594 -1.6910
17978TIP3    H275426   1.078   2.424  11.992  2.6300  0.1078  0.0322
17979TIP3   OH275427   2.918   3.241  16.383 -0.3541  0.0020  0.5229
17979TIP3    H175428   2.858   3.168  16.371 -0.0797 -0.3142  1.0412
17979TIP3    H275429   2.868   3.318  16.356 -0.6639 -0.3671  0.0279
17980TIP3   OH275430   0.197   3.578  10.780 -0.2484 -0.3665  0.3293
17980TIP3    H175431   0.106   3.604  10.789  0.2866  1.0946  2.2772
17980TIP3    H275432   0.246   3.652  10.815  1.6861 -1.3142 -0.2247
17981TIP3   OH275433   0.293   5.017   2.617  1.4583  0.4243 -0.0341
17981TIP3    H175434   0.284   5.015   2.713  0.6788 -1.1904 -0.0965
17981TIP3    H275435   0.284   4.925   2.591  6.1845  0.0792 -1.3067
17982TIP3   OH275436   0.012   0.404  15.940 -0.0868 -0.0021 -0.0971
17982TIP3    H175437   0.022   0.318  15.980  2.1614 -0.1677 -0.8636
17982TIP3    H275438   0.041   0.466  16.007  1.0788 -0.0817 -0.5083
17983TIP3   OH275439   5.494   6.563  11.375  0.5886  0.3308 -0.2875
17983TIP3    H175440   5.544   6.642  11.397 -3.2669  3.2312 -0.9027
17983TIP3    H275441   5.434   6.550  11.449  0.3261 -1.3370 -0.7423
17984TIP3   OH275442   6.534   6.702   6.023  0.1371  0.4879  0.4210
17984TIP3    H175443   6.443   6.676   6.038  0.1242  0.0523 -0.3190
17984TIP3    H275444   6.531   6.752   5.941  0.4962  0.8613  0.6352
17985TIP3   OH275445   6.594   4.828   1.297  0.1222  0.5756 -0.5551
17985TIP3    H175446   6.568   4.736   1.299  0.5547  0.4472 -0.8462
17985TIP3    H275447   6.689   4.827   1.297  0.1421  1.0508  0.5551
17986TIP3   OH275448   3.659   3.189  12.219 -0.3133 -0.0903 -0.1639
17986TIP3    H175449   3.571   3.210  12.187 -0.0032  0.2004 -0.8406
17986TIP3    H275450   3.657   3.215  12.312 -1.0732 -0.4961 -0.0567
17987TIP3   OH275451   6.588   6.113  14.488  0.2377  0.1877 -0.0204
17987TIP3    H175452   6.550   6.066  14.414  0.0921  1.0951 -0.5383
17987TIP3    H275453   6.514   6.159  14.528  0.4951  0.5511  0.0449
17988TIP3   OH275454   0.495   2.652  16.732 -0.1816 -0.5032 -0.4999
17988TIP3    H175455   0.466   2.572  16.686 -0.2445 -0.5400 -0.3968
17988TIP3    H275456   0.546   2.700  16.667 -0.4185 -0.4708 -0.6627
17989TIP3   OH275457   4.987   6.125  12.000  0.2953  0.6342  0.6145
17989TIP3    H175458   4.895   6.106  12.020  0.0585  2.0454  1.0055
17989TIP3    H275459   4.983   6.203  11.944  1.1478 -0.7499 -1.5290
17990TIP3   OH275460   5.713   2.911   5.732  0.4018  0.0757 -0.1757
17990TIP3    H175461   5.788   2.875   5.780 -1.1254 -1.1575  1.4082
17990TIP3    H275462   5.685   2.839   5.675  0.1869  0.4002 -0.4836
17991TIP3   OH275463   6.618   5.270  14.547  0.0673  0.0031  0.0839
17991TIP3    H175464   6.570   5.299  14.624  0.9528 -1.8624  1.4207
17991TIP3    H275465   6.633   5.350  14.497  0.3855  1.4791  2.3743
17992TIP3   OH275466   4.148   0.789  12.754 -0.3083  0.0188 -0.0411
17992TIP3    H175467   4.098   0.773  12.674 -0.6232  1.1142 -0.0839
17992TIP3    H275468   4.175   0.702  12.783  1.7006 -0.3003 -2.5133
17993TIP3   OH275469   3.911   3.075   2.120  0.3177 -1.2451 -0.1606
17993TIP3    H175470   3.938   3.166   2.107  0.5790 -1.2809  0.1008
17993TIP3    H275471   3.900   3.040   2.032  0.3849 -1.0096 -0.2645
17994TIP3   OH275472   4.053   5.887  11.482 -0.0778  0.3706  0.0423
17994TIP3    H175473   4.110   5.830  11.430 -1.2203 -1.4647  0.7157
17994TIP3    H275474   4.082   5.874  11.572 -1.8031 -0.9763  0.4532
17995TIP3   OH275475   5.967   1.261   6.524 -0.0876  0.4030  0.3894
17995TIP3    H175476   5.891   1.256   6.582 -0.9599  0.2675 -0.7455
17995TIP3    H275477   5.962   1.349   6.485  0.0504  0.2066 -0.0728
17996TIP3   OH275478   0.117   4.514   2.774 -0.4569  0.4248  0.0337
17996TIP3    H175479   0.074   4.482   2.854 -1.7727  2.9967  0.4832
17996TIP3    H275480   0.189   4.453   2.759 -0.9872 -0.9190  2.4194
17997TIP3   OH275481   2.940   0.685  15.712 -0.1886 -0.3162  0.1747
17997TIP3    H175482   2.846   0.685  15.729 -0.1891 -0.2543  0.1734
17997TIP3    H275483   2.951   0.747  15.640 -0.0878  0.0486  0.5008
17998TIP3   OH275484   5.514   1.961  14.816 -0.5480 -0.2344  0.5693
17998TIP3    H175485   5.543   1.881  14.860 -1.0100 -0.3123  0.7378
17998TIP3    H275486   5.588   1.987  14.761 -0.6686 -1.1907 -0.0568
17999TIP3   OH275487   1.876   3.563   1.914 -0.3380 -0.3627  0.2656
17999TIP3    H175488   1.847   3.643   1.957 -0.7046  0.0096 -0.6540
17999TIP3    H275489   1.831   3.563   1.829 -0.5519 -1.6753  0.3534
18000TIP3   OH275490   5.348   0.237   5.951  0.0111  0.4994  0.1878
18000TIP3    H175491   5.411   0.292   5.998  0.9471 -1.5112  1.4371
18000TIP3    H275492   5.326   0.168   6.013 -1.3383 -0.3917 -1.2096
18001TIP3   OH275493   6.463   2.760   0.061 -0.1255 -0.1641  0.0074
18001TIP3    H175494   6.558   2.755   0.050  0.2790  2.9631  1.0517
18001TIP3    H275495   6.432   2.802  -0.019 -0.2101  1.2792  0.7592
18002TIP3   OH275496   2.796   1.168  10.582  0.2556 -0.0134  0.3324
18002TIP3    H175497   2.718   1.182  10.636  0.2417 -0.6269  0.4818
18002TIP3    H275498   2.841   1.094  10.623  0.5278 -0.1417 -0.1812
18003TIP3   OH275499   5.328   2.979  11.924  0.2108  0.1360 -0.9315
18003TIP3    H175500   5.311   2.923  11.848 -0.5139 -1.0491  0.0683
18003TIP3    H275501   5.269   2.946  11.991  1.8503  0.2123  0.6089
18004TIP3   OH275502   5.768   2.812   3.783  0.0374 -0.5782  0.1284
18004TIP3    H175503   5.828   2.822   3.709 -0.3395  0.2726 -0.0813
18004TIP3    H275504   5.795   2.881   3.844 -0.8492 -0.0425 -0.0662
18005TIP3   OH275505   6.572   4.374  12.360 -0.3453  0.1536 -0.5364
18005TIP3    H175506   6.540   4.295  12.317  0.6035  0.3044 -1.5630
18005TIP3    H275507   6.667   4.365  12.359 -0.2651  0.8348  0.2532
18006TIP3   OH275508   5.616   3.907  15.753  0.5955  0.2360 -0.7391
18006TIP3    H175509   5.644   3.998  15.755  0.2860  0.3439 -1.2794
18006TIP3    H275510   5.521   3.910  15.764  0.7888 -0.1546  1.4979
18007TIP3   OH275511   3.676   2.391  13.884 -0.1524  0.3347 -0.6295
18007TIP3    H175512   3.684   2.350  13.969 -2.7855  1.9645  0.5517
18007TIP3    H275513   3.664   2.319  13.823 -2.9356 -0.8148  1.1035
18008TIP3   OH275514   6.499   4.544  11.101 -0.4579  0.4966 -0.0182
18008TIP3    H175515   6.508   4.596  11.021  2.4915  0.9825  0.5138
18008TIP3    H275516   6.520   4.606  11.171 -1.5261 -0.3013  1.0335
18009TIP3   OH275517   4.366   5.715   4.464  0.1954 -0.3709  0.1233
18009TIP3    H175518   4.318   5.682   4.387  1.6954 -1.0813 -0.5617
18009TIP3    H275519   4.378   5.638   4.519 -0.9479  0.1547  1.1590
18010TIP3   OH275520   0.338   2.233   0.797 -0.2083 -0.8477  0.3938
18010TIP3    H175521   0.361   2.324   0.780 -1.0890 -0.8298 -0.7659
18010TIP3    H275522   0.393   2.208   0.872 -0.4570  0.8220  1.1605
18011TIP3   OH275523   1.951   3.087  10.631 -0.0572  0.4316 -0.5655
18011TIP3    H175524   1.878   3.145  10.652  1.2728  1.6610  0.8951
18011TIP3    H275525   1.994   3.130  10.556  0.9400  1.4012  0.5295
18012TIP3   OH275526   4.942   3.772  14.685 -0.3112  0.1241 -0.3557
18012TIP3    H175527   4.982   3.718  14.617  1.4008  1.1547 -0.2016
18012TIP3    H275528   4.994   3.755  14.763 -2.0061 -0.7317  0.6518
18013TIP3   OH275529   5.863   4.839   5.335 -0.3754 -0.1524  0.0940
18013TIP3    H175530   5.864   4.744   5.341  0.1472 -0.0434  3.1356
18013TIP3    H275531   5.943   4.867   5.379 -1.7627  1.7079  1.6187
18014TIP3   OH275532   5.476   3.971   0.332 -0.1987 -0.5176  0.3292
18014TIP3    H175533   5.476   4.029   0.256 -0.5478 -0.4618  0.3693
18014TIP3    H275534   5.537   3.901   0.309 -1.5228 -1.3959 -0.6989
18015TIP3   OH275535   1.583   1.327  13.368 -0.0627 -0.1115 -0.1772
18015TIP3    H175536   1.612   1.407  13.325 -0.8249 -0.3515 -1.1811
18015TIP3    H275537   1.629   1.326  13.452  1.4788  0.3690 -0.9852
18016TIP3   OH275538   1.816   0.540   1.791 -0.2253 -0.0427  0.2090
18016TIP3    H175539   1.808   0.461   1.737  1.6456 -0.1864  0.0909
18016TIP3    H275540   1.864   0.511   1.869 -0.0473  0.8638  0.4435
18017TIP3   OH275541   0.418   3.794   5.604  0.0154 -0.2694  0.1712
18017TIP3    H175542   0.393   3.798   5.696  1.0721 -1.3806  0.5228
18017TIP3    H275543   0.434   3.702   5.587 -1.4324 -0.2656 -1.4944
18018TIP3   OH275544   5.268   4.421   5.722  0.4064 -0.0151  0.3681
18018TIP3    H175545   5.268   4.466   5.806  0.4208 -0.6608  0.7166
18018TIP3    H275546   5.256   4.491   5.657 -3.1297  0.2404  1.0623
18019TIP3   OH275547   1.129   1.698  13.821 -0.0318  0.1073  0.6053
18019TIP3    H175548   1.109   1.633  13.754  0.1885 -0.6611  1.2628
18019TIP3    H275549   1.224   1.700  13.825 -0.0426  0.0528  0.9732
18020TIP3   OH275550   3.657   4.440   2.920  0.2322 -0.1406 -0.2401
18020TIP3    H175551   3.591   4.499   2.957  0.9220  1.1819 -1.0600
18020TIP3    H275552   3.726   4.498   2.887  2.0463 -1.4660  0.9648
18021TIP3   OH275553   6.193   2.049  16.896  0.1385 -0.5332  0.2546
18021TIP3    H175554   6.181   2.087  16.809  0.7494  1.3912  0.9623
18021TIP3    H275555   6.286   2.026  16.899 -0.1964 -2.0359 -0.1140
18022TIP3   OH275556   5.384   5.751  11.866  0.6020 -0.0061  0.2997
18022TIP3    H175557   5.396   5.724  11.957  0.8453 -1.1534 -0.0571
18022TIP3    H275558   5.460   5.806  11.847  0.3672  0.5358  0.8847
18023TIP3   OH275559   3.458   2.960  14.042 -0.8661 -0.0813  0.6881
18023TIP3    H175560   3.463   3.055  14.045 -1.1044  0.0310 -1.4099
18023TIP3    H275561   3.405   2.941  13.965  0.1157 -1.9491  0.4244
18024TIP3   OH275562   1.526   5.001   5.917  0.0206 -0.3732 -1.0438
18024TIP3    H175563   1.595   4.943   5.948 -0.3694  0.5708  2.0299
18024TIP3    H275564   1.554   5.088   5.946 -2.1038  0.1008 -0.2039
18025TIP3   OH275565   1.362   1.589   1.537  0.5472  0.6637  0.9568
18025TIP3    H175566   1.267   1.588   1.551  0.7567  0.2022  2.4611
18025TIP3    H275567   1.373   1.571   1.443 -0.8027 -0.5397  1.0049
18026TIP3   OH275568   2.790   0.232   4.593 -0.1710  0.1275  0.3410
18026TIP3    H175569   2.862   0.234   4.657  0.6821  1.4164 -0.6076
18026TIP3    H275570   2.727   0.172   4.631  1.2745 -0.8321  1.3609
18027TIP3   OH275571   5.946   4.837  15.114 -0.7459  0.4892 -0.2265
18027TIP3    H175572   5.917   4.758  15.160  0.4920 -0.9675 -1.8140
18027TIP3    H275573   5.960   4.901  15.183 -2.1318 -0.5512  1.0820
18028TIP3   OH275574   3.107   3.986   0.216 -0.2504  0.0307  0.0621
18028TIP3    H175575   3.163   3.939   0.277  0.2947 -2.5543 -2.2354
18028TIP3    H275576   3.023   3.940   0.220 -0.4111  0.2449 -0.6208
18029TIP3   OH275577   0.216   1.104   1.655 -0.1588 -0.7797  0.6120
18029TIP3    H175578   0.257   1.018   1.643  0.9301 -0.3718  1.3182
18029TIP3    H275579   0.134   1.098   1.605  0.2067 -2.0016  0.1153
18030TIP3   OH275580   5.148   2.314  15.677  0.4475  0.0745 -0.7560
18030TIP3    H175581   5.205   2.282  15.608  0.1625 -0.0515 -0.9386
18030TIP3    H275582   5.072   2.255  15.674 -0.5880  1.3855 -1.8076
18031TIP3   OH275583   4.595   5.584  12.888 -0.4483 -0.3755  0.0924
18031TIP3    H175584   4.625   5.623  12.970 -2.6621 -1.6170  1.5797
18031TIP3    H275585   4.661   5.518  12.867  0.8257  0.8383  0.0945
18032TIP3   OH275586   2.715   4.829  12.074 -0.0952 -0.2122 -0.2615
18032TIP3    H175587   2.808   4.854  12.072 -0.8133  2.8170 -1.4759
18032TIP3    H275588   2.677   4.882  12.144 -1.1014 -0.6313 -0.4722
18033TIP3   OH275589   3.862   5.801  14.327 -0.0884  0.2525  0.1834
18033TIP3    H175590   3.895   5.884  14.361 -0.2453 -0.1303  1.2843
18033TIP3    H275591   3.940   5.746  14.318 -0.0399  0.3708 -0.1542
18034TIP3   OH275592   1.144   2.346  16.701 -0.2414 -0.5351  0.1701
18034TIP3    H175593   1.197   2.271  16.673  1.6555 -0.2683  2.7651
18034TIP3    H275594   1.205   2.419  16.705 -1.7006  0.7807 -0.5847
18035TIP3   OH275595   1.186   3.154  11.638 -0.3915 -0.4546 -0.0701
18035TIP3    H175596   1.120   3.214  11.674 -1.9229 -1.6762 -0.7060
18035TIP3    H275597   1.233   3.206  11.572  0.4760  0.9339  1.5535
18036TIP3   OH275598   6.198   1.121  17.026 -0.5420  0.2465  0.9408
18036TIP3    H175599   6.148   1.191  16.982 -0.6585 -0.8664 -0.7898
18036TIP3    H275600   6.199   1.049  16.963  2.7056 -0.0467  1.1645
18037TIP3   OH275601   6.305   3.256   1.646  0.0570  0.4341  0.6240
18037TIP3    H175602   6.274   3.264   1.736 -0.5798 -0.3097  0.4733
18037TIP3    H275603   6.256   3.183   1.609 -0.2884  1.2454 -0.5876
18038TIP3   OH275604   2.874   1.720  16.669 -0.4274 -0.2929 -0.1645
18038TIP3    H175605   2.789   1.733  16.711  0.2621 -0.7848  1.4709
18038TIP3    H275606   2.878   1.626  16.650  0.1028 -0.4364  0.6097
18039TIP3   OH275607   0.044   4.420   4.632  0.3630  0.0028 -0.1399
18039TIP3    H175608  -0.045   4.454   4.620 -0.2829 -1.4878  0.1956
18039TIP3    H275609   0.100   4.497   4.629 -1.0527  1.1237  0.9025
18040TIP3   OH275610   2.327   6.400   3.904 -0.4101  0.2725 -0.7149
18040TIP3    H175611   2.359   6.383   3.992 -1.0362 -0.7397 -0.6723
18040TIP3    H275612   2.405   6.431   3.856  0.0681  0.2209  0.0162
18041TIP3   OH275613   3.266   4.664   2.799  0.3054  0.1900  0.1892
18041TIP3    H175614   3.205   4.658   2.873 -0.5156  1.9647 -0.2782
18041TIP3    H275615   3.351   4.677   2.840 -0.1713  1.3821  0.8703
18042TIP3   OH275616   2.949   4.614   4.063  0.0235  0.4923  0.1594
18042TIP3    H175617   2.921   4.599   4.153  0.3338 -3.0537 -0.1812
18042TIP3    H275618   2.879   4.667   4.025 -1.1691  0.3102  1.9473
18043TIP3   OH275619   6.483   0.951  15.597  0.6890 -0.1088  0.1700
18043TIP3    H175620   6.442   1.030  15.631  0.4639 -0.0273 -0.2877
18043TIP3    H275621   6.411   0.890  15.582  0.9401 -0.6985  1.2874
18044TIP3   OH275622   1.946   0.777  11.753  0.0691  0.2252 -0.4169
18044TIP3    H175623   1.957   0.740  11.665  1.6871  0.5633 -0.3914
18044TIP3    H275624   2.007   0.727  11.808 -1.8700 -0.8855  0.8378
18045TIP3   OH275625   6.574   4.912  12.518 -0.5074 -0.2670  0.2488
18045TIP3    H175626   6.514   4.874  12.454 -0.8943  0.2157  0.3196
18045TIP3    H275627   6.519   4.971  12.570  0.0569  0.2874  0.2243
18046TIP3   OH275628   3.658   5.653   2.690  0.1204  0.6108 -0.0436
18046TIP3    H175629   3.573   5.637   2.648  0.7740  0.6182 -1.4348
18046TIP3    H275630   3.721   5.650   2.618  1.4165 -0.2193  1.0746
18047TIP3   OH275631   4.805   3.534  12.979 -0.0157 -0.4060 -0.1600
18047TIP3    H175632   4.735   3.472  12.957 -1.0026  0.7250 -0.3493
18047TIP3    H275633   4.763   3.596  13.038  0.4147  1.1072 -1.3749
18048TIP3   OH275634   4.381   3.011  15.249 -0.1362  0.2452 -0.0174
18048TIP3    H175635   4.421   2.972  15.327 -0.8119  0.2572  0.3418
18048TIP3    H275636   4.388   3.105  15.263  2.0335  0.3117 -1.1599
18049TIP3   OH275637   5.620   5.073   7.105  0.2228 -0.3338 -0.0052
18049TIP3    H175638   5.537   5.121   7.104  0.4884  0.1460  0.3888
18049TIP3    H275639   5.619   5.022   7.024 -0.1715  0.1629 -0.3214
18050TIP3   OH275640   4.518   4.762   3.426 -0.1044  0.1422  0.1164
18050TIP3    H175641   4.470   4.837   3.391  1.1139  0.4785 -0.8836
18050TIP3    H275642   4.586   4.799   3.481 -1.1165 -0.3502  1.8021
18051TIP3   OH275643   0.897   6.771  16.140  0.0284 -0.2502  0.5247
18051TIP3    H175644   0.980   6.814  16.118 -0.3372 -0.2731 -1.0641
18051TIP3    H275645   0.830   6.831  16.109 -0.5626 -0.3372  1.5936
18052TIP3   OH275646   3.198   6.300  15.565 -0.6276 -0.0549 -0.2617
18052TIP3    H175647   3.144   6.352  15.505  0.7093 -0.2335 -1.6629
18052TIP3    H275648   3.257   6.364  15.605 -0.1239 -0.2201 -0.7215
18053TIP3   OH275649   2.310   4.500  15.373 -0.1497 -0.2562  0.2270
18053TIP3    H175650   2.238   4.449  15.335 -0.4004  0.0157  0.3367
18053TIP3    H275651   2.386   4.441  15.368 -0.3197 -0.4494 -0.1217
18054TIP3   OH275652   2.129   5.443  16.149 -0.0835 -0.7939  0.0057
18054TIP3    H175653   2.140   5.517  16.208  2.4960 -0.8683 -0.2785
18054TIP3    H275654   2.122   5.366  16.206  1.3291 -0.7497  0.2620
18055TIP3   OH275655   2.404   2.175  12.769 -0.0754 -1.0041 -0.1597
18055TIP3    H175656   2.309   2.166  12.766 -0.1247 -0.2922 -1.2295
18055TIP3    H275657   2.428   2.152  12.859 -1.6042  2.0087  1.1452
18056TIP3   OH275658   0.820   3.301  14.520 -0.1222  0.3550 -0.0388
18056TIP3    H175659   0.784   3.337  14.600 -0.5632 -1.1109  0.4568
18056TIP3    H275660   0.751   3.315  14.454 -1.0396 -1.1372  0.5655
18057TIP3   OH275661   6.730   6.776   1.511  0.2580  0.2613 -0.1461
18057TIP3    H175662   6.791   6.847   1.492  0.3511 -0.1772 -1.6011
18057TIP3    H275663   6.768   6.700   1.467 -0.7004 -0.3085 -0.0157
18058TIP3   OH275664   1.130   5.209   0.530 -0.0253  0.2002 -0.0419
18058TIP3    H175665   1.053   5.152   0.522  0.1925 -0.0926 -0.0582
18058TIP3    H275666   1.099   5.295   0.502 -0.5275  0.2313  0.5861
18059TIP3   OH275667   6.164   0.349  12.651  0.0300  0.1562  0.0335
18059TIP3    H175668   6.124   0.436  12.658 -0.0731  0.2633 -1.5314
18059TIP3    H275669   6.134   0.315  12.567  0.9822 -0.9349  0.1066
18060TIP3   OH275670   6.773   0.962   5.081 -0.2670  0.6896 -0.6468
18060TIP3    H175671   6.839   0.936   5.016  0.9278 -0.5944  0.9968
18060TIP3    H275672   6.783   1.056   5.089  1.3057  0.5320 -0.5316
18061TIP3   OH275673   3.380   0.990   2.461  0.0065  0.2309  0.0635
18061TIP3    H175674   3.388   1.052   2.388  1.7690  0.7640  0.6547
18061TIP3    H275675   3.395   1.042   2.539 -0.2503 -0.6320  0.6990
18062TIP3   OH275676   3.717   1.753  14.170  0.2371 -0.5573  0.0892
18062TIP3    H175677   3.765   1.670  14.163 -0.5442 -1.1136  1.0880
18062TIP3    H275678   3.740   1.787  14.256 -0.6137 -0.4770  0.2889
18063TIP3   OH275679   5.285   1.541   2.258  0.1856 -0.0579  0.3549
18063TIP3    H175680   5.371   1.522   2.221  0.2011  0.8640 -0.1127
18063TIP3    H275681   5.297   1.622   2.308  0.0408 -0.9915  1.9820
18064TIP3   OH275682   5.832   1.668  11.123 -0.2911 -0.3164  0.0879
18064TIP3    H175683   5.902   1.731  11.107 -2.0671  2.2095  1.6176
18064TIP3    H275684   5.848   1.598  11.060  2.9802  0.6249 -0.3074
18065TIP3   OH275685   3.706   6.471   2.047 -0.4602 -0.1622  0.3775
18065TIP3    H175686   3.729   6.419   2.125 -0.3324 -2.3379 -1.0157
18065TIP3    H275687   3.617   6.443   2.025 -0.5527  0.5375 -0.1656
18066TIP3   OH275688   4.559   6.638   1.759 -0.2019 -0.1349  0.5181
18066TIP3    H175689   4.590   6.575   1.695  1.4366 -0.6321  1.7110
18066TIP3    H275690   4.548   6.587   1.839 -1.5235  0.5932  0.8139
18067TIP3   OH275691   5.342   4.743   4.127 -0.8132 -0.0291  0.0041
18067TIP3    H175692   5.343   4.834   4.158  2.1995  0.1242 -0.1704
18067TIP3    H275693   5.370   4.692   4.203 -0.9777 -0.6114 -0.3205
18068TIP3   OH275694   2.254   6.761   6.479 -0.5002  0.0256 -0.3211
18068TIP3    H175695   2.167   6.802   6.478 -0.3823  0.3124 -2.6001
18068TIP3    H275696   2.311   6.825   6.436  0.1979 -1.4508 -1.6940
18069TIP3   OH275697   1.278   5.660   1.334 -0.4555 -0.2397 -0.4938
18069TIP3    H175698   1.210   5.708   1.286  0.5949  1.6501 -0.1821
18069TIP3    H275699   1.299   5.716   1.408 -1.1666 -2.5325  1.5889
18070TIP3   OH275700   0.969   5.187  10.749 -0.8310  0.4717 -0.0176
18070TIP3    H175701   1.059   5.179  10.716 -0.6064  1.8054  0.2232
18070TIP3    H275702   0.978   5.198  10.843 -1.2768  0.2225  0.0594
18071TIP3   OH275703   6.365   2.291   5.196 -0.6291  0.0370 -0.2127
18071TIP3    H175704   6.431   2.348   5.236 -1.2882  0.5344  0.1700
18071TIP3    H275705   6.312   2.349   5.143 -0.9808 -0.3058 -0.2385
18072TIP3   OH275706   1.716   6.090  11.273  0.0757 -0.4635 -0.0733
18072TIP3    H175707   1.764   6.112  11.194  1.8971 -2.8117  0.2574
18072TIP3    H275708   1.711   5.994  11.273 -1.2456 -0.4676  1.8694
18073TIP3   OH275709   1.125   3.251   3.006  0.5635 -0.8651  0.1289
18073TIP3    H175710   1.109   3.259   3.100 -0.4681  0.0046 -0.0919
18073TIP3    H275711   1.041   3.273   2.966  1.5394  0.9758 -1.0563
18074TIP3   OH275712   2.918   0.143  11.689  0.5940  0.6855 -0.0843
18074TIP3    H175713   2.895   0.223  11.642  0.3597  1.7084  1.6981
18074TIP3    H275714   2.836   0.094  11.696  0.4325  0.9851  0.1105
18075TIP3   OH275715   4.320   5.959  13.772  0.2761  0.2733 -0.0116
18075TIP3    H175716   4.400   5.976  13.821  0.9034  0.9894 -1.2376
18075TIP3    H275717   4.349   5.909  13.696 -0.5789 -0.2181 -0.0294
18076TIP3   OH275718   0.842   3.295  11.694 -0.0211  0.3331 -0.2442
18076TIP3    H175719   0.801   3.381  11.686  1.0345  0.9466  0.5213
18076TIP3    H275720   0.876   3.276  11.607 -1.5852 -0.0410 -0.8083
18077TIP3   OH275721   4.776   1.915   3.306  0.4097 -0.1308 -0.0145
18077TIP3    H175722   4.693   1.901   3.262  0.3758 -0.9861  0.3112
18077TIP3    H275723   4.812   1.993   3.265 -0.3289 -0.0348 -0.4889
18078TIP3   OH275724   5.259   6.762  15.472  0.1341  0.2194 -0.4045
18078TIP3    H175725   5.227   6.715  15.394  0.0132 -0.3577 -0.0115
18078TIP3    H275726   5.209   6.844  15.473  0.1663  0.2516 -0.9543
18079TIP3   OH275727   6.046   1.902   4.469 -0.2093  0.3894  0.5161
18079TIP3    H175728   5.983   1.970   4.491 -2.2769 -0.7709 -1.2913
18079TIP3    H275729   6.105   1.943   4.405 -0.6092  0.8570  0.4430
18080TIP3   OH275730   0.441   3.557  11.991 -0.1174 -0.2309 -0.0905
18080TIP3    H175731   0.413   3.564  11.900  1.1872  0.3100 -0.4617
18080TIP3    H275732   0.424   3.644  12.028 -0.0986 -0.2771  0.0274
18081TIP3   OH275733   6.696   5.873   2.110 -0.7804  0.1487  0.2221
18081TIP3    H175734   6.623   5.922   2.073  1.5302  1.3071 -3.2222
18081TIP3    H275735   6.766   5.937   2.121  0.1003 -1.0747  2.6018
18082TIP3   OH275736   6.190   3.646  10.965 -0.4845 -0.2149 -0.3993
18082TIP3    H175737   6.140   3.599  10.898 -0.8781  0.4433 -0.5758
18082TIP3    H275738   6.280   3.616  10.953 -1.0100 -2.6036  0.9295
18083TIP3   OH275739   6.600   5.661   4.762 -0.3972 -0.2212  0.3277
18083TIP3    H175740   6.569   5.695   4.846 -0.2680  1.5077 -0.2789
18083TIP3    H275741   6.674   5.605   4.784 -0.6381 -0.1454  1.3965
18084TIP3   OH275742   2.098   6.282   2.036 -0.0973  0.1688 -0.6313
18084TIP3    H175743   2.188   6.311   2.020  0.8746 -1.8336  0.8341
18084TIP3    H275744   2.073   6.323   2.118  1.1361 -2.5542  1.2366
18085TIP3   OH275745   1.605   1.976   2.015  1.0906 -0.0761 -0.1738
18085TIP3    H175746   1.618   2.050   1.955  0.3324  1.1206  1.0790
18085TIP3    H275747   1.513   1.982   2.040  0.7864 -1.9763 -0.6820
18086TIP3   OH275748   6.602   1.808   1.854 -0.1351 -0.1415  0.3439
18086TIP3    H175749   6.623   1.846   1.768 -0.1798  0.3295  0.5403
18086TIP3    H275750   6.682   1.819   1.905 -0.1421 -0.3336  0.3985
18087TIP3   OH275751   4.624   0.005  11.507 -0.0325 -0.0583  0.1367
18087TIP3    H175752   4.665   0.080  11.551 -0.7560  0.0914  0.5733
18087TIP3    H275753   4.680  -0.011  11.431  1.6401 -0.7369  1.4466
18088TIP3   OH275754   1.192   0.491  12.814 -0.2336 -0.0108  0.8486
18088TIP3    H175755   1.181   0.479  12.719 -1.1253  1.7939  0.6825
18088TIP3    H275756   1.286   0.484  12.828  0.0741  1.2174 -0.4342
18089TIP3   OH275757   0.772   6.337   0.475 -0.7329  0.2996  0.3059
18089TIP3    H175758   0.699   6.328   0.536 -1.0559  1.6156  0.1436
18089TIP3    H275759   0.790   6.431   0.472  0.7257  0.0345  0.0451
18090TIP3   OH275760   4.592   0.408   5.825  0.0092  0.3955  0.2987
18090TIP3    H175761   4.678   0.372   5.845  1.0348  2.7595  0.4683
18090TIP3    H275762   4.609   0.476   5.760 -1.8934  0.1779 -0.4982
18091TIP3   OH275763   0.280   4.397  10.529 -0.0351  0.0175 -0.1701
18091TIP3    H175764   0.282   4.326  10.593  0.6029  0.0761 -0.1252
18091TIP3    H275765   0.356   4.382  10.473  1.1009  1.5830  0.8478
18092TIP3   OH275766   1.416   6.410  14.580 -0.2412 -0.6075 -0.3207
18092TIP3    H175767   1.506   6.389  14.556 -0.0267 -0.6003  0.4364
18092TIP3    H275768   1.393   6.343  14.645 -1.1809 -1.2960 -1.3329
18093TIP3   OH275769   1.764   0.780  12.799  0.5824  0.6416  0.1013
18093TIP3    H175770   1.718   0.749  12.721  2.2900 -0.8196 -0.3977
18093TIP3    H275771   1.787   0.871  12.779  0.7771  0.3608 -0.9988
18094TIP3   OH275772   3.767   4.732   1.034 -0.1739  0.0613  0.1975
18094TIP3    H175773   3.808   4.675   1.099  2.7925  1.3558 -0.3671
18094TIP3    H275774   3.708   4.788   1.085 -0.3090 -1.0144  1.2707
18095TIP3   OH275775   4.780   2.011   4.797  0.1960 -0.0292 -0.5018
18095TIP3    H175776   4.832   1.963   4.861  1.5354  0.6388 -1.0520
18095TIP3    H275777   4.769   1.951   4.723  0.9118  0.1115 -0.7270
18096TIP3   OH275778   5.654   3.832  12.039 -0.0895  0.0753 -0.1818
18096TIP3    H175779   5.616   3.918  12.020  0.1907 -0.1577 -1.9425
18096TIP3    H275780   5.670   3.793  11.953  0.0148 -1.6516  0.5786
18097TIP3   OH275781   5.399   2.985   3.685 -0.2772 -0.2400 -0.1308
18097TIP3    H175782   5.312   2.968   3.721 -0.6218  0.3833 -0.6571
18097TIP3    H275783   5.416   3.077   3.704  0.9694 -0.7325  1.4089
18098TIP3   OH275784   3.745   4.937   4.158 -0.4650  0.0083  0.5181
18098TIP3    H175785   3.800   4.948   4.236  0.7671  0.5914 -0.3992
18098TIP3    H275786   3.772   4.854   4.120  1.1903  1.1142 -0.9377
18099TIP3   OH275787   0.999   2.898  16.609 -0.6196 -0.2093 -0.4078
18099TIP3    H175788   1.083   2.944  16.603  0.0297 -0.8346  2.3923
18099TIP3    H275789   0.935   2.967  16.626 -0.6055  0.1750 -1.7387
18100TIP3   OH275790   6.489   5.781   5.626  0.6269  0.4653 -0.0688
18100TIP3    H175791   6.411   5.738   5.660 -0.6354  1.9887 -0.8622
18100TIP3    H275792   6.513   5.730   5.549  0.6252 -0.2057  0.3692
18101TIP3   OH275793   1.521   4.506  16.036 -0.1382  0.4207  0.9558
18101TIP3    H175794   1.612   4.510  16.006  0.2668  1.1373  2.2073
18101TIP3    H275795   1.473   4.561  15.974 -0.1346 -1.5925 -0.9707
18102TIP3   OH275796   0.195   1.585   5.201  0.5636  0.2752 -0.1543
18102TIP3    H175797   0.116   1.532   5.213 -0.0537  1.2553  0.3023
18102TIP3    H275798   0.175   1.640   5.125  1.3867 -0.4701 -0.9221
18103TIP3   OH275799   0.625   1.598  14.127  0.3002 -0.2245 -0.1815
18103TIP3    H175800   0.622   1.693  14.115  0.3187 -0.3397 -1.1398
18103TIP3    H275801   0.588   1.562  14.047 -1.6273 -1.0135  1.0079
18104TIP3   OH275802   4.060   2.832   3.625  0.8094 -0.1292  0.0950
18104TIP3    H175803   4.074   2.842   3.719 -2.0158  3.1609  0.3626
18104TIP3    H275804   4.122   2.893   3.585  1.5322 -1.0278 -0.2008
18105TIP3   OH275805   3.948   4.660  13.223  0.1182 -0.2016  0.0529
18105TIP3    H175806   4.025   4.616  13.185  1.0657  2.2083 -0.9948
18105TIP3    H275807   3.884   4.659  13.152  0.5150  0.9246 -0.3495
18106TIP3   OH275808   0.782   0.155   1.486  0.4056 -0.3964 -0.2305
18106TIP3    H175809   0.762   0.248   1.501  0.0202 -0.2631 -1.4979
18106TIP3    H275810   0.849   0.135   1.551 -0.7139  0.3139  1.2039
18107TIP3   OH275811   4.933   5.619  15.404 -0.3358 -0.3674  0.7329
18107TIP3    H175812   4.942   5.698  15.457  0.6533  0.1237 -0.1288
18107TIP3    H275813   4.849   5.630  15.359  0.3842  0.8627 -0.3927
18108TIP3   OH275814   2.940   3.705  17.058  0.0606  0.0410  0.2933
18108TIP3    H175815   2.923   3.637  16.993 -1.9557  0.7131  0.0555
18108TIP3    H275816   3.023   3.744  17.031  0.1996 -0.9525 -0.7642
18109TIP3   OH275817   3.791   3.669  14.907  0.0115  0.0129 -0.1360
18109TIP3    H175818   3.710   3.651  14.859  0.3464 -0.9605 -0.3532
18109TIP3    H275819   3.766   3.737  14.970 -0.4824  1.1584 -1.5180
18110TIP3   OH275820   1.713   0.970  13.614  0.0797  0.7925  0.1658
18110TIP3    H175821   1.793   0.924  13.636  0.3909  1.5675  0.7169
18110TIP3    H275822   1.648   0.938  13.677  0.5041  1.6698  1.0898
18111TIP3   OH275823   1.804   0.055   3.573 -0.4197 -0.7192  0.5750
18111TIP3    H175824   1.886   0.010   3.555 -1.3705 -1.6344 -2.0405
18111TIP3    H275825   1.750  -0.010   3.619 -1.2757 -1.8987 -1.9173
18112TIP3   OH275826   3.496   2.029   0.972 -0.7664  0.2838  0.6677
18112TIP3    H175827   3.494   2.082   0.892 -1.7060  0.5336  0.8498
18112TIP3    H275828   3.509   1.939   0.941  1.1303  0.6129  0.3663
18113TIP3   OH275829   0.155   5.990   1.245  0.2343 -0.3115 -0.2397
18113TIP3    H175830   0.078   5.990   1.187 -0.5341 -1.1544  0.7485
18113TIP3    H275831   0.226   5.956   1.189 -0.6321 -1.7288 -0.5525
18114TIP3   OH275832   5.452   2.283  12.574 -0.2938 -0.1769 -0.3008
18114TIP3    H175833   5.387   2.222  12.540 -0.0753 -0.1309 -0.8093
18114TIP3    H275834   5.466   2.345  12.502  1.7320 -1.2997 -0.9386
18115TIP3   OH275835   2.145   4.639  12.894  0.0836  0.7997 -1.0222
18115TIP3    H175836   2.126   4.729  12.870 -0.1747  0.7291 -1.0842
18115TIP3    H275837   2.113   4.630  12.984 -0.1125  0.6995 -1.1027
18116TIP3   OH275838   1.438   5.298  12.461  0.3188  0.3031 -0.5093
18116TIP3    H175839   1.525   5.307  12.499  0.0029 -1.4539  0.7141
18116TIP3    H275840   1.453   5.250  12.380  0.4099 -0.7921  0.1438
18117TIP3   OH275841   2.228   5.643   4.675 -0.4583 -0.5069 -0.0347
18117TIP3    H175842   2.183   5.702   4.736  0.7630 -0.1040  0.5040
18117TIP3    H275843   2.223   5.688   4.591  0.6549  0.5045  0.4110
18118TIP3   OH275844   6.412   2.142  10.788  0.1454 -0.3140  0.2950
18118TIP3    H175845   6.422   2.220  10.842  4.2908 -0.7018  0.3698
18118TIP3    H275846   6.395   2.071  10.850 -0.9203  0.0665  0.4618
18119TIP3   OH275847   1.225   5.472   2.853  0.0716  0.1033  0.1942
18119TIP3    H175848   1.180   5.500   2.933  0.8772  4.1400 -0.5355
18119TIP3    H275849   1.155   5.464   2.788 -0.2197  0.4335  0.4633
18120TIP3   OH275850   1.497   5.211  12.928 -0.0074  0.4459  0.0424
18120TIP3    H175851   1.410   5.226  12.890 -0.0467 -1.8173 -0.9291
18120TIP3    H275852   1.529   5.134  12.882  1.1430 -0.7662  2.7270
18121TIP3   OH275853   4.049   6.232   4.518  0.1417  0.0059  0.0778
18121TIP3    H175854   4.076   6.169   4.450 -0.4587 -0.5858  0.3812
18121TIP3    H275855   4.036   6.178   4.596 -1.2733  0.3757  0.1086
18122TIP3   OH275856   2.151   3.407  11.798 -0.5463 -0.2557  0.3959
18122TIP3    H175857   2.185   3.324  11.830  2.2293  0.7116  0.2176
18122TIP3    H275858   2.079   3.428  11.859 -1.1546 -2.5895  0.5786
18123TIP3   OH275859   3.117   1.843   5.307  0.4449 -0.2104 -0.7028
18123TIP3    H175860   3.060   1.767   5.296  0.2787 -0.1743 -0.1085
18123TIP3    H275861   3.064   1.907   5.354  2.1287 -1.7032  3.8592
18124TIP3   OH275862   2.948   3.793   2.582  1.1816 -0.0483 -0.0858
18124TIP3    H175863   2.917   3.846   2.656  3.0025 -0.5901  1.1691
18124TIP3    H275864   2.883   3.724   2.573  1.1781 -0.2853  1.4180
18125TIP3   OH275865   3.710   2.095   2.337  0.4218 -0.7010 -0.4334
18125TIP3    H175866   3.803   2.071   2.344  0.4935 -0.2082  0.4438
18125TIP3    H275867   3.666   2.033   2.396  0.2494 -0.6231 -0.4822
18126TIP3   OH275868   0.398   6.592   5.052 -0.1544 -0.9829 -0.1099
18126TIP3    H175869   0.463   6.523   5.042  1.7980  0.8592 -0.6655
18126TIP3    H275870   0.365   6.607   4.963 -0.2105 -0.8495 -0.0675
18127TIP3   OH275871   2.164   0.957   5.898  0.5531 -0.1086 -0.4003
18127TIP3    H175872   2.176   0.931   5.806  0.5872  0.0115 -0.4298
18127TIP3    H275873   2.099   0.895   5.932  0.3354  0.0192 -0.5819
18128TIP3   OH275874   4.177   5.708  15.502 -0.8306  0.1234 -0.0980
18128TIP3    H175875   4.199   5.713  15.595  4.5313 -0.3017 -1.0140
18128TIP3    H275876   4.204   5.792  15.466 -1.0924 -0.3570 -1.4799
18129TIP3   OH275877   2.224   4.280  16.360  0.2994 -0.3187  0.4829
18129TIP3    H175878   2.289   4.238  16.416 -1.1666 -1.1986  1.6221
18129TIP3    H275879   2.190   4.352  16.414 -0.6623 -0.7678  0.5058
18130TIP3   OH275880   6.573   3.454   1.118 -0.2536  0.1389 -0.2089
18130TIP3    H175881   6.542   3.383   1.063 -0.1775 -0.2046  0.1884
18130TIP3    H275882   6.547   3.534   1.072  1.7167 -0.1020 -1.8901
18131TIP3   OH275883   0.791   0.729  14.622 -0.2644  0.1252 -0.6445
18131TIP3    H175884   0.707   0.764  14.590 -2.7477 -2.0519  2.7843
18131TIP3    H275885   0.822   0.794  14.684  0.6626  0.8857 -1.8442
18132TIP3   OH275886   5.055   2.600  12.539  0.6455  0.8269 -0.0463
18132TIP3    H175887   5.059   2.541  12.614 -1.1613  1.5777  0.7170
18132TIP3    H275888   4.962   2.604  12.517  1.1704  0.3124 -2.6381
18133TIP3   OH275889   5.763   2.839   4.291  0.5646  0.0502 -0.1123
18133TIP3    H175890   5.848   2.849   4.248  0.5462  2.3661  0.2769
18133TIP3    H275891   5.715   2.918   4.266  0.1565  0.9903  3.2573
18134TIP3   OH275892   3.014   4.261   3.934  0.2764 -0.3583 -0.1751
18134TIP3    H175893   3.096   4.213   3.946  1.3283  0.5654 -2.8550
18134TIP3    H275894   3.039   4.353   3.937 -0.5555 -0.0625 -1.3822
18135TIP3   OH275895   5.865   1.780   4.181  0.5015 -0.2016 -0.2053
18135TIP3    H175896   5.911   1.858   4.150  2.4481 -0.5252  1.6363
18135TIP3    H275897   5.824   1.744   4.103  0.5200  2.0064 -1.3214
18136TIP3   OH275898   0.631   2.198  16.235  0.0835  0.5552 -0.5005
18136TIP3    H175899   0.557   2.223  16.290 -0.3456  0.2363 -0.9311
18136TIP3    H275900   0.596   2.132  16.175  1.1542 -1.0164  0.5207
18137TIP3   OH275901   1.486   4.277  13.562 -0.6911  0.4396 -0.2542
18137TIP3    H175902   1.566   4.230  13.538  0.8689  2.2019  1.1605
18137TIP3    H275903   1.477   4.344  13.494  0.0929  1.3633  0.5182
18138TIP3   OH275904   5.261   5.048  11.675 -0.4458 -0.0889  0.5717
18138TIP3    H175905   5.332   4.984  11.668 -1.0153 -0.6446 -0.4080
18138TIP3    H275906   5.186   5.004  11.635 -0.6165  1.5260 -1.0162
18139TIP3   OH275907   1.460   3.796   0.199  0.1447  0.1488  0.1110
18139TIP3    H175908   1.399   3.864   0.173  2.0349  1.6659 -0.6094
18139TIP3    H275909   1.407   3.733   0.248 -1.8507  1.6216 -0.0389
18140TIP3   OH275910   3.901   0.811   4.675 -0.5620 -0.1932 -0.0375
18140TIP3    H175911   3.915   0.799   4.769 -0.2949  0.9853  0.0879
18140TIP3    H275912   3.835   0.879   4.670 -1.0102 -0.6694 -0.7132
18141TIP3   OH275913   1.639   5.883   4.729 -0.4074  0.1435 -0.0879
18141TIP3    H175914   1.729   5.894   4.699 -1.0191  3.9575 -1.1763
18141TIP3    H275915   1.646   5.838   4.813  2.3349 -0.9211 -0.7911
18142TIP3   OH275916   2.959   1.093  16.922 -0.4098  0.2495 -0.3693
18142TIP3    H175917   2.933   1.126  17.008 -1.1644  2.8094 -1.4894
18142TIP3    H275918   2.983   1.172  16.873 -1.0506 -1.0128 -2.8491
18143TIP3   OH275919   5.709   1.445  16.954 -0.3067  0.1530  0.2851
18143TIP3    H175920   5.773   1.375  16.940 -0.5025 -0.3517  1.7299
18143TIP3    H275921   5.720   1.503  16.879  2.7720  0.8162  1.1135
18144TIP3   OH275922   2.489   3.763  13.833 -0.1484  0.5126  0.5309
18144TIP3    H175923   2.415   3.739  13.889 -0.8946  1.9738  0.1978
18144TIP3    H275924   2.449   3.786  13.749  0.6277  1.7070  0.4690
18145TIP3   OH275925   1.771   5.308   4.158  0.2919  0.2679  0.5598
18145TIP3    H175926   1.704   5.368   4.192 -1.8570 -1.4088 -0.5449
18145TIP3    H275927   1.799   5.257   4.235 -0.4458  0.2743  0.8360
18146TIP3   OH275928   0.849   3.050  13.649 -0.1896 -0.3046  0.5268
18146TIP3    H175929   0.819   3.078  13.562  1.3862 -0.6330 -0.1553
18146TIP3    H275930   0.851   3.131  13.700  0.6100  0.2197 -0.2938
18147TIP3   OH275931   2.949   4.466  11.724  0.1088  0.5100 -0.6185
18147TIP3    H175932   3.032   4.460  11.772 -0.4184  2.8163  0.7168
18147TIP3    H275933   2.972   4.511  11.643  0.5057 -0.8686 -1.3062
18148TIP3   OH275934   3.448   1.958   1.242  0.8391  0.1471  0.4500
18148TIP3    H175935   3.469   1.865   1.246  0.5592  0.1109  1.4607
18148TIP3    H275936   3.464   1.983   1.151 -2.7638 -1.7758 -0.9349
18149TIP3   OH275937   0.686   2.994   2.847  0.2217  0.2899 -0.3958
18149TIP3    H175938   0.716   3.029   2.931  0.8000  0.9354 -0.8578
18149TIP3    H275939   0.591   2.988   2.856  0.3248 -0.2088  0.5099
18150TIP3   OH275940   1.853   1.283   4.720 -0.4763  0.9027  0.3229
18150TIP3    H175941   1.864   1.310   4.812  2.9090  0.3626  0.1842
18150TIP3    H275942   1.786   1.214   4.723  1.0483 -0.6052  2.7364
18151TIP3   OH275943   3.094   3.278  10.772  0.5245 -0.0456  0.2369
18151TIP3    H175944   3.036   3.272  10.848  0.2992 -0.0673  0.0672
18151TIP3    H275945   3.150   3.353  10.790  0.2220  0.1803  0.2569
18152TIP3   OH275946   5.423   4.476  15.426  0.2692 -0.0195 -0.2292
18152TIP3    H175947   5.500   4.473  15.482 -0.1437 -1.8736  0.3313
18152TIP3    H275948   5.367   4.542  15.466  2.0842  2.3953 -1.4624
18153TIP3   OH275949   4.723   4.669   2.438  0.3896  0.0984  0.3961
18153TIP3    H175950   4.798   4.706   2.485  0.6251  0.4037 -0.2121
18153TIP3    H275951   4.675   4.620   2.505  0.2745  1.1883  1.1493
18154TIP3   OH275952   5.946   6.583   0.590 -0.4246  0.0359  0.2910
18154TIP3    H175953   5.999   6.612   0.664 -0.0946  0.3729 -0.0656
18154TIP3    H275954   5.960   6.489   0.585 -1.5771 -0.2244  1.5242
18155TIP3   OH275955   2.215   5.316  11.078 -0.1152 -0.6762  0.8114
18155TIP3    H175956   2.142   5.321  11.140 -0.8947  2.0044 -0.1811
18155TIP3    H275957   2.179   5.272  11.001 -0.9792  1.2123  0.0711
18156TIP3   OH275958   0.270   1.807   3.579 -0.1513  0.1637 -0.4360
18156TIP3    H175959   0.187   1.776   3.542 -1.2731  3.4275 -0.9575
18156TIP3    H275960   0.332   1.736   3.560 -2.5194 -1.9409 -0.9885
18157TIP3   OH275961   4.202   3.041   2.827 -0.4487  0.7134 -0.4919
18157TIP3    H175962   4.178   3.006   2.741 -0.1381  0.0069 -0.2967
18157TIP3    H275963   4.296   3.060   2.819 -0.5737  1.3651 -0.5396
18158TIP3   OH275964   6.249   1.303   4.041  0.1138  0.2144  0.2894
18158TIP3    H175965   6.205   1.246   4.104 -0.3005  1.5802  1.2584
18158TIP3    H275966   6.228   1.392   4.069  0.8753  0.8681 -1.1073
18159TIP3   OH275967   3.690   5.625  16.874 -0.4100 -0.0092 -0.5113
18159TIP3    H175968   3.701   5.607  16.967 -0.2433  0.5012 -0.4268
18159TIP3    H275969   3.771   5.670  16.849 -1.0903  1.2610 -0.5309
18160TIP3   OH275970   1.204   1.892  11.520 -0.0162  0.0517  0.2461
18160TIP3    H175971   1.183   1.801  11.539  2.1049 -0.4323  0.4470
18160TIP3    H275972   1.296   1.892  11.495  0.6238  2.3631  2.1280
18161TIP3   OH275973   1.999   3.961  12.400  0.1528 -0.0327 -0.1550
18161TIP3    H175974   2.026   3.963  12.308  0.3928  2.0544 -0.0851
18161TIP3    H275975   1.972   3.870  12.415 -0.2142 -0.3510 -2.3731
18162TIP3   OH275976   1.259   5.838   1.555 -0.3231  0.4083  0.0731
18162TIP3    H175977   1.273   5.893   1.632  0.5782 -1.8336  1.6117
18162TIP3    H275978   1.166   5.819   1.555 -0.5573  1.4962 -0.2032
18163TIP3   OH275979   3.004   2.763  14.911  0.0405 -0.6127  0.0599
18163TIP3    H175980   2.936   2.793  14.850 -0.7967 -1.8773  0.3182
18163TIP3    H275981   3.041   2.843  14.948 -1.7154  0.1182  0.3252
18164TIP3   OH275982   3.119   6.787  13.479  0.6498 -0.1742  0.2760
18164TIP3    H175983   3.103   6.739  13.398 -0.8365 -1.3175  1.1858
18164TIP3    H275984   3.070   6.869  13.468 -0.8928 -1.0073  0.5911
18165TIP3   OH275985   3.883   0.387   5.600  0.4251 -0.0733 -0.0620
18165TIP3    H175986   3.812   0.356   5.657 -0.1226  1.8875  0.3737
18165TIP3    H275987   3.955   0.408   5.660  0.1921  1.0691 -0.1689
18166TIP3   OH275988   1.742   1.604  10.385 -0.0842  0.6149  0.3900
18166TIP3    H175989   1.706   1.521  10.355 -0.2073  1.4214 -1.8203
18166TIP3    H275990   1.836   1.586  10.397 -0.2584 -0.0516  0.8240
18167TIP3   OH275991   4.009   1.206   2.176  0.4577  0.5014 -0.3386
18167TIP3    H175992   3.952   1.281   2.158  0.5588  0.3658 -1.2931
18167TIP3    H275993   3.948   1.132   2.188  0.3722  0.6667  0.2844
18168TIP3   OH275994   0.039   4.982  14.792  0.2533  0.0137  0.0003
18168TIP3    H175995   0.101   4.910  14.782 -0.3811 -0.8278  1.7606
18168TIP3    H275996  -0.000   4.968  14.878 -0.2281  2.2129  0.1872
18169TIP3   OH275997   2.227   1.071  13.121  0.2223  0.5571 -0.5995
18169TIP3    H175998   2.179   1.149  13.094 -0.0391  0.8415  0.6258
18169TIP3    H275999   2.186   1.045  13.203  1.4006  0.1112 -0.1337
18170TIP3   OH276000   2.094   6.462   2.294  0.4926 -0.5133  0.0175
18170TIP3    H176001   2.027   6.496   2.354 -0.6991 -1.8445 -0.4779
18170TIP3    H276002   2.090   6.520   2.218 -1.8937 -1.8840 -1.0514
18171TIP3   OH276003   3.584   6.154   1.868 -0.3171  0.5055 -0.4241
18171TIP3    H176004   3.629   6.151   1.952  1.6204 -0.5075 -1.4153
18171TIP3    H276005   3.543   6.240   1.866 -0.8205  0.3734  1.7215
18172TIP3   OH276006   4.645   4.648   5.675 -0.3934 -0.0411  0.4157
18172TIP3    H176007   4.689   4.667   5.591 -1.2687 -0.1942 -0.0857
18172TIP3    H276008   4.672   4.720   5.732  0.4811 -0.1101  0.1106
18173TIP3   OH276009   2.879   2.578  12.436  0.4487  0.8044 -0.2031
18173TIP3    H176010   2.903   2.487  12.417 -0.0216  0.0289  2.5171
18173TIP3    H276011   2.807   2.597  12.376 -0.5681 -1.2250  0.2966
18174TIP3   OH276012   4.110   4.513  14.176  0.5005  0.6755 -0.4188
18174TIP3    H176013   4.146   4.424  14.172 -1.1507 -0.1071  1.0325
18174TIP3    H276014   4.130   4.550  14.090  1.0218 -1.1694 -1.1510
18175TIP3   OH276015   5.750   6.519   2.089  0.0915 -0.7091 -0.2409
18175TIP3    H176016   5.815   6.582   2.057  0.4986  0.7849  3.1199
18175TIP3    H276017   5.767   6.440   2.038  3.9042 -0.0745 -0.2848
18176TIP3   OH276018   2.975   3.645  11.978  0.1104  0.3976  0.5342
18176TIP3    H176019   2.996   3.665  12.069 -0.8302 -0.9571  1.0821
18176TIP3    H276020   2.880   3.634  11.976  0.2314 -0.7825 -0.3410
18177TIP3   OH276021   4.712   2.631   4.387  0.3660  0.5010  0.6561
18177TIP3    H176022   4.692   2.654   4.478 -0.7300 -0.5341  0.7131
18177TIP3    H276023   4.730   2.537   4.390  1.7868  0.7167  0.0039
18178TIP3   OH276024   0.365   4.503   0.749 -0.8171  0.6168  0.0262
18178TIP3    H176025   0.437   4.452   0.713  1.4094  2.3112  1.7788
18178TIP3    H276026   0.343   4.565   0.680 -0.2415  0.4085 -0.3560
18179TIP3   OH276027   5.743   3.069  12.527 -0.2021  0.6632 -0.5364
18179TIP3    H176028   5.786   3.011  12.590 -2.8841 -2.1780 -1.1383
18179TIP3    H276029   5.802   3.070  12.452  0.0047 -1.2013 -0.4423
18180TIP3   OH276030   3.755   0.801   1.785 -0.5479  0.1940 -0.1134
18180TIP3    H176031   3.740   0.895   1.792 -1.3727 -0.0161  1.3355
18180TIP3    H276032   3.721   0.777   1.698 -0.9609  1.1178 -0.2143
18181TIP3   OH276033   2.958   5.889   2.153  0.2548  0.6182 -0.0313
18181TIP3    H176034   2.956   5.980   2.183  0.6538  0.3172  0.9490
18181TIP3    H276035   3.034   5.883   2.096  2.1511  0.2084  2.3526
18182TIP3   OH276036   6.653   4.563   0.802 -0.0105  0.2349 -0.0476
18182TIP3    H176037   6.666   4.496   0.869 -1.6979 -0.1659 -0.0686
18182TIP3    H276038   6.722   4.627   0.818  1.0026 -0.9787  0.6323
18183TIP3   OH276039   1.385   3.981  11.197  0.1542 -0.0584 -0.5838
18183TIP3    H176040   1.436   3.904  11.220  0.8884  0.6921  0.4421
18183TIP3    H276041   1.308   3.977  11.254  0.0486 -0.1813 -0.7349
18184TIP3   OH276042   1.646   0.756   1.764 -0.1884  0.9357  0.0430
18184TIP3    H176043   1.641   0.762   1.669 -0.9959  0.0502  0.0071
18184TIP3    H276044   1.705   0.682   1.780 -0.4599  0.7565  0.2209
18185TIP3   OH276045   3.874   3.525   2.666  0.1414 -0.1230 -0.8783
18185TIP3    H176046   3.946   3.472   2.700  1.0632  1.3398 -0.4940
18185TIP3    H276047   3.908   3.614   2.662 -1.5352  0.5586 -1.0156
18186TIP3   OH276048   6.138   2.408  15.152  0.3779  0.2601 -0.0191
18186TIP3    H176049   6.132   2.435  15.060  1.8354  1.8339  0.2983
18186TIP3    H276050   6.079   2.467  15.199  1.5065  1.1218  0.3447
18187TIP3   OH276051   2.660   0.694  15.462  0.0091  0.6348 -0.5190
18187TIP3    H176052   2.664   0.677  15.556 -1.4838 -0.1745 -0.5696
18187TIP3    H276053   2.710   0.622  15.423  1.5687  1.5617 -0.3419
18188TIP3   OH276054   1.958   5.436   3.073 -0.6096  0.2919 -0.2051
18188TIP3    H176055   1.998   5.404   2.992 -1.0602 -0.6253 -0.0753
18188TIP3    H276056   1.879   5.382   3.084 -0.3287  0.1154  1.0726
18189TIP3   OH276057   0.918   6.653   0.868  0.5757 -0.7428  0.4881
18189TIP3    H176058   0.823   6.667   0.865  0.9374  2.4431  0.3216
18189TIP3    H276059   0.934   6.587   0.801 -1.4041 -0.3568 -0.4453
18190TIP3   OH276060   3.452   1.446  14.024  0.1451 -0.0809  0.2963
18190TIP3    H176061   3.394   1.515  14.056 -0.1588 -0.1340 -0.1164
18190TIP3    H276062   3.483   1.401  14.102  0.0768  0.3121  0.5503
18191TIP3   OH276063   5.866   5.113   4.052 -0.2739  0.1561  0.2111
18191TIP3    H176064   5.776   5.143   4.059 -0.1768  1.0627 -1.7364
18191TIP3    H276065   5.895   5.101   4.142 -2.8036 -1.6920  0.9115
18192TIP3   OH276066   5.565   4.389  16.193  0.2471 -0.0490  0.5458
18192TIP3    H176067   5.539   4.351  16.277  1.0185 -1.5123  0.1423
18192TIP3    H276068   5.573   4.315  16.133 -1.2789  1.0592 -1.1251
18193TIP3   OH276069   6.588   2.222   5.711 -0.2511  0.2308  0.6278
18193TIP3    H176070   6.618   2.161   5.778  2.0751  0.7928  0.2084
18193TIP3    H276071   6.572   2.168   5.633 -0.1907 -0.0752  0.8286
18194TIP3   OH276072   3.387   1.953   1.970 -0.3792  0.0542 -0.1213
18194TIP3    H176073   3.300   1.988   1.950  0.3967  0.7113 -2.6988
18194TIP3    H276074   3.448   2.009   1.921  1.5523 -0.2355  1.8130
18195TIP3   OH276075   4.267   5.249  11.625  0.3408  0.0316  0.5596
18195TIP3    H176076   4.356   5.247  11.588  0.2832 -0.6781  0.4509
18195TIP3    H276077   4.257   5.164  11.668  0.0930  0.5127  1.4899
18196TIP3   OH276078   1.920   0.769   4.332 -0.2190  0.6804 -0.5892
18196TIP3    H176079   1.967   0.738   4.255  0.4452  2.4364 -0.9466
18196TIP3    H276080   1.902   0.690   4.383  0.6182 -0.3493 -1.8295
18197TIP3   OH276081   3.111   3.639  15.742 -0.1335  0.4170 -0.4539
18197TIP3    H176082   3.164   3.613  15.817  1.5423  2.3193 -0.8995
18197TIP3    H276083   3.166   3.622  15.666 -0.7631  0.9856 -1.0570
18198TIP3   OH276084   5.440   4.920   0.150  0.2329  0.0096 -0.0048
18198TIP3    H176085   5.390   4.870   0.214  1.1655 -0.5366  0.3104
18198TIP3    H276086   5.443   5.009   0.186 -2.5006  0.7078 -1.1614
18199TIP3   OH276087   4.521   6.372   1.573 -0.5095  0.1499 -0.0668
18199TIP3    H176088   4.509   6.342   1.662  2.4483 -1.5899 -0.1175
18199TIP3    H276089   4.575   6.305   1.531  0.7254  2.3011 -2.2662
18200TIP3   OH276090   5.583   0.166   4.863  0.3016 -0.1892  0.0903
18200TIP3    H176091   5.574   0.179   4.769 -0.3636 -0.3899  0.1186
18200TIP3    H276092   5.505   0.207   4.900  0.8363  0.3864  0.6051
18201TIP3   OH276093   1.077   3.471   1.007 -0.2873  0.0869 -0.4336
18201TIP3    H176094   1.064   3.554   1.052  4.9454 -0.0994  2.2037
18201TIP3    H276095   1.152   3.487   0.949  0.4516 -2.5669 -0.3457
18202TIP3   OH276096   0.286   2.249  10.959 -0.0110 -0.4891 -0.7809
18202TIP3    H176097   0.356   2.297  11.005  0.6332 -1.0741 -1.1365
18202TIP3    H276098   0.224   2.318  10.933 -1.0234 -0.2390  1.9539
18203TIP3   OH276099   4.834   5.787   5.424  0.3844  0.0140  0.2278
18203TIP3    H176100   4.784   5.789   5.342 -0.5679  1.4518  0.8106
18203TIP3    H276101   4.925   5.790   5.396  0.0641  2.5348 -0.7995
18204TIP3   OH276102   1.770   4.468  15.577  0.3119  0.4377 -0.5933
18204TIP3    H176103   1.786   4.405  15.648  0.7719  1.0016 -0.1848
18204TIP3    H276104   1.715   4.535  15.617 -0.6605  0.0066 -1.1906
18205TIP3   OH276105   1.009   3.252   6.306 -0.1867  0.3381 -0.0501
18205TIP3    H176106   1.021   3.270   6.213 -0.7376  0.8260 -0.0368
18205TIP3    H276107   0.932   3.196   6.310 -0.6901  1.0261  0.1619
18206TIP3   OH276108   5.640   6.739  17.128 -0.0871  0.6123  0.0904
18206TIP3    H176109   5.685   6.744  17.044 -0.1956 -1.5809 -0.1558
18206TIP3    H276110   5.694   6.789  17.188  0.4898  1.4162 -1.0780
18207TIP3   OH276111   3.043   2.782  14.531 -0.1147  0.6646  0.3486
18207TIP3    H176112   3.074   2.835  14.604  0.2482  0.5646  0.2696
18207TIP3    H276113   3.084   2.821  14.454  0.7815 -0.2093  0.3768
18208TIP3   OH276114   1.421   0.706   1.988 -0.2683 -0.2120 -0.1287
18208TIP3    H176115   1.462   0.633   2.034  0.7854 -1.0688 -2.2426
18208TIP3    H276116   1.455   0.699   1.898 -2.7650  0.8486 -1.2551
18209TIP3   OH276117   0.818   0.172  15.257 -0.3996  0.3451  0.0627
18209TIP3    H176118   0.740   0.116  15.252 -0.3371  0.1842  0.7577
18209TIP3    H276119   0.884   0.127  15.204 -0.9380  0.7654 -0.9975
18210TIP3   OH276120   4.506   2.328   5.237  0.0650  0.5210 -0.3013
18210TIP3    H176121   4.561   2.406   5.231  0.8264 -0.0623 -1.1705
18210TIP3    H276122   4.453   2.329   5.158 -2.6033  2.0604  1.3568
18211TIP3   OH276123   0.927   0.903   2.922 -0.4559 -0.2063 -0.5020
18211TIP3    H176124   1.016   0.929   2.945 -0.5988 -0.6041  0.5394
18211TIP3    H276125   0.875   0.982   2.936 -0.3619 -0.1358 -0.5470
18212TIP3   OH276126   6.279   2.773   2.657  0.0584  0.5594  0.7994
18212TIP3    H176127   6.364   2.817   2.665  0.5425 -0.3968  1.0771
18212TIP3    H276128   6.272   2.721   2.736  0.9658 -2.3391 -0.8879
18213TIP3   OH276129   3.722   0.079   5.900  0.0390 -0.7003 -0.6538
18213TIP3    H176130   3.663   0.041   5.965  0.7034 -0.7114 -0.0543
18213TIP3    H276131   3.739   0.008   5.838  0.0866 -0.9332 -0.3719
18214TIP3   OH276132   3.490   3.687  14.160 -0.0211 -0.6344  0.3825
18214TIP3    H176133   3.413   3.728  14.199  1.5087 -0.7945  3.9655
18214TIP3    H276134   3.457   3.605  14.122 -1.5942 -0.9771  2.3282
18215TIP3   OH276135   5.808   4.888  12.665  0.0089 -0.3010 -0.7060
18215TIP3    H176136   5.810   4.980  12.691  0.5913 -0.4279 -0.2797
18215TIP3    H276137   5.724   4.856  12.697  1.2335 -0.8077  2.3151
18216TIP3   OH276138   2.293   6.139  11.834  0.2639 -1.2117 -0.2014
18216TIP3    H176139   2.351   6.199  11.881 -2.6439  0.9970  0.8630
18216TIP3    H276140   2.278   6.067  11.895 -0.8197 -0.0324  0.9861
18217TIP3   OH276141   4.103   2.888  15.864 -0.2730  0.1339 -0.1371
18217TIP3    H176142   4.121   2.849  15.950 -0.8730  0.6082  0.2171
18217TIP3    H276143   4.183   2.875  15.814 -0.8441 -2.6786 -0.4958
18218TIP3   OH276144   1.227   5.746  13.690 -1.1540  0.3737 -0.3183
18218TIP3    H176145   1.249   5.687  13.618 -3.2889 -0.5055 -0.3371
18218TIP3    H276146   1.269   5.828  13.668  1.9634 -1.0824 -0.2912
18219TIP3   OH276147   3.325   1.821  13.806 -0.1558 -0.4294 -0.2136
18219TIP3    H176148   3.391   1.817  13.875 -0.2993  0.2785 -0.0291
18219TIP3    H276149   3.365   1.774  13.733  0.0400 -1.1047  0.3068
18220TIP3   OH276150   1.536   5.424   0.496 -0.3587 -0.2291  0.0272
18220TIP3    H176151   1.464   5.387   0.444 -1.7383  0.9322  1.0264
18220TIP3    H276152   1.609   5.363   0.483 -2.2087 -2.7983  0.8725
18221TIP3   OH276153   3.098   1.669  13.969 -0.2554 -0.5960  0.0389
18221TIP3    H176154   3.193   1.671  13.962 -0.2954 -0.4665 -0.5599
18221TIP3    H276155   3.080   1.700  14.057  0.2529 -0.5119  0.1178
18222TIP3   OH276156   5.542   4.124   1.759 -0.5080  0.9360  0.0089
18222TIP3    H176157   5.554   4.184   1.832 -2.8803  1.1915  0.2761
18222TIP3    H276158   5.457   4.149   1.722 -0.6953 -1.0598 -1.0235
18223TIP3   OH276159   3.574   1.668  12.011 -0.4078  0.2640 -0.4764
18223TIP3    H176160   3.542   1.635  12.095 -1.3638 -0.5147 -1.1290
18223TIP3    H276161   3.539   1.607  11.946 -0.4668  1.3916 -1.5338
18224TIP3   OH276162   1.869   2.973   0.418  0.7405  0.1788  0.4249
18224TIP3    H176163   1.944   2.917   0.398  0.0749 -0.4588 -0.3475
18224TIP3    H276164   1.796   2.913   0.429  0.4470  0.7503  1.8016
18225TIP3   OH276165   6.091   5.464  16.063  0.5745  0.1568  0.2075
18225TIP3    H176166   6.160   5.448  15.998  0.3390  1.7529 -0.4884
18225TIP3    H276167   6.129   5.529  16.122  0.3329 -0.3537  0.9286
18226TIP3   OH276168   1.676   5.803   4.989  0.1753 -0.4414  0.0422
18226TIP3    H176169   1.659   5.770   5.077 -0.0366 -0.7702 -0.1205
18226TIP3    H276170   1.746   5.867   5.001 -2.0261  1.9782  0.9437
18227TIP3   OH276171   0.919   3.764   0.739  0.2375 -0.2541  0.0145
18227TIP3    H176172   0.971   3.775   0.819 -0.1297 -1.8966  0.5356
18227TIP3    H276173   0.828   3.767   0.769  0.0577  0.6446 -0.5898
18228TIP3   OH276174   6.423   5.781   2.555  0.3309  0.5810 -0.7484
18228TIP3    H176175   6.467   5.835   2.489  1.3440  1.0849  0.3178
18228TIP3    H276176   6.373   5.717   2.503  0.1548  1.6927 -2.0135
18229TIP3   OH276177   1.348   4.784   4.654 -0.1782 -0.2091 -0.1259
18229TIP3    H176178   1.333   4.773   4.748 -1.4504 -0.5265 -0.3475
18229TIP3    H276179   1.351   4.695   4.620 -1.8959 -0.1005 -0.6743
18230TIP3   OH276180   3.635   5.355  11.297 -0.6140  0.5222  0.3161
18230TIP3    H176181   3.659   5.430  11.351 -3.0757  1.6776 -0.0403
18230TIP3    H276182   3.622   5.284  11.359  1.4521  0.4010  0.6908
18231TIP3   OH276183   2.813   5.041  15.378  0.2962  0.4556 -0.3363
18231TIP3    H176184   2.841   5.045  15.469 -0.5570 -0.9436  0.0024
18231TIP3    H276185   2.718   5.040  15.382  0.2090 -2.2420 -1.0501
18232TIP3   OH276186   0.572   0.361  14.340 -0.0327 -0.4471  0.0437
18232TIP3    H176187   0.480   0.387  14.346  0.1258 -0.1658  1.5231
18232TIP3    H276188   0.613   0.396  14.419  1.1649 -1.3210 -0.1566
18233TIP3   OH276189   2.467   0.888  11.337  0.4270 -0.2471 -0.7895
18233TIP3    H176190   2.452   0.972  11.378  0.1785 -1.0667  0.8810
18233TIP3    H276191   2.562   0.876  11.340  0.3249 -2.2056  3.8646
18234TIP3   OH276192   2.407   1.019  10.698  0.2868 -1.0461  0.1216
18234TIP3    H176193   2.462   1.005  10.620 -0.3465  0.8335 -0.7322
18234TIP3    H276194   2.328   0.967  10.682 -0.8179  1.0038 -1.6272
18235TIP3   OH276195   6.142   3.175  16.474  0.1271  0.2753 -0.0032
18235TIP3    H176196   6.217   3.116  16.467 -0.4528 -0.5336  0.3800
18235TIP3    H276197   6.080   3.142  16.409  0.6991  1.8803 -1.4205
18236TIP3   OH276198   1.640   6.635   4.490  0.0767  0.1969  0.0440
18236TIP3    H176199   1.598   6.618   4.575 -0.2501 -0.0160 -0.1556
18236TIP3    H276200   1.581   6.594   4.426  0.6834 -0.2634 -0.2295
18237TIP3   OH276201   2.649   1.775   1.006  0.2256  0.5843  0.4841
18237TIP3    H176202   2.579   1.823   0.962 -0.4163 -0.1530  0.6706
18237TIP3    H276203   2.698   1.734   0.935 -0.5978 -0.3139  0.3996
18238TIP3   OH276204   6.663   0.464   5.765  0.1033 -0.3500 -0.3507
18238TIP3    H176205   6.625   0.551   5.779  0.5559 -0.2841  0.5080
18238TIP3    H276206   6.752   0.480   5.734  0.8570 -0.4726  1.6253
18239TIP3   OH276207   5.596   2.197  11.747  0.2264 -0.3563 -0.5655
18239TIP3    H176208   5.553   2.149  11.818 -2.2252  1.6370 -0.5682
18239TIP3    H276209   5.642   2.129  11.697  0.0158 -2.1405  1.5159
18240TIP3   OH276210   0.118   0.261   0.428 -0.2499  0.0334 -0.0007
18240TIP3    H176211   0.074   0.344   0.411  0.4950  0.1415 -1.5560
18240TIP3    H276212   0.104   0.209   0.349  1.9801 -0.0769 -0.4118
18241TIP3   OH276213   5.549   6.366  14.529 -0.3497  0.2335 -0.0695
18241TIP3    H176214   5.570   6.449  14.488 -0.7909 -0.2684 -1.3867
18241TIP3    H276215   5.623   6.348  14.587  0.9360  0.4025 -1.5760
18242TIP3   OH276216   1.024   2.127  15.112  0.2122  0.1589 -0.0460
18242TIP3    H176217   1.116   2.151  15.113 -0.2257  2.6652 -3.1633
18242TIP3    H276218   0.981   2.193  15.168  0.2282 -1.0224  1.4281
18243TIP3   OH276219   1.067   4.030   1.739  0.8456  0.5697  0.8230
18243TIP3    H176220   0.973   4.029   1.758  1.0193 -0.0944  1.7057
18243TIP3    H276221   1.091   3.938   1.728  0.8363  0.8677 -2.4405
18244TIP3   OH276222   1.301   0.046   4.213 -0.1168 -0.4721 -0.5724
18244TIP3    H176223   1.252  -0.036   4.205  0.0893 -0.5919 -0.6239
18244TIP3    H276224   1.387   0.026   4.176 -0.9993  0.6535 -3.5159
18245TIP3   OH276225   6.449   1.423   5.395  0.0713  0.2509  0.4098
18245TIP3    H176226   6.478   1.391   5.480  1.5616  0.0279 -0.1608
18245TIP3    H276227   6.404   1.506   5.415  0.0064 -0.0190  1.4421
18246TIP3   OH276228   5.923   3.910  10.493 -0.1996 -0.5697  0.1841
18246TIP3    H176229   5.958   3.909  10.404 -0.9518 -0.1829 -0.1325
18246TIP3    H276230   5.855   3.978  10.491 -1.7657 -2.0468  0.4299
18247TIP3   OH276231   4.990   1.082  12.552 -0.0355  0.2185  0.6010
18247TIP3    H176232   4.925   1.038  12.497  0.0258 -0.8266  1.3325
18247TIP3    H276233   4.996   1.027  12.630  1.1547  0.7242  0.8827
18248TIP3   OH276234   3.928   1.633   4.719 -0.4389 -0.6454  0.2011
18248TIP3    H176235   3.928   1.537   4.716 -2.8089 -0.6818  0.1023
18248TIP3    H276236   3.998   1.654   4.782 -1.1791 -2.5156  1.7688
18249TIP3   OH276237   5.913   5.817   2.961  0.0381  0.1196 -0.6482
18249TIP3    H176238   5.931   5.759   3.035  1.1871  0.7584 -0.4059
18249TIP3    H276239   5.997   5.859   2.942 -0.3534  0.3523 -1.9964
18250TIP3   OH276240   0.220   2.599  14.907  0.1180  0.0456 -0.3820
18250TIP3    H176241   0.182   2.532  14.850  1.7859 -1.4521  0.1683
18250TIP3    H276242   0.152   2.616  14.973  0.2252 -2.4360  0.4938
18251TIP3   OH276243   1.570   0.359   2.659  0.0160 -0.1960 -0.6751
18251TIP3    H176244   1.589   0.421   2.589 -0.2698 -0.1270 -0.6928
18251TIP3    H276245   1.656   0.335   2.694  0.1153  0.4921 -0.4203
18252TIP3   OH276246   6.384   4.421  13.753 -0.4301 -0.2868 -0.2446
18252TIP3    H176247   6.441   4.345  13.757 -2.5830 -1.9609  0.1680
18252TIP3    H276248   6.315   4.397  13.690 -1.7584  0.8567  0.6901
18253TIP3   OH276249   6.232   6.162  12.671  0.3745  0.1447  0.1720
18253TIP3    H176250   6.325   6.175  12.652  0.3952  1.9042  1.2111
18253TIP3    H276251   6.189   6.177  12.587  1.0467 -1.4045 -0.4858
18254TIP3   OH276252   4.310   4.172   4.913 -0.2345  0.0799  0.2130
18254TIP3    H176253   4.282   4.082   4.928  0.2206 -0.1809 -0.4348
18254TIP3    H276254   4.334   4.205   5.000 -1.5315 -0.0212  0.6261
18255TIP3   OH276255   1.343   6.803  11.546 -0.7222  0.0382  0.8765
18255TIP3    H176256   1.362   6.793  11.453  0.2031 -0.5783  1.1234
18255TIP3    H276257   1.292   6.884  11.551 -0.4786  0.2710 -0.1193
18256TIP3   OH276258   3.981   6.300  11.070 -0.5806  0.4222  0.6009
18256TIP3    H176259   4.049   6.237  11.096 -0.4924 -0.4618 -1.5631
18256TIP3    H276260   3.925   6.307  11.147 -0.0068 -1.5395  1.2623
18257TIP3   OH276261   5.155   6.609  12.409  0.2911 -0.1778 -0.2317
18257TIP3    H176262   5.200   6.577  12.330 -0.6168  2.0045 -1.7436
18257TIP3    H276263   5.065   6.578  12.399  0.2065 -0.0159  0.0295
18258TIP3   OH276264   5.844   4.811  16.308  0.5072  0.2492 -0.2765
18258TIP3    H176265   5.899   4.851  16.241 -0.1408  0.7764 -0.5183
18258TIP3    H276266   5.904   4.762  16.363  1.2924  1.2723 -0.1916
18259TIP3   OH276267   2.289   6.630  12.448  0.0989  0.4954  0.3083
18259TIP3    H176268   2.276   6.708  12.502  1.4316 -0.6790  2.4990
18259TIP3    H276269   2.348   6.575  12.500  0.9806 -1.0224 -2.1235
18260TIP3   OH276270   6.171   3.644   2.216 -0.1394  0.4927  0.2342
18260TIP3    H176271   6.121   3.697   2.278  0.2093 -0.0560  0.9992
18260TIP3    H276272   6.203   3.570   2.268  0.3174  0.1226 -0.5580
18261TIP3   OH276273   3.846   4.454  11.082  0.4467  0.3616 -0.3026
18261TIP3    H176274   3.840   4.358  11.085 -1.9004  0.4181 -1.2748
18261TIP3    H276275   3.925   4.471  11.030 -0.8324 -1.1394 -2.9160
18262TIP3   OH276276   6.663   3.634  13.440 -0.3222  0.2868  0.5008
18262TIP3    H176277   6.718   3.586  13.378  0.1047  1.4997 -0.0844
18262TIP3    H276278   6.726   3.679  13.497 -0.6984  1.1368  0.2569
18263TIP3   OH276279   2.633   1.664  14.608  0.0939 -0.2958 -0.0914
18263TIP3    H176280   2.670   1.585  14.647 -0.1548 -0.3612  0.0153
18263TIP3    H276281   2.708   1.722  14.594 -0.0312  0.5917  2.4128
18264TIP3   OH276282   0.797   5.236   2.726 -0.1760  0.0295 -0.2137
18264TIP3    H176283   0.769   5.249   2.816  0.1481 -1.2256  0.0922
18264TIP3    H276284   0.893   5.239   2.729 -0.1172 -1.1348 -0.2993
18265TIP3   OH276285   0.180   6.484  15.075 -0.4151  0.4519  0.7189
18265TIP3    H176286   0.233   6.515  15.001  0.0157  0.5781  1.0738
18265TIP3    H276287   0.098   6.457  15.035  0.4157 -1.0848 -0.0313
18266TIP3   OH276288   6.402   3.415  15.038 -0.6650  0.8262 -0.0245
18266TIP3    H176289   6.392   3.419  14.943 -1.4974  1.4090  0.0742
18266TIP3    H276290   6.384   3.505  15.068  1.8317  1.2502  0.5087
18267TIP3   OH276291   3.008   1.196  16.254 -0.3555  0.0762 -0.6253
18267TIP3    H176292   2.954   1.118  16.263  1.2590 -0.8709  2.2410
18267TIP3    H276293   3.081   1.170  16.199 -0.7013  0.1170 -1.1092
18268TIP3   OH276294   6.043   4.099   3.409  0.6969  0.1200  0.2395
18268TIP3    H176295   6.083   4.131   3.490 -1.3117 -0.1784  1.4221
18268TIP3    H276296   6.075   4.158   3.341  1.2385  1.3248  1.4977
18269TIP3   OH276297   5.766   4.125  15.872 -0.4009  0.7263 -0.0936
18269TIP3    H176298   5.843   4.179  15.884  0.1465  0.4294 -1.9044
18269TIP3    H276299   5.790   4.039  15.907  0.5400  0.3258 -1.6155
18270TIP3   OH276300   3.500   1.340   1.863  0.0215  0.4426  0.4108
18270TIP3    H176301   3.495   1.436   1.859 -2.3089  0.3403 -0.5342
18270TIP3    H276302   3.435   1.316   1.929 -1.3714 -0.5909 -1.2875
18271TIP3   OH276303   0.466   2.485  16.943  0.0898  0.5290  0.5797
18271TIP3    H176304   0.544   2.432  16.957  0.4368  0.0910 -2.3242
18271TIP3    H276305   0.482   2.529  16.859 -3.1180 -0.3465 -0.6470
18272TIP3   OH276306   2.735   5.689  15.525 -0.3081 -0.2707 -0.0445
18272TIP3    H176307   2.711   5.762  15.583 -0.0697 -0.8703  0.8297
18272TIP3    H276308   2.767   5.731  15.445 -0.3086  0.5749  0.3898
18273TIP3   OH276309   6.180   1.110  15.296  0.5302  0.2793 -0.6450
18273TIP3    H176310   6.098   1.061  15.292  0.7817 -0.0437 -2.2311
18273TIP3    H276311   6.155   1.195  15.333 -0.4257 -0.0026 -0.6115
18274TIP3   OH276312   4.576   3.090  14.046 -0.1097  0.0708  0.0698
18274TIP3    H176313   4.540   3.099  14.134 -2.2232  2.2085 -0.8935
18274TIP3    H276314   4.561   2.998  14.023 -1.2020 -0.0831  1.2818
18275TIP3   OH276315   2.367   0.092  11.432  0.2571  0.1814 -0.2067
18275TIP3    H176316   2.440   0.147  11.461 -0.9820  1.9499 -0.2741
18275TIP3    H276317   2.387   0.073  11.340  1.1015 -0.1938  0.0415
18276TIP3   OH276318   1.257   5.767  15.801 -0.4487  0.1776  0.8775
18276TIP3    H176319   1.264   5.802  15.713 -1.5462  2.3161  1.5765
18276TIP3    H276320   1.332   5.803  15.848  1.0723 -2.2515  0.5029
18277TIP3   OH276321   5.950   3.131  15.653  0.3988 -0.5792 -0.2357
18277TIP3    H176322   6.037   3.150  15.617  0.5050 -0.4978  0.0667
18277TIP3    H276323   5.963   3.054  15.708  0.0234 -1.3997 -1.2444
18278TIP3   OH276324   3.609   0.223   0.239 -0.5268  0.0281  0.1796
18278TIP3    H176325   3.641   0.220   0.149 -2.4335  0.0027 -0.5400
18278TIP3    H276326   3.600   0.132   0.265 -1.2033  0.0069 -0.0946
18279TIP3   OH276327   2.799   6.801   3.729  0.1362  0.4900  0.4728
18279TIP3    H176328   2.799   6.728   3.791  2.1691 -2.7027 -2.9095
18279TIP3    H276329   2.888   6.834   3.730  0.9891 -1.3432 -2.3156
18280TIP3   OH276330   4.069   2.164   5.662  0.0111  0.2511  0.2873
18280TIP3    H176331   4.024   2.102   5.605  1.9796 -1.6251  0.6325
18280TIP3    H276332   4.052   2.132   5.751  1.6405 -0.2778  0.4386
18281TIP3   OH276333   1.462   2.316  14.928 -0.0914  0.2714  0.6901
18281TIP3    H176334   1.424   2.402  14.912 -0.3713  0.2281  1.1039
18281TIP3    H276335   1.550   2.321  14.891 -1.4209 -0.5629 -2.9605
18282TIP3   OH276336   0.007   0.949   3.865 -0.1460  0.5402 -0.1583
18282TIP3    H176337   0.061   0.892   3.809 -0.4274  1.7044 -1.6742
18282TIP3    H276338  -0.083   0.935   3.833 -0.6041 -0.2567  1.3557
18283TIP3   OH276339   0.784   5.701   0.367  0.2319 -0.1999  0.6962
18283TIP3    H176340   0.752   5.615   0.393  1.3757 -0.3370  1.7513
18283TIP3    H276341   0.705   5.752   0.352 -0.5695 -2.2571 -3.1731
18284TIP3   OH276342   5.630   4.613   1.980 -0.1893  0.3665 -0.1495
18284TIP3    H176343   5.722   4.617   1.953 -0.4364 -2.1640 -1.6723
18284TIP3    H276344   5.616   4.696   2.026  2.6892  1.0759 -0.3014
18285TIP3   OH276345   0.985   2.142   1.676  0.8406  0.2400 -0.5007
18285TIP3    H176346   0.980   2.046   1.674  3.0952  0.0486  0.2861
18285TIP3    H276347   1.036   2.165   1.598 -1.3438  1.0330 -1.8063
18286TIP3   OH276348   3.579   6.647  17.075 -0.1339 -0.0886 -0.4946
18286TIP3    H176349   3.548   6.574  17.130  0.3265  0.2346  0.2001
18286TIP3    H276350   3.506   6.709  17.075 -0.3717 -0.3606 -0.7610
18287TIP3   OH276351   3.285   4.068  14.075  0.1197 -0.1892 -0.0829
18287TIP3    H176352   3.244   4.068  13.988 -0.0854  2.2288 -0.0588
18287TIP3    H276353   3.372   4.105  14.061  1.4375 -2.8977  0.2879
18288TIP3   OH276354   6.539   6.470   1.778 -0.2970 -0.0032  0.8107
18288TIP3    H176355   6.536   6.391   1.724 -0.2759  0.5632 -0.0342
18288TIP3    H276356   6.462   6.463   1.835 -1.5196  0.3816 -0.7237
18289TIP3   OH276357   4.214   5.929   1.870 -0.0186 -0.0876 -0.1476
18289TIP3    H176358   4.231   6.014   1.910  0.2716  0.1379 -0.7504
18289TIP3    H276359   4.193   5.948   1.779  0.6392 -0.6950 -0.4416
18290TIP3   OH276360   1.011   5.201  15.273 -0.6313  0.7250 -0.2655
18290TIP3    H176361   1.096   5.216  15.232 -0.5016  0.2242 -0.1926
18290TIP3    H276362   1.026   5.220  15.365 -1.2964  3.3166 -0.6212
18291TIP3   OH276363   0.476   1.966   4.260  0.2001 -0.1170  0.0469
18291TIP3    H176364   0.504   1.909   4.332 -0.5634  0.0680  0.5014
18291TIP3    H276365   0.547   2.029   4.252  1.1151 -1.1845 -0.5461
18292TIP3   OH276366   2.811   2.036   3.594  0.2042  0.2401  0.4575
18292TIP3    H176367   2.823   2.053   3.501 -0.2297  1.6261  0.6301
18292TIP3    H276368   2.896   2.003   3.624  0.4038 -0.0157 -0.3740
18293TIP3   OH276369   4.086   2.256   4.250  0.4250 -0.0649 -0.2363
18293TIP3    H176370   4.024   2.200   4.204  0.8576 -0.2855 -0.5608
18293TIP3    H276371   4.071   2.343   4.213 -0.4606  0.1027  0.4874
18294TIP3   OH276372   3.929   3.182   5.793  0.6312 -0.2040  0.1297
18294TIP3    H176373   3.967   3.181   5.705  1.8632 -0.4582  0.6408
18294TIP3    H276374   3.834   3.182   5.779  0.8133  0.0080 -1.1930
18295TIP3   OH276375   2.889   2.358  13.427  0.7321 -0.0671  0.3297
18295TIP3    H176376   2.909   2.278  13.379  0.5171  0.8230 -1.3109
18295TIP3    H276377   2.973   2.388  13.461  0.8458 -0.8589  0.7583
18296TIP3   OH276378   4.997   3.345  16.935 -0.4784 -0.1741  0.0822
18296TIP3    H176379   5.042   3.428  16.921 -0.1455 -0.3587  0.0375
18296TIP3    H276380   4.945   3.332  16.856 -0.4383 -0.0674  0.0382
18297TIP3   OH276381   6.429   0.268  14.154 -0.0432  0.0480 -0.4699
18297TIP3    H176382   6.408   0.175  14.164  1.1348 -0.1932 -0.0439
18297TIP3    H276383   6.378   0.312  14.223  1.1478 -0.5780  0.8639
18298TIP3   OH276384   0.693   1.382   6.646 -0.2372 -0.2929 -0.5825
18298TIP3    H176385   0.788   1.395   6.648 -0.1193 -1.0852 -0.6327
18298TIP3    H276386   0.658   1.452   6.701  0.1676  1.5578 -2.5491
18299TIP3   OH276387   5.979   1.993  15.887 -0.2028  0.0728  0.2852
18299TIP3    H176388   5.969   1.922  15.823 -1.8499 -0.1225  0.7197
18299TIP3    H276389   5.908   2.054  15.868  0.3631  0.9150  0.7996
18300TIP3   OH276390   4.091   3.583   2.899  0.4977 -0.2537  0.7736
18300TIP3    H176391   4.173   3.615   2.936  0.3292  1.3296 -0.1370
18300TIP3    H276392   4.115   3.551   2.812  0.6963 -2.9252  1.7091
18301TIP3   OH276393   4.647   5.675   4.472  0.0863 -0.6619  0.1263
18301TIP3    H176394   4.676   5.741   4.410  0.0638  0.5443  1.3419
18301TIP3    H276395   4.553   5.688   4.479 -0.1691 -1.8943 -0.8042
18302TIP3   OH276396   6.247   6.000   1.473  0.2158 -0.5395  0.7022
18302TIP3    H176397   6.168   5.985   1.421 -0.3287  0.9081  1.0742
18302TIP3    H276398   6.233   5.948   1.552 -1.3381  1.2509  1.6854
18303TIP3   OH276399   3.587   0.545   4.519  0.1058 -0.2586 -0.1746
18303TIP3    H176400   3.581   0.576   4.429  0.6495 -0.9436 -0.4561
18303TIP3    H276401   3.499   0.513   4.539  0.1801 -0.8212 -0.7322
18304TIP3   OH276402   0.851   0.482   3.516  0.8308 -0.2576  0.0730
18304TIP3    H176403   0.822   0.392   3.525 -0.1046 -0.1926 -1.8859
18304TIP3    H276404   0.866   0.511   3.606  0.9777 -2.2790  0.7519
18305TIP3   OH276405   0.729   6.021  16.213  0.1666  0.1158  0.1931
18305TIP3    H176406   0.771   6.059  16.290 -0.8537 -0.6695  1.1783
18305TIP3    H276407   0.801   5.981  16.164  1.0036  1.6887  0.0721
18306TIP3   OH276408   5.619   6.799  14.630 -0.2248 -0.5759  0.0820
18306TIP3    H176409   5.596   6.760  14.546 -1.7087  0.7056 -0.1426
18306TIP3    H276410   5.549   6.771  14.689 -0.1705  0.0317  0.4339
18307TIP3   OH276411   3.976   3.435  14.122  0.3307  0.1886 -0.1481
18307TIP3    H176412   3.927   3.470  14.197  0.5704  0.9155 -0.3219
18307TIP3    H276413   3.908   3.410  14.059  0.1653  0.8720 -0.2468
18308TIP3   OH276414   4.874   5.795   2.778  0.1231 -0.0696 -0.1043
18308TIP3    H176415   4.791   5.766   2.740  0.2203  0.3170 -0.6302
18308TIP3    H276416   4.872   5.763   2.868 -0.0054 -1.2256 -0.4980
18309TIP3   OH276417   3.846   3.761  15.171 -0.2014  0.1605  0.0104
18309TIP3    H176418   3.782   3.694  15.196 -1.5318  0.7434 -1.6690
18309TIP3    H276419   3.816   3.841  15.215  0.1838  0.1460  0.3122
18310TIP3   OH276420   0.139   4.339  15.151 -0.1247 -0.3010  0.4852
18310TIP3    H176421   0.089   4.278  15.098  1.2579 -1.2957  0.2696
18310TIP3    H276422   0.092   4.422  15.142 -1.0857 -0.9258 -0.6068
18311TIP3   OH276423   2.749   0.573   5.142  0.4101 -0.2598 -0.1174
18311TIP3    H176424   2.826   0.617   5.105  1.0374 -0.1106  1.3099
18311TIP3    H276425   2.716   0.634   5.208 -1.7633  0.2759 -1.6101
18312TIP3   OH276426   6.101   2.074  11.991  0.2524 -0.2565  0.0864
18312TIP3    H176427   6.186   2.101  12.026  0.7761 -3.2764  1.4927
18312TIP3    H276428   6.091   2.125  11.911  3.6770 -0.2252 -0.4835
18313TIP3   OH276429   1.195   3.327   5.604 -0.2487  0.4330 -0.2549
18313TIP3    H176430   1.134   3.366   5.542  1.0586  0.7723 -1.3520
18313TIP3    H276431   1.214   3.241   5.568  0.3459  0.5419 -0.2028
18314TIP3   OH276432   5.922   2.814   5.875  0.2078 -0.0670  0.1943
18314TIP3    H176433   5.970   2.890   5.908  1.2615 -0.2389 -0.8694
18314TIP3    H276434   5.982   2.741   5.888 -0.3855 -0.5467  0.2632
18315TIP3   OH276435   6.322   5.848  12.183 -0.4113 -0.1577 -0.5054
18315TIP3    H176436   6.299   5.891  12.265  0.7601  2.2028 -1.3539
18315TIP3    H276437   6.240   5.848  12.133 -1.0097 -1.1766  0.4130
18316TIP3   OH276438   0.875   5.490   5.255 -0.1562  0.2447 -0.2077
18316TIP3    H176439   0.909   5.475   5.167 -0.2023  0.6230 -0.2935
18316TIP3    H276440   0.845   5.581   5.254  1.3749  0.7966  0.6985
18317TIP3   OH276441   0.856   0.306   4.756 -0.8033  0.1244 -0.5418
18317TIP3    H176442   0.827   0.350   4.836  1.7886  0.5489  0.2614
18317TIP3    H276443   0.850   0.372   4.688  1.3573  1.2436  0.2906
18318TIP3   OH276444   4.479   6.692   2.904  0.3334  0.0404 -0.4741
18318TIP3    H176445   4.559   6.737   2.878 -0.2183  0.4158 -1.5729
18318TIP3    H276446   4.408   6.747   2.870 -0.3602 -1.1283 -0.9962
18319TIP3   OH276447   5.507   4.737   4.776  0.9857 -0.6497 -0.6156
18319TIP3    H176448   5.462   4.821   4.787 -0.0846 -1.0699 -1.6057
18319TIP3    H276449   5.559   4.727   4.856 -1.9653 -0.9324  1.3909
18320TIP3   OH276450   4.836   5.773   3.047 -0.1597 -0.5250 -0.3768
18320TIP3    H176451   4.854   5.811   3.133 -1.5646  0.6793 -0.5648
18320TIP3    H276452   4.815   5.681   3.066 -1.9394  0.0636  0.8113
18321TIP3   OH276453   3.425   5.355   3.422 -0.8025 -0.2544  0.2032
18321TIP3    H176454   3.361   5.283   3.428 -2.2439  1.0247  0.8529
18321TIP3    H276455   3.441   5.380   3.513 -1.3158  1.0569 -0.0425
18322TIP3   OH276456   2.141   1.611   5.003  0.0708  0.7868  0.5121
18322TIP3    H176457   2.183   1.688   4.967  0.2685  2.0811  3.2513
18322TIP3    H276458   2.212   1.559   5.041 -0.1521 -0.3489 -0.5684
18323TIP3   OH276459   4.929   2.987  13.946 -0.0114  0.0384 -0.3285
18323TIP3    H176460   4.932   2.946  13.860  2.5753  0.4297 -0.5102
18323TIP3    H276461   4.928   3.081  13.928 -1.5306  0.1312  0.0990
18324TIP3   OH276462   3.345   2.398   2.643  0.1786 -0.0736 -0.6123
18324TIP3    H176463   3.323   2.347   2.565 -1.7817 -0.2002 -0.0442
18324TIP3    H276464   3.406   2.464   2.612  0.0637 -0.6227 -2.0888
18325TIP3   OH276465   3.006   6.184  16.518 -0.1973  0.4806  0.1858
18325TIP3    H176466   3.074   6.217  16.578 -0.5799  0.2576  0.7442
18325TIP3    H276467   2.932   6.244  16.530 -0.1698  0.6173 -0.2937
18326TIP3   OH276468   6.253   4.058   5.316 -0.1238 -0.0899  0.2996
18326TIP3    H176469   6.164   4.052   5.351 -0.1121 -0.1041  0.3276
18326TIP3    H276470   6.271   3.970   5.282  0.6710 -0.7250  2.2221
18327TIP3   OH276471   4.484   5.841  16.336 -0.6330  1.0462 -0.7200
18327TIP3    H176472   4.569   5.829  16.378 -1.4734  1.2166  1.1074
18327TIP3    H276473   4.504   5.848  16.242  1.2500  0.0723 -0.4278
18328TIP3   OH276474   5.348   0.536  11.800 -0.0604 -0.6938 -0.5920
18328TIP3    H176475   5.314   0.540  11.889  0.5904 -2.5986 -0.2031
18328TIP3    H276476   5.301   0.463  11.760  1.0411 -1.1074 -1.1651
18329TIP3   OH276477   4.273   3.814  14.014 -0.7391 -0.7436 -0.2607
18329TIP3    H176478   4.216   3.758  14.067 -1.0932 -1.6027 -1.5125
18329TIP3    H276479   4.338   3.755  13.976  0.0007 -0.0197 -0.1617
18330TIP3   OH276480   1.494   1.211  13.978 -0.1028 -0.4885 -1.1914
18330TIP3    H176481   1.550   1.146  14.018  0.8355  0.5764 -0.7345
18330TIP3    H276482   1.479   1.179  13.889  1.2534 -0.7861 -1.3250
18331TIP3   OH276483   2.507   2.823  15.504 -0.5337 -0.5595 -0.1229
18331TIP3    H176484   2.420   2.854  15.476 -0.2707  0.7178  0.4008
18331TIP3    H276485   2.557   2.903  15.520  1.4423 -1.2216 -2.4116
18332TIP3   OH276486   6.251   4.397   6.113 -0.2316 -0.2250 -0.2302
18332TIP3    H176487   6.233   4.303   6.118  1.5608 -0.5903 -0.1175
18332TIP3    H276488   6.169   4.438   6.139 -1.7845 -1.7031 -2.4064
18333TIP3   OH276489   4.060   4.965   0.476  0.1671  0.5679  0.3457
18333TIP3    H176490   4.136   4.907   0.477 -0.8835 -0.8792  0.1991
18333TIP3    H276491   4.086   5.037   0.419  0.8880 -0.7047 -1.0211
18334TIP3   OH276492   5.074   0.233   0.544  0.3001  0.2524  0.1459
18334TIP3    H176493   5.034   0.320   0.549  0.7316  0.4099  1.1470
18334TIP3    H276494   5.008   0.175   0.582  0.7326  0.4125  1.1591
18335TIP3   OH276495   1.297   1.412  17.008  0.0366 -0.1346  0.5431
18335TIP3    H176496   1.251   1.451  16.933  0.4435 -1.6709 -0.5557
18335TIP3    H276497   1.254   1.450  17.085  0.1181  2.0978 -0.4289
18336TIP3   OH276498   5.015   4.578   1.697 -0.1866  0.0131 -0.4419
18336TIP3    H176499   4.985   4.668   1.685  1.6672  1.1610  2.4988
18336TIP3    H276500   5.105   4.578   1.667 -0.8546 -1.5672 -2.6519
18337TIP3   OH276501   3.389   5.812   4.458 -0.1916  0.0865 -0.8924
18337TIP3    H176502   3.426   5.737   4.411  0.8079  0.9610 -1.5304
18337TIP3    H276503   3.462   5.872   4.471 -0.7992  0.6134  0.3378
18338TIP3   OH276504   1.471   4.979   0.454 -0.1569  0.3424 -0.3745
18338TIP3    H176505   1.507   4.960   0.541 -0.1025 -1.2515 -0.7237
18338TIP3    H276506   1.458   5.074   0.454  0.3875  0.4432  1.1618
18339TIP3   OH276507   3.474   2.554   2.421  0.2543  0.2127 -0.3217
18339TIP3    H176508   3.391   2.559   2.374 -0.2199  0.7104  0.5317
18339TIP3    H276509   3.496   2.461   2.421 -1.4626 -0.2727  1.3288
18340TIP3   OH276510   0.305   5.906  13.099  0.3194 -0.1145  0.6614
18340TIP3    H176511   0.380   5.885  13.043  1.2653 -0.2165  1.9224
18340TIP3    H276512   0.241   5.837  13.079 -1.0623  1.9575 -3.1249
18341TIP3   OH276513   2.570   0.117   4.705  0.3726 -0.1199  0.0968
18341TIP3    H176514   2.552   0.023   4.706  2.8179 -0.6866 -0.5448
18341TIP3    H276515   2.498   0.155   4.654 -0.2797 -1.7472 -0.2665
18342TIP3   OH276516   4.284   3.924  11.395  0.1355 -0.2258 -0.5447
18342TIP3    H176517   4.321   4.011  11.386  0.7809 -0.3399  0.7794
18342TIP3    H276518   4.357   3.864  11.379  0.2629 -0.4725  0.8827
18343TIP3   OH276519   3.145   0.610   0.968 -0.6068 -0.1727 -0.3937
18343TIP3    H176520   3.220   0.633   1.023 -0.3931  0.0637 -0.7842
18343TIP3    H276521   3.165   0.648   0.883 -0.9425 -0.5373 -0.6353
18344TIP3   OH276522   4.993   5.145  12.291 -0.1113  0.4280  0.4328
18344TIP3    H176523   5.042   5.162  12.211 -1.8577  0.4138 -0.6963
18344TIP3    H276524   5.060   5.121  12.355  1.2523 -0.9582 -1.3796
18345TIP3   OH276525   4.754   4.104   2.281  0.2953  0.1059  0.7583
18345TIP3    H176526   4.828   4.046   2.262  0.1246  0.1129  0.0184
18345TIP3    H276527   4.746   4.158   2.202  0.2359  0.9080  1.2979
18346TIP3   OH276528   0.338   6.723   3.644  0.4411 -0.1173  0.4536
18346TIP3    H176529   0.300   6.719   3.556  1.1206 -0.3656  0.1649
18346TIP3    H276530   0.366   6.633   3.662 -0.9985 -0.3947  1.5268
18347TIP3   OH276531   0.757   1.771   3.782 -0.5650  0.4725 -0.5362
18347TIP3    H176532   0.755   1.678   3.804  0.0359  0.5557 -0.0981
18347TIP3    H276533   0.851   1.793   3.779 -0.6415  1.7674  2.5003
18348TIP3   OH276534   6.565   2.282  12.078 -0.0984 -0.2642  0.6198
18348TIP3    H176535   6.624   2.222  12.123  1.6503  0.9424  0.0241
18348TIP3    H276536   6.563   2.360  12.135 -0.2090  0.1446  0.0610
18349TIP3   OH276537   0.540   1.754  11.481  0.1832 -0.1825  0.5053
18349TIP3    H176538   0.475   1.749  11.411  0.7710 -0.0166 -0.0585
18349TIP3    H276539   0.498   1.712  11.556 -1.8738  2.7395  1.1462
18350TIP3   OH276540   1.700   5.962   5.697 -0.1604 -0.1226 -0.2832
18350TIP3    H176541   1.699   5.872   5.732 -1.2088  0.0233  0.1087
18350TIP3    H276542   1.764   6.008   5.752 -0.9775 -0.1778  0.7492
18351TIP3   OH276543   5.708   6.693   0.538  0.5708 -0.3733 -0.4300
18351TIP3    H176544   5.729   6.762   0.601 -0.1454 -1.2281  0.7996
18351TIP3    H276545   5.786   6.638   0.535 -0.2188 -1.7550  1.7140
18352TIP3   OH276546   1.834   3.874   0.931  0.1708 -0.4797  0.7935
18352TIP3    H176547   1.743   3.903   0.941  0.5111  0.9018  0.1584
18352TIP3    H276548   1.870   3.876   1.020  0.4224  2.0341  0.7036
18353TIP3   OH276549   0.520   1.891  15.698 -0.5031 -0.7039  0.1557
18353TIP3    H176550   0.528   1.981  15.668 -2.8018 -0.7492 -0.7790
18353TIP3    H276551   0.546   1.893  15.790 -2.4197  1.3366  0.7279
18354TIP3   OH276552   2.293   3.371   3.845 -0.4539 -0.1050 -0.0806
18354TIP3    H176553   2.344   3.294   3.870  0.0997 -0.4144 -1.9936
18354TIP3    H276554   2.237   3.388   3.920  0.7088 -1.2703  1.0977
18355TIP3   OH276555   6.107   4.195  13.125  0.1680 -0.3937 -0.4253
18355TIP3    H176556   6.179   4.201  13.063  1.3287 -1.0449  0.8213
18355TIP3    H276557   6.140   4.141  13.196 -0.1688  2.4228  2.0610
18356TIP3   OH276558   6.732   5.875   2.839  0.2480 -0.6440 -0.3144
18356TIP3    H176559   6.714   5.893   2.932  2.2261  0.7826 -0.1422
18356TIP3    H276560   6.682   5.796   2.820 -2.8046  0.7669  1.0782
18357TIP3   OH276561   4.327   2.161  10.741  0.1221  0.0744 -0.6583
18357TIP3    H176562   4.286   2.172  10.655  2.0063  0.4628 -1.5504
18357TIP3    H276563   4.415   2.198  10.731  0.5872 -0.3916  1.2817
18358TIP3   OH276564   4.108   4.156   2.611 -0.1885  0.1000  0.0884
18358TIP3    H176565   4.105   4.190   2.521 -2.2415 -0.3656 -0.0698
18358TIP3    H276566   4.037   4.202   2.656 -1.1606 -1.8268  0.6295
18359TIP3   OH276567   4.903   1.080   5.013  0.5060 -0.7569 -0.0054
18359TIP3    H176568   4.879   1.015   5.078  0.8038 -1.1304 -0.2631
18359TIP3    H276569   4.821   1.123   4.989  0.2709 -1.2175 -0.0268
18360TIP3   OH276570   1.916   4.833   5.577  0.3431 -0.0966  0.1681
18360TIP3    H176571   1.926   4.836   5.672 -0.2909  0.7181  0.2169
18360TIP3    H276572   1.885   4.744   5.560  3.5247 -1.4027  0.3740
18361TIP3   OH276573   6.266   0.093  12.178  0.2016 -0.1535 -0.0736
18361TIP3    H176574   6.245   0.006  12.144 -0.6467  0.0797 -0.1633
18361TIP3    H276575   6.216   0.153  12.122  0.3719  0.3534  0.3172
18362TIP3   OH276576   4.458   1.882  13.516  0.1054  0.2006 -0.1581
18362TIP3    H176577   4.367   1.862  13.539  0.3848 -0.0312  0.7997
18362TIP3    H276578   4.473   1.834  13.435 -0.8205  0.7574 -0.6765
18363TIP3   OH276579   3.158   3.913   2.993 -0.4665 -0.2123 -0.2278
18363TIP3    H176580   3.124   4.002   2.988 -0.7568 -0.2945  0.2471
18363TIP3    H276581   3.180   3.901   3.085 -1.6865 -1.0954 -0.0248
18364TIP3   OH276582   3.189   4.301   6.040 -0.0741 -0.0631 -0.1482
18364TIP3    H176583   3.148   4.218   6.017  0.3245  0.1958 -1.9227
18364TIP3    H276584   3.280   4.292   6.011  0.2834  0.5547  0.7494
18365TIP3   OH276585   1.646   3.074   4.425 -0.9025 -0.1346  0.1418
18365TIP3    H176586   1.643   3.021   4.346 -0.0647 -1.1959  0.7928
18365TIP3    H276587   1.739   3.085   4.443 -1.0695 -0.4450  1.3023
18366TIP3   OH276588   5.498   1.884  13.015 -0.0934 -0.1340  0.1745
18366TIP3    H176589   5.460   1.798  13.031  0.8616 -0.7379 -0.6749
18366TIP3    H276590   5.544   1.905  13.096 -0.4763 -0.3325  0.4497
18367TIP3   OH276591   1.753   4.406   1.975  0.3109 -0.2552 -0.3537
18367TIP3    H176592   1.816   4.387   1.906  1.0847 -1.1917  0.5660
18367TIP3    H276593   1.737   4.321   2.017  1.7999  0.6120  2.2016
18368TIP3   OH276594   3.898   3.192   4.493  0.2497 -0.1625  0.3566
18368TIP3    H176595   3.842   3.270   4.500 -0.2250 -0.5573  1.1297
18368TIP3    H276596   3.886   3.162   4.403 -0.6231 -0.1108  0.4467
18369TIP3   OH276597   0.005   0.009   4.134 -0.1259 -0.0497 -0.1387
18369TIP3    H176598   0.037   0.083   4.083 -1.8885  0.4969 -0.5317
18369TIP3    H276599  -0.020   0.045   4.218 -0.5551 -0.2712 -0.1652
18370TIP3   OH276600   1.992   1.040  11.311 -0.4359  0.2282 -0.6570
18370TIP3    H176601   1.957   0.951  11.311 -1.0073  0.4509 -0.9899
18370TIP3    H276602   1.931   1.090  11.365 -2.0356  1.1385 -3.1259
18371TIP3   OH276603   1.860   5.266   0.735  0.2484  0.1696 -0.5685
18371TIP3    H176604   1.953   5.244   0.734  0.0825 -0.6242  0.1051
18371TIP3    H276605   1.819   5.197   0.788 -0.6103  0.9425 -0.1807
18372TIP3   OH276606   4.167   1.312   4.585  0.0736  0.0794 -0.0025
18372TIP3    H176607   4.129   1.356   4.509 -1.6141 -1.7997 -0.3492
18372TIP3    H276608   4.146   1.369   4.659  0.3906  1.1813 -0.7375
18373TIP3   OH276609   3.052   2.224   2.141  0.0290 -0.3262 -0.4676
18373TIP3    H176610   3.032   2.169   2.217  1.1220  1.3463  1.0879
18373TIP3    H276611   3.053   2.313   2.174  1.4039  0.4017 -2.2589
18374TIP3   OH276612   6.597   1.344  16.329  0.3634 -0.5395  0.1280
18374TIP3    H176613   6.592   1.252  16.303  1.2398 -1.0647  1.7420
18374TIP3    H276614   6.641   1.344  16.413 -0.6502  1.2711  0.7266
18375TIP3   OH276615   3.612   2.303  12.015 -0.2939  0.2469  0.0413
18375TIP3    H176616   3.584   2.340  12.098 -1.0094 -1.7821  0.7582
18375TIP3    H276617   3.532   2.296  11.963  0.1278  1.3783 -0.7988
18376TIP3   OH276618   1.829   5.024  11.523  0.3008  0.3321 -0.2788
18376TIP3    H176619   1.886   4.972  11.579 -1.1690 -0.2348  0.7502
18376TIP3    H276620   1.821   4.973  11.442  0.4800 -0.0427 -0.0610
18377TIP3   OH276621   3.343   1.359  16.017  0.2770 -0.1994  0.6152
18377TIP3    H176622   3.375   1.339  15.930 -0.0673  0.7598  0.2492
18377TIP3    H276623   3.402   1.427  16.050 -1.3339  1.6659 -0.1097
18378TIP3   OH276624   3.176   4.459   1.433 -0.2612  0.1639 -0.6412
18378TIP3    H176625   3.232   4.427   1.362 -1.4940 -1.1940 -1.0519
18378TIP3    H276626   3.115   4.519   1.389 -0.0358  0.5444 -0.4409
18379TIP3   OH276627   2.635   0.790  16.505 -0.5873 -0.0649  0.2034
18379TIP3    H176628   2.631   0.781  16.410  0.5327 -1.9028  0.2869
18379TIP3    H276629   2.673   0.876  16.520  0.3456 -0.2391 -1.0390
18380TIP3   OH276630   5.283   3.217  16.734 -0.2609  0.0712  0.4668
18380TIP3    H176631   5.367   3.184  16.767 -0.7116 -0.2530  1.3321
18380TIP3    H276632   5.235   3.243  16.813 -0.7289  0.8675 -0.0609
18381TIP3   OH276633   5.580   4.759   0.978 -0.3100 -0.4197  0.0859
18381TIP3    H176634   5.605   4.723   1.063  0.9588  0.0353 -0.0718
18381TIP3    H276635   5.639   4.716   0.916 -0.9843 -0.4811 -0.5239
18382TIP3   OH276636   1.341   6.829  10.750 -0.0204 -0.7367 -0.1866
18382TIP3    H176637   1.247   6.840  10.741 -0.0065 -0.0157  0.4078
18382TIP3    H276638   1.376   6.846  10.662 -0.0154  4.3753  0.5230
18383TIP3   OH276639   0.016   2.046   1.523  0.2878 -0.3275 -0.1092
18383TIP3    H176640   0.090   2.093   1.484 -0.0808  0.9832  0.7078
18383TIP3    H276641   0.023   2.063   1.617 -1.1471 -0.0097 -0.0336
18384TIP3   OH276642   3.820   4.364  13.692  0.1602  0.0867  0.6305
18384TIP3    H176643   3.829   4.435  13.629 -1.5116 -1.0572 -1.0063
18384TIP3    H276644   3.739   4.385  13.740 -0.1662 -0.5333  0.3621
18385TIP3   OH276645   0.144   4.681  15.958  0.1777  0.4460  0.0522
18385TIP3    H176646   0.129   4.629  15.879  2.6062 -0.6660  0.2136
18385TIP3    H276647   0.111   4.768  15.936 -1.5603 -0.4703 -1.2088
18386TIP3   OH276648   0.058   2.510  15.411  0.4472  0.7014 -0.1959
18386TIP3    H176649   0.056   2.548  15.323 -0.2479  0.1744 -0.4135
18386TIP3    H276650   0.030   2.582  15.468 -0.7679  0.5697 -0.5938
18387TIP3   OH276651   5.155   4.992   3.850 -0.7661  0.1296 -0.8025
18387TIP3    H176652   5.097   5.060   3.815  0.1048  0.9645 -0.6429
18387TIP3    H276653   5.240   5.009   3.809 -0.6878 -1.2720 -1.2786
18388TIP3   OH276654   4.026   3.067  16.849 -0.5306  0.1080  0.1374
18388TIP3    H176655   4.024   3.123  16.926 -1.6970  0.0648  0.1546
18388TIP3    H276656   3.938   3.030  16.843  0.0709 -1.3527 -0.1593
18389TIP3   OH276657   1.832   2.823  15.005 -0.2686 -0.7225  0.4964
18389TIP3    H176658   1.748   2.868  15.000  0.2007  0.0328 -1.8366
18389TIP3    H276659   1.835   2.769  14.925  0.9508 -1.7017  1.1660
18390TIP3   OH276660   1.064   6.363  14.285  0.4677 -0.0969  0.2775
18390TIP3    H176661   1.147   6.364  14.236  0.3032  1.5324 -0.0281
18390TIP3    H276662   1.030   6.452  14.275 -1.5073 -0.8293  0.0890
18391TIP3   OH276663   0.679   4.198   5.664 -0.6532  0.5862 -0.2855
18391TIP3    H176664   0.694   4.290   5.685 -0.9696  0.3846  0.8676
18391TIP3    H276665   0.751   4.152   5.707  1.2026  0.4837 -3.1981
18392TIP3   OH276666   1.140   5.445   0.904  0.4862  0.1679  0.6473
18392TIP3    H176667   1.194   5.497   0.844  0.9334 -0.1091  0.8078
18392TIP3    H276668   1.180   5.459   0.990  0.1509  0.1622  0.8041
18393TIP3   OH276669   0.659   4.846   4.382  0.8658 -0.0009  0.4294
18393TIP3    H176670   0.664   4.847   4.287 -1.2832  0.4306  0.2707
18393TIP3    H276671   0.695   4.761   4.407  1.3443 -0.1675 -0.7721
18394TIP3   OH276672   2.664   2.112  13.897  0.2046  0.2961 -0.3379
18394TIP3    H176673   2.685   2.033  13.946  0.5497  0.5755 -0.0332
18394TIP3    H276674   2.698   2.094  13.809  1.9907  0.8278  0.1989
18395TIP3   OH276675   0.863   0.219  10.856  0.1445  0.0734 -0.5123
18395TIP3    H176676   0.878   0.136  10.811  0.3571 -0.6370  0.7972
18395TIP3    H276677   0.777   0.248  10.826 -2.0395 -2.8735  2.1568
18396TIP3   OH276678   1.897   1.222  15.398  0.5491  0.2626 -0.0322
18396TIP3    H176679   1.927   1.305  15.360  1.7236  0.0692  0.4069
18396TIP3    H276680   1.972   1.193  15.451 -0.8349  0.2685  2.0227
18397TIP3   OH276681   2.197   0.622   3.696 -0.0325  0.0648  0.2011
18397TIP3    H176682   2.238   0.539   3.721 -1.5430 -0.3133  1.5554
18397TIP3    H276683   2.160   0.605   3.609  0.7678 -0.2565 -0.0868
18398TIP3   OH276684   3.672   4.019  12.216 -0.4849  0.2024 -0.0619
18398TIP3    H176685   3.601   4.017  12.152 -1.9204  0.3971  1.4516
18398TIP3    H276686   3.700   3.928  12.223  0.7248  0.3754 -2.0076
18399TIP3   OH276687   0.904   1.545  17.060  0.1746  0.6326 -0.0935
18399TIP3    H176688   0.967   1.473  17.070  0.0178  0.3166 -1.2348
18399TIP3    H276689   0.945   1.604  16.997  0.0744  1.2963  0.4534
18400TIP3   OH276690   6.239   0.495   0.424 -0.0725 -0.2112  0.6145
18400TIP3    H176691   6.279   0.411   0.399 -0.0348 -0.2955  0.9502
18400TIP3    H276692   6.144   0.477   0.424 -0.1406  0.1096 -0.6178
18401TIP3   OH276693   6.089   3.095  11.866  0.9558 -0.1705  0.1723
18401TIP3    H176694   6.133   3.166  11.819 -2.1295  2.2001  0.4851
18401TIP3    H276695   6.074   3.028  11.799  1.6751  0.6002 -0.8023
18402TIP3   OH276696   1.435   1.477   5.581  0.0837 -0.1754 -0.1611
18402TIP3    H176697   1.400   1.554   5.625  1.1388  0.5162 -0.4932
18402TIP3    H276698   1.525   1.470   5.614  0.1040 -1.0760 -0.3849
18403TIP3   OH276699   2.632   2.329  16.994 -0.0524 -0.0373 -0.0886
18403TIP3    H176700   2.552   2.285  17.024 -0.0518  0.5425  0.7874
18403TIP3    H276701   2.614   2.422  17.003  0.1586  0.1387 -1.3922
18404TIP3   OH276702   3.459   5.637   6.287 -0.2956  0.3749 -0.0415
18404TIP3    H176703   3.550   5.629   6.317  0.6034  1.4100 -2.2667
18404TIP3    H276704   3.448   5.565   6.224  0.1361  2.1158 -2.2490
18405TIP3   OH276705   4.979   1.804   5.963  0.7456 -0.0355  0.0567
18405TIP3    H176706   5.063   1.849   5.955  0.1560  1.1458  0.2940
18405TIP3    H276707   4.943   1.836   6.045 -0.9230  1.1821 -1.1096
18406TIP3   OH276708   4.650   2.336   4.220 -0.7878  0.3555 -0.5012
18406TIP3    H176709   4.630   2.261   4.164 -1.4698 -0.3167  0.6008
18406TIP3    H276710   4.577   2.341   4.281  0.2250  0.6563  0.7384
18407TIP3   OH276711   2.076   4.483   0.163 -0.0577  0.0762  0.2624
18407TIP3    H176712   2.153   4.430   0.185 -0.3128  0.2047  1.5574
18407TIP3    H276713   2.073   4.483   0.067 -0.1693 -2.4371  0.2065
18408TIP3   OH276714   0.731   3.847   1.072  0.6448  0.1154  0.2561
18408TIP3    H176715   0.729   3.772   1.133  0.8868  0.5500  0.8105
18408TIP3    H276716   0.640   3.873   1.064  0.4304 -0.8992 -0.7799
18409TIP3   OH276717   4.470   4.478   0.287 -0.2866  0.5311  0.0032
18409TIP3    H176718   4.563   4.479   0.263  0.3866 -1.7158  2.0557
18409TIP3    H276719   4.425   4.450   0.208  0.8373  1.1534 -0.8811
18410TIP3   OH276720   3.802   6.501  16.881 -1.4143  0.1032 -0.4454
18410TIP3    H176721   3.847   6.506  16.796 -2.7656 -0.8966 -1.2744
18410TIP3    H276722   3.810   6.589  16.918  1.3895 -0.0763 -0.4023
18411TIP3   OH276723   2.934   5.381   2.123  0.2372  0.1289 -0.2438
18411TIP3    H176724   2.940   5.292   2.158 -1.6571  0.5373  1.3270
18411TIP3    H276725   2.850   5.414   2.157  1.8067  3.2522  1.0074
18412TIP3   OH276726   4.045   6.488   4.017  0.2767 -0.3632  0.1653
18412TIP3    H176727   4.082   6.437   3.945  1.5547  1.0751 -0.2264
18412TIP3    H276728   3.990   6.554   3.974 -0.0760 -0.3705  0.5971
18413TIP3   OH276729   6.618   3.879  11.968 -0.0763 -0.4975 -0.4373
18413TIP3    H176730   6.634   3.798  11.919 -1.4851 -1.0511 -0.0185
18413TIP3    H276731   6.528   3.902  11.947  0.2864  0.9430 -0.4957
18414TIP3   OH276732   3.685   6.093  15.209 -0.9425  0.2704 -0.2054
18414TIP3    H176733   3.735   6.139  15.142 -0.5813  0.8694  0.4635
18414TIP3    H276734   3.688   6.001  15.182  1.2155  0.1612  0.2569
18415TIP3   OH276735   4.084   0.667  16.705  0.4116  0.6950 -0.1209
18415TIP3    H176736   3.994   0.649  16.678  0.2264 -0.6751  1.2798
18415TIP3    H276737   4.115   0.732  16.642 -1.1643  0.3361 -1.3343
18416TIP3   OH276738   0.671   0.276   6.034 -0.3113 -0.6020 -0.3852
18416TIP3    H176739   0.700   0.362   6.003 -0.8320 -0.6780 -1.1311
18416TIP3    H276740   0.672   0.282   6.129 -1.1377  0.5065 -0.4310
18417TIP3   OH276741   4.450   4.301   2.289 -0.2455 -0.4418  0.2465
18417TIP3    H176742   4.459   4.361   2.215 -2.7861 -1.5072 -1.0899
18417TIP3    H276743   4.411   4.222   2.251  1.4625 -2.3586  2.1980
18418TIP3   OH276744   0.362   1.101   0.598  0.5735  0.0167  0.2811
18418TIP3    H176745   0.308   1.176   0.574  0.0907 -1.0159 -2.1809
18418TIP3    H276746   0.371   1.108   0.693 -1.1150  2.0621  0.3821
18419TIP3   OH276747   4.401   1.469   2.743  0.3017 -0.2334  0.6577
18419TIP3    H176748   4.355   1.443   2.823 -1.1658  1.9985  0.6411
18419TIP3    H276749   4.414   1.387   2.695 -1.5625 -1.2773  1.7906
18420TIP3   OH276750   1.774   4.556   1.061 -0.6008  0.2053  0.8195
18420TIP3    H176751   1.753   4.634   1.009  0.3878 -0.0855 -0.0650
18420TIP3    H276752   1.703   4.495   1.043  0.0332 -0.1285 -0.7425
18421TIP3   OH276753   0.308   4.233  13.548 -0.2653  0.6124 -0.2664
18421TIP3    H176754   0.330   4.268  13.634 -0.5635 -0.6425  0.3362
18421TIP3    H276755   0.290   4.311  13.495 -1.8588  1.3821  1.2830
18422TIP3   OH276756   6.571   4.206  14.820 -0.5342 -0.0546 -0.1513
18422TIP3    H176757   6.637   4.272  14.800 -1.1344  0.6747  0.2603
18422TIP3    H276758   6.560   4.157  14.738  0.7453 -0.4031 -0.1374
18423TIP3   OH276759   1.870   6.208   4.829  0.1728 -0.8244  0.0736
18423TIP3    H176760   1.792   6.256   4.800 -0.8312 -2.3829  0.0823
18423TIP3    H276761   1.892   6.151   4.755  0.7816 -1.0192  0.3992
18424TIP3   OH276762   5.743   4.830  17.068  0.1486 -0.0177 -0.4158
18424TIP3    H176763   5.778   4.906  17.115  1.6953 -0.9050 -0.0382
18424TIP3    H276764   5.750   4.758  17.131 -0.0029 -0.7381 -1.2017
18425TIP3   OH276765   4.180   3.520  12.668 -0.3680  0.3668 -0.6847
18425TIP3    H176766   4.164   3.611  12.691  0.1357  0.1658  0.5488
18425TIP3    H276767   4.274   3.515  12.652 -0.4440  0.1279 -1.0646
18426TIP3   OH276768   3.765   3.620  13.778 -0.2014 -0.4152  0.0066
18426TIP3    H176769   3.766   3.696  13.719 -1.1697 -0.5534 -0.1952
18426TIP3    H276770   3.822   3.646  13.850  2.6843 -0.9915 -1.8648
18427TIP3   OH276771   4.855   3.202   3.465 -0.2090  0.5787 -0.4212
18427TIP3    H176772   4.909   3.165   3.395 -1.7114 -0.1437 -1.2461
18427TIP3    H276773   4.864   3.297   3.454  0.2213  0.4702 -1.0656
18428TIP3   OH276774   5.850   6.066  16.596 -0.0714 -0.3487  0.4556
18428TIP3    H176775   5.820   6.141  16.545 -0.1620 -0.4897  0.3030
18428TIP3    H276776   5.781   6.000  16.586 -0.9217  0.2170  2.1147
18429TIP3   OH276777   3.475   3.052  15.981  0.1302  0.8840  0.5983
18429TIP3    H176778   3.507   3.023  15.896  0.8309  1.0829  0.7890
18429TIP3    H276779   3.553   3.054  16.037 -0.6346 -1.4176  1.8872
18430TIP3   OH276780   3.997   6.665   3.555 -0.3346  0.8658  0.1486
18430TIP3    H176781   3.916   6.714   3.568 -0.8872  0.1453 -0.4739
18430TIP3    H276782   4.049   6.719   3.496 -0.1284  1.5853  0.9828
18431TIP3   OH276783   2.548   5.785   3.496 -0.4179 -0.2255 -0.0603
18431TIP3    H176784   2.464   5.802   3.539 -0.9715 -0.4642 -1.0175
18431TIP3    H276785   2.593   5.724   3.554 -2.5238 -3.2505 -1.3438
18432TIP3   OH276786   0.778   2.380  14.612  0.4215 -0.3161  0.2210
18432TIP3    H176787   0.744   2.403  14.525  3.4636  0.9831 -0.7690
18432TIP3    H276788   0.779   2.464  14.660  1.0484 -0.5511  0.6299
18433TIP3   OH276789   3.252   5.180   5.287  0.4447 -0.0858  0.0964
18433TIP3    H176790   3.234   5.173   5.381  1.8174 -0.3415  0.3729
18433TIP3    H276791   3.346   5.161   5.280  0.3195 -0.2700 -1.3549
18434TIP3   OH276792   4.728   2.415   3.868  0.6443 -0.2202 -0.1981
18434TIP3    H176793   4.770   2.331   3.888 -1.4475 -1.4112 -0.5386
18434TIP3    H276794   4.681   2.438   3.948  2.6183  1.6003  0.5234
18435TIP3   OH276795   1.096   2.246  15.461 -0.3726  0.0240 -0.3830
18435TIP3    H176796   1.050   2.320  15.420  0.7928  0.6358 -0.6313
18435TIP3    H276797   1.176   2.285  15.498 -0.1508 -0.9709  0.2317
18436TIP3   OH276798   3.753   1.720  13.850  0.6294  0.0323 -0.1931
18436TIP3    H176799   3.669   1.762  13.869  0.1113 -0.1947 -1.8169
18436TIP3    H276800   3.796   1.778  13.787  2.1754  0.6575  1.3844
18437TIP3   OH276801   6.291   6.357   5.561  0.1976 -0.5335 -0.4589
18437TIP3    H176802   6.215   6.405   5.529  1.0309  1.3239  0.1447
18437TIP3    H276803   6.277   6.349   5.656 -0.2323 -2.1186 -0.6333
18438TIP3   OH276804   2.047   6.650  10.973  0.4885 -0.1460  0.2720
18438TIP3    H176805   2.114   6.582  10.975  1.2898  0.5470 -1.3743
18438TIP3    H276806   2.020   6.655  10.881  1.7689  2.9935 -0.0485
18439TIP3   OH276807   6.152   2.332   5.362  0.3930  0.3949  0.0593
18439TIP3    H176808   6.239   2.302   5.333  1.5923  4.6511 -1.4431
18439TIP3    H276809   6.112   2.369   5.283 -2.8115 -1.1413  0.7943
18440TIP3   OH276810   6.090   4.861   2.655  0.1093  0.4618 -0.7055
18440TIP3    H176811   6.112   4.949   2.687 -0.6603  0.4455 -0.0857
18440TIP3    H276812   5.996   4.853   2.671  0.3281 -0.8144  0.1114
18441TIP3   OH276813   5.587   2.795   3.183 -0.7189 -0.2680  0.2093
18441TIP3    H176814   5.571   2.787   3.277  0.3154 -0.0881  0.4140
18441TIP3    H276815   5.569   2.887   3.164 -0.5637 -0.2171  0.3068
18442TIP3   OH276816   2.246   1.484   1.686  0.0165 -0.0345 -0.2919
18442TIP3    H176817   2.199   1.536   1.751  0.7579  0.5294 -0.2043
18442TIP3    H276818   2.274   1.405   1.733 -1.3548 -0.6855 -0.4955
18443TIP3   OH276819   5.870   4.602   3.821  0.3664  0.1412 -0.8754
18443TIP3    H176820   5.923   4.668   3.776  2.1538 -1.5726 -1.4218
18443TIP3    H276821   5.906   4.518   3.792 -1.1692 -1.0859  0.5612
18444TIP3   OH276822   5.175   0.513   2.814  0.3811 -0.3274 -0.3434
18444TIP3    H176823   5.119   0.591   2.819 -0.0159 -0.6476  0.3679
18444TIP3    H276824   5.115   0.439   2.827  0.8346 -0.7247 -0.4684
18445TIP3   OH276825   4.485   2.505   2.120  0.6944 -0.0702  0.1364
18445TIP3    H176826   4.544   2.511   2.195  0.7840  0.9737  0.0016
18445TIP3    H276827   4.533   2.546   2.048  0.4990 -0.8152 -0.4299
18446TIP3   OH276828   0.704   2.115   4.200  0.3764  0.4146 -0.1984
18446TIP3    H176829   0.743   2.202   4.204  2.0856 -0.3559  0.8639
18446TIP3    H276830   0.754   2.069   4.133  1.3910 -0.5879  1.1825
18447TIP3   OH276831   6.220   2.830   4.364 -0.2328 -0.0835 -0.4034
18447TIP3    H176832   6.177   2.765   4.308 -0.8990 -0.1246  0.1453
18447TIP3    H276833   6.293   2.862   4.311 -0.4317 -0.6291 -1.0251
18448TIP3   OH276834   4.792   5.548   0.422 -0.2167  0.6646 -0.6288
18448TIP3    H176835   4.836   5.469   0.454  0.6816  0.8596 -1.3093
18448TIP3    H276836   4.704   5.544   0.459  0.6374  0.7286  1.5644
18449TIP3   OH276837   2.868   5.630  15.114 -0.3951 -0.7241  0.3306
18449TIP3    H176838   2.825   5.557  15.160  0.6585 -2.9160 -1.9359
18449TIP3    H276839   2.907   5.590  15.037  1.8661  1.9656 -0.0677
18450TIP3   OH276840   5.989   5.768  14.223 -0.1964  0.1826 -0.8898
18450TIP3    H176841   6.015   5.859  14.240 -1.7400  1.2290 -3.4305
18450TIP3    H276842   5.894   5.768  14.234 -0.4497 -0.6082 -2.6915
18451TIP3   OH276843   6.040   6.785  11.859  0.4371 -0.5740  0.5774
18451TIP3    H176844   6.066   6.833  11.780  0.4466 -0.5425  0.5995
18451TIP3    H276845   5.966   6.834  11.894  0.8233 -0.2401  0.9337
18452TIP3   OH276846   4.571   6.166   4.037 -0.0619  0.7123  0.1078
18452TIP3    H176847   4.624   6.105   4.088 -0.8286 -0.7739 -0.8152
18452TIP3    H276848   4.614   6.251   4.049  2.1648 -0.3164 -0.1006
18453TIP3   OH276849   0.181   5.411   5.611  0.1737 -0.0474 -0.0335
18453TIP3    H176850   0.254   5.360   5.577  0.1226 -0.5021  0.5139
18453TIP3    H276851   0.208   5.502   5.603  1.4796 -0.2485  1.6264
18454TIP3   OH276852   4.102   1.152   1.218 -0.2830 -0.6473  0.1893
18454TIP3    H176853   4.065   1.073   1.259 -0.7076 -0.5616 -0.0182
18454TIP3    H276854   4.109   1.215   1.290 -0.5816 -0.6516  0.2240
18455TIP3   OH276855   2.133   4.290   4.639  0.2838 -0.0809 -0.0553
18455TIP3    H176856   2.203   4.226   4.630 -0.8461 -1.3828  0.0895
18455TIP3    H276857   2.169   4.370   4.602  1.0478 -1.3137 -2.1249
18456TIP3   OH276858   2.786   1.016  12.670  0.0110  0.5399  0.1795
18456TIP3    H176859   2.791   0.956  12.596  1.9602 -0.6951  1.2496
18456TIP3    H276860   2.693   1.015  12.695 -0.0291 -2.1004  0.1794
18457TIP3   OH276861   6.769   3.721   1.096  0.1845  0.0591 -0.2399
18457TIP3    H176862   6.777   3.793   1.032  1.7370 -0.7173 -0.9816
18457TIP3    H276863   6.691   3.673   1.068 -1.1379  1.6619  0.5310
18458TIP3   OH276864   5.681   3.161   4.591  0.6041  0.1455  0.2373
18458TIP3    H176865   5.657   3.213   4.515  1.8185  1.1927  0.5284
18458TIP3    H276866   5.755   3.107   4.562 -0.8191 -1.7016 -0.1440
18459TIP3   OH276867   0.791   1.483   0.188 -0.4868  0.3586  0.0373
18459TIP3    H176868   0.881   1.485   0.153 -1.0430 -0.3858 -1.5201
18459TIP3    H276869   0.799   1.521   0.275  1.0247  2.0973 -0.7761
18460TIP3   OH276870   3.764   2.316   3.862 -0.4743  0.3931  0.3509
18460TIP3    H176871   3.683   2.269   3.843  0.5955 -1.1783 -0.4839
18460TIP3    H276872   3.788   2.358   3.779 -0.3190  0.6975  0.5469
18461TIP3   OH276873   2.403   0.973  14.894 -0.1158  0.1035 -0.2692
18461TIP3    H176874   2.440   0.959  14.981 -2.1186 -0.0279  0.6186
18461TIP3    H276875   2.431   1.061  14.870 -0.4101  0.5705  1.0091
18462TIP3   OH276876   1.279   0.556  16.192 -0.3778 -0.5254  0.4408
18462TIP3    H176877   1.234   0.630  16.151  1.4503  0.3218 -0.1132
18462TIP3    H276878   1.246   0.479  16.145 -1.8926 -0.0502  0.6562
18463TIP3   OH276879   2.744   2.643   4.854 -0.4328  0.5054  0.1687
18463TIP3    H176880   2.738   2.674   4.945 -0.9979 -1.4242  0.8421
18463TIP3    H276881   2.760   2.722   4.803  1.3972  1.4769  2.0936
18464TIP3   OH276882   6.726   2.468   2.805  0.2513 -0.2059 -0.0466
18464TIP3    H176883   6.718   2.508   2.892  0.5250  0.3253 -0.2639
18464TIP3    H276884   6.738   2.374   2.823  0.2968 -0.1025  0.4833
18465TIP3   OH276885   5.004   1.089   0.634  0.0618  0.2503  0.0996
18465TIP3    H176886   4.925   1.076   0.582 -1.9336 -1.7195  3.2322
18465TIP3    H276887   5.075   1.066   0.575 -1.8067  0.1162 -2.2942
18466TIP3   OH276888   3.713   5.644   0.233  0.3804  0.5240 -0.4535
18466TIP3    H176889   3.695   5.715   0.295  0.1140  0.0510  0.0164
18466TIP3    H276890   3.706   5.564   0.285 -1.7603 -0.0207 -1.4617
18467TIP3   OH276891   4.728   0.869  14.162  0.6323  0.1638  0.2050
18467TIP3    H176892   4.822   0.885  14.158  0.3488  2.2824  0.8315
18467TIP3    H276893   4.705   0.883  14.254  0.0655 -2.9835  0.6575
18468TIP3   OH276894   4.429   2.005  14.714  0.9136  0.2520 -0.8704
18468TIP3    H176895   4.484   1.965  14.781  0.8351 -0.7247 -1.3710
18468TIP3    H276896   4.488   2.021  14.641  0.7882  0.3501 -0.9518
18469TIP3   OH276897   3.833   3.130   4.205  0.1082  0.3813 -0.1119
18469TIP3    H176898   3.812   3.045   4.165 -0.4730  0.7667 -0.6494
18469TIP3    H276899   3.752   3.180   4.198  0.8529  1.5099 -1.1824
18470TIP3   OH276900   0.260   3.184   1.203  0.4207  0.1526 -0.5422
18470TIP3    H176901   0.277   3.240   1.279 -0.9991  1.3123 -1.0381
18470TIP3    H276902   0.294   3.098   1.228  1.8700  1.0091  0.5804
18471TIP3   OH276903   5.343   5.910  12.714 -0.1148  0.0379 -0.2539
18471TIP3    H176904   5.399   5.979  12.752 -0.5205  0.1070  0.2320
18471TIP3    H276905   5.336   5.845  12.784  1.0821 -0.9938 -1.0565
18472TIP3   OH276906   3.514   5.974   4.756  0.1112  0.5000 -0.1091
18472TIP3    H176907   3.512   6.011   4.667  0.2710  0.0644 -0.2956
18472TIP3    H276908   3.603   5.940   4.766 -0.2218 -0.4348 -0.1970
18473TIP3   OH276909   1.272   1.644  13.332 -0.3804  0.0822 -0.2503
18473TIP3    H176910   1.275   1.550  13.319 -0.5431  0.2767 -1.9688
18473TIP3    H276911   1.354   1.666  13.376  0.4079 -0.6756 -1.3050
18474TIP3   OH276912   6.059   4.430   4.594 -0.4762 -0.0807  0.2238
18474TIP3    H176913   6.051   4.405   4.502 -1.1135 -0.9751  0.5077
18474TIP3    H276914   5.996   4.501   4.605  0.3887  0.7878 -0.2756
18475TIP3   OH276915   6.386   0.468  16.778 -0.2568 -0.3339  0.2878
18475TIP3    H176916   6.392   0.512  16.863  0.1248  0.6494 -0.2277
18475TIP3    H276917   6.445   0.393  16.785  0.0543 -0.0507  0.7676
18476TIP3   OH276918   4.376   3.874  12.315 -0.5428  0.2242  0.3391
18476TIP3    H176919   4.355   3.810  12.247 -1.7525  2.6529 -1.7204
18476TIP3    H276920   4.470   3.890  12.305 -0.4804 -0.2889  0.0402
18477TIP3   OH276921   2.967   1.634   5.871  0.3923  0.2698 -0.2909
18477TIP3    H176922   2.888   1.687   5.867 -1.0366 -1.6028  1.4117
18477TIP3    H276923   2.960   1.575   5.796  0.6776  0.7181 -0.6788
18478TIP3   OH276924   3.491   6.473   0.288  0.5119 -0.5394  0.0903
18478TIP3    H176925   3.407   6.511   0.312  0.8958  1.0940 -0.9820
18478TIP3    H276926   3.476   6.434   0.201  0.7510 -0.6411  0.0915
18479TIP3   OH276927   0.655   3.236   1.474  0.3052  0.0692  0.2768
18479TIP3    H176928   0.566   3.213   1.499  0.3193 -0.6059 -0.2589
18479TIP3    H276929   0.699   3.254   1.557 -0.3557  0.5252  0.5342
18480TIP3   OH276930   0.323   5.654   3.016  0.1106  0.3112  0.6094
18480TIP3    H176931   0.391   5.665   2.949  0.9405 -0.4138  1.3161
18480TIP3    H276932   0.351   5.578   3.067 -0.9522  0.3345  1.2578
18481TIP3   OH276933   5.760   6.588   5.477 -0.2932 -0.0064 -0.0902
18481TIP3    H176934   5.673   6.626   5.474  0.2789  1.3521 -0.1050
18481TIP3    H276935   5.797   6.605   5.390 -0.2824 -1.2661 -0.3514
18482TIP3   OH276936   2.544   1.082   2.008  0.0115  0.1600  0.6787
18482TIP3    H176937   2.493   1.141   2.064 -1.4264  0.2718 -0.6995
18482TIP3    H276938   2.501   0.997   2.016 -0.2553  0.1929 -0.2876
18483TIP3   OH276939   0.165   1.314  16.709 -0.3778 -0.6347  0.8111
18483TIP3    H176940   0.224   1.323  16.634 -2.1142 -1.7134 -0.7675
18483TIP3    H276941   0.224   1.304  16.785  1.4276  0.3656 -0.3816
18484TIP3   OH276942   4.393   6.754   4.312  0.1463  0.4008  0.2464
18484TIP3    H176943   4.407   6.835   4.360 -0.6039  0.1315  0.9451
18484TIP3    H276944   4.408   6.685   4.378  2.0231 -0.0945 -0.6263
18485TIP3   OH276945   2.636   4.851  12.640 -0.5917  0.2324 -0.7391
18485TIP3    H176946   2.562   4.836  12.699 -0.5973  0.4095 -0.7030
18485TIP3    H276947   2.637   4.945  12.624 -0.5660  0.1920 -0.9902
18486TIP3   OH276948   3.783   6.441  14.402  0.0164  0.0667 -0.4541
18486TIP3    H176949   3.725   6.452  14.477 -0.3548  0.9639 -0.8513
18486TIP3    H276950   3.790   6.529  14.364 -0.9721 -0.5873 -2.3117
18487TIP3   OH276951   4.260   6.080  14.286 -0.1234  0.4604  0.0221
18487TIP3    H176952   4.213   6.094  14.204 -0.4306  5.1335  0.7354
18487TIP3    H276953   4.193   6.092  14.354  1.2203  3.1425  0.9829
18488TIP3   OH276954   5.818   0.526  14.384  0.0369 -0.0208 -0.9313
18488TIP3    H176955   5.883   0.578  14.336 -1.2556  1.1715 -1.4587
18488TIP3    H276956   5.735   0.552  14.346 -0.8993 -0.3303  0.8222
18489TIP3   OH276957   1.421   4.721   2.745  0.1143 -0.1340 -0.0087
18489TIP3    H176958   1.332   4.695   2.722 -0.2136 -1.9520  2.8086
18489TIP3    H276959   1.477   4.655   2.703 -0.0105 -0.1740 -0.1129
18490TIP3   OH276960   0.633   4.781  16.493  0.8212 -0.3281  0.5470
18490TIP3    H176961   0.706   4.821  16.446  1.3555 -0.6979  1.0466
18490TIP3    H276962   0.615   4.699  16.446 -0.1099  0.3526 -0.3292
18491TIP3   OH276963   4.178   1.314  11.065  0.3658 -0.1206 -0.4579
18491TIP3    H176964   4.125   1.352  10.995 -0.9822  1.0192  1.0993
18491TIP3    H276965   4.150   1.222  11.068 -3.4092  0.8680  1.7513
18492TIP3   OH276966   3.328   5.412   3.891  0.4126  0.6443 -0.3139
18492TIP3    H176967   3.326   5.438   3.799 -0.7425 -0.3686 -0.6118
18492TIP3    H276968   3.317   5.317   3.890 -0.1335  0.6624  0.8801
18493TIP3   OH276969   3.379   2.874  10.816  0.3216 -0.4374  0.2711
18493TIP3    H176970   3.358   2.935  10.887  4.3691 -0.6534  1.9705
18493TIP3    H276971   3.364   2.788  10.855 -2.1428 -0.6633 -0.9770
18494TIP3   OH276972   5.934   2.597   4.749  0.0687  0.9654 -0.1798
18494TIP3    H176973   5.860   2.609   4.689 -1.0004 -2.0194  0.3778
18494TIP3    H276974   6.001   2.554   4.697  0.4418  1.3680 -0.0386
18495TIP3   OH276975   6.820   6.213  15.922 -0.0391 -0.1642  0.8455
18495TIP3    H176976   6.782   6.296  15.951  1.6105  1.1440 -0.4752
18495TIP3    H276977   6.843   6.228  15.830  1.7197 -1.5523  0.9948
18496TIP3   OH276978   1.822   2.732   0.710 -0.4430 -0.9140 -0.2914
18496TIP3    H176979   1.850   2.640   0.714 -1.9150 -1.3793 -0.0097
18496TIP3    H276980   1.801   2.754   0.800 -0.6820 -0.4840 -0.4521
18497TIP3   OH276981   2.174   3.015  15.925  0.1061  0.2155  0.0704
18497TIP3    H176982   2.101   2.961  15.957  0.6017 -0.0681  0.7573
18497TIP3    H276983   2.161   3.100  15.965  1.0925 -0.3243  1.6402
18498TIP3   OH276984   4.707   4.572   4.521  0.1802  0.2137 -0.3380
18498TIP3    H176985   4.616   4.543   4.530 -0.1162  0.1083 -2.9012
18498TIP3    H276986   4.755   4.521   4.586 -1.5529  0.2628  1.0725
18499TIP3   OH276987   2.101   1.987  14.626 -0.5693 -0.1227  0.3159
18499TIP3    H176988   2.032   2.013  14.688 -1.1945 -0.4149 -0.2393
18499TIP3    H276989   2.088   1.893  14.614  0.4806 -0.3535  0.8525
18500TIP3   OH276990   5.550   4.337   4.568 -0.5790  0.3511 -0.0271
18500TIP3    H176991   5.585   4.317   4.655  1.3881  0.8027 -0.6453
18500TIP3    H276992   5.486   4.406   4.582  0.4590  1.1376  0.9834
18501TIP3   OH276993   5.623   4.733  12.529  0.1109  0.5673  0.0394
18501TIP3    H176994   5.585   4.818  12.508  1.6989  1.2217 -0.2998
18501TIP3    H276995   5.702   4.728  12.475  0.4509 -0.7995  0.6199
18502TIP3   OH276996   4.425   5.940   3.874 -0.2002 -0.6440  0.5873
18502TIP3    H176997   4.397   5.908   3.788  1.5353 -0.4073 -0.0959
18502TIP3    H276998   4.463   6.026   3.856 -0.2589 -0.3776  1.6782
18503TIP3   OH276999   5.256   1.196   4.500  0.4213 -0.4371  0.3137
18503TIP3    H177000   5.205   1.145   4.563  0.2178 -1.0289 -0.3116
18503TIP3    H277001   5.207   1.278   4.490 -1.0689 -1.4248 -1.0907
18504TIP3   OH277002   1.132   5.705  12.647 -0.9349  0.0037  0.3626
18504TIP3    H177003   1.050   5.678  12.605 -0.4208 -0.5842 -0.3081
18504TIP3    H277004   1.187   5.735  12.574  0.6166 -2.6523  0.2791
18505TIP3   OH277005   0.501   4.814  11.466  0.5119 -0.1680 -0.2011
18505TIP3    H177006   0.478   4.874  11.537  1.8421 -0.7515  0.7890
18505TIP3    H277007   0.487   4.727  11.504 -0.6436 -0.5041 -1.3494
18506TIP3   OH277008   0.660   0.246   2.912 -0.7880  0.1320 -0.3186
18506TIP3    H177009   0.730   0.195   2.953 -0.8106  1.0891  0.9738
18506TIP3    H277010   0.579   0.213   2.952 -0.9787 -0.1321 -0.9068
18507TIP3   OH277011   1.973   3.818  11.366 -0.6875 -0.0492  0.0046
18507TIP3    H177012   1.950   3.908  11.389 -1.0067 -0.0419 -0.3456
18507TIP3    H277013   1.991   3.821  11.272 -0.4254 -0.2967  0.0440
18508TIP3   OH277014   5.896   2.787  12.379 -0.4247  0.1882 -0.0686
18508TIP3    H177015   5.966   2.790  12.443 -0.3228  1.4518 -0.2177
18508TIP3    H277016   5.879   2.879  12.357 -1.9094 -0.1108 -0.2644
18509TIP3   OH277017   5.995   4.947  16.135 -0.1615  0.7265 -0.8674
18509TIP3    H177018   6.066   4.882  16.129  1.4805  2.5240 -2.2468
18509TIP3    H277019   6.000   4.995  16.053 -1.5321  2.3950 -0.0336
18510TIP3   OH277020   4.726   2.567  14.656 -0.0367  0.1985 -0.2356
18510TIP3    H177021   4.693   2.648  14.619 -2.1375 -0.8515 -0.8319
18510TIP3    H277022   4.742   2.587  14.749 -0.7546  1.2226 -0.3232
18511TIP3   OH277023   3.670   1.105   5.922  0.1138  0.1493 -0.4981
18511TIP3    H177024   3.687   1.123   6.014 -1.8612  0.7535 -0.2071
18511TIP3    H277025   3.713   1.176   5.875  0.2742  0.4039  0.0238
18512TIP3   OH277026   4.133   5.269   1.360 -0.3825 -0.5445 -0.1148
18512TIP3    H177027   4.220   5.270   1.320 -1.0009  0.0823 -1.4995
18512TIP3    H277028   4.088   5.197   1.317 -1.2305  0.4665 -0.9821
18513TIP3   OH277029   3.850   2.656  15.088 -1.0635 -0.1054  0.0092
18513TIP3    H177030   3.755   2.647  15.091 -1.1576  0.2004 -1.2933
18513TIP3    H277031   3.866   2.713  15.013  0.2065 -1.4222 -0.7840
18514TIP3   OH277032   4.600   4.765   0.029  0.2099 -0.2588  0.3796
18514TIP3    H177033   4.558   4.850   0.041 -0.1089 -0.3521 -0.0801
18514TIP3    H277034   4.546   4.720  -0.035  1.0515 -0.3596 -0.2679
18515TIP3   OH277035   5.127   4.793   2.834  0.8665  0.5395  0.1055
18515TIP3    H177036   5.201   4.768   2.779  0.0248 -1.9207 -0.0275
18515TIP3    H277037   5.063   4.831   2.774  1.2180  0.8421 -0.0830
18516TIP3   OH277038   6.172   5.147   0.786  0.0775 -0.1432  0.3727
18516TIP3    H177039   6.200   5.238   0.794 -0.5344  0.0541  0.3025
18516TIP3    H277040   6.167   5.115   0.876 -0.1252  0.0225  0.4210
18517TIP3   OH277041   2.204   1.802  16.529  0.1653 -0.0354 -0.0622
18517TIP3    H177042   2.204   1.894  16.500  0.4293 -0.4480 -1.4596
18517TIP3    H277043   2.112   1.779  16.534  0.0979  0.2895  0.2376
18518TIP3   OH277044   6.182   2.384   1.987  0.0060  0.1855 -0.0492
18518TIP3    H177045   6.122   2.348   2.053  0.3256 -2.8041 -1.2475
18518TIP3    H277046   6.268   2.383   2.030  0.4872 -3.1572 -0.7801
18519TIP3   OH277047   4.766   3.520  11.944  0.0340  0.2673  0.3142
18519TIP3    H177048   4.716   3.583  11.892  0.0016  0.1706  0.2263
18519TIP3    H277049   4.857   3.532  11.917 -0.2293 -1.4263 -1.5540
18520TIP3   OH277050   3.443   2.634  17.004 -0.2195  0.4730 -0.6607
18520TIP3    H177051   3.471   2.701  17.067  2.0650 -0.0877 -0.9797
18520TIP3    H277052   3.373   2.676  16.955 -1.0374  1.4672  1.2341
18521TIP3   OH277053   6.096   5.910   5.205  0.8686 -0.2946 -0.2384
18521TIP3    H177054   6.113   5.816   5.213 -1.9138 -0.8409  0.3358
18521TIP3    H277055   6.058   5.920   5.118  1.4169  0.3692 -0.4066
18522TIP3   OH277056   4.935   6.745  11.643  0.2323  0.8774  0.0221
18522TIP3    H177057   4.964   6.655  11.650 -0.2278  0.8061  1.1166
18522TIP3    H277058   4.916   6.757  11.550 -0.2805 -0.3302 -0.0353
18523TIP3   OH277059   4.697   2.907   4.598 -0.5174  0.3923  0.3401
18523TIP3    H177060   4.658   2.944   4.678 -1.2997  1.1832 -0.3912
18523TIP3    H277061   4.646   2.945   4.527 -0.6815 -1.3177 -0.5025
18524TIP3   OH277062   4.021   4.837   6.004  0.0314  0.3838  1.0613
18524TIP3    H177063   4.052   4.909   5.950  0.1114 -0.5804 -0.2121
18524TIP3    H277064   4.064   4.850   6.088  2.4506  0.1313 -0.0607
18525TIP3   OH277065   3.892   4.321   1.107 -0.4850  0.0929 -0.8109
18525TIP3    H177066   3.854   4.401   1.143  0.5944  0.8222 -1.2240
18525TIP3    H277067   3.983   4.322   1.137  0.1313  0.1364 -2.5550
18526TIP3   OH277068   2.937   4.623   5.256  0.8878  0.5939  0.1519
18526TIP3    H177069   2.851   4.664   5.244  1.7489  2.2413 -0.6837
18526TIP3    H277070   2.941   4.603   5.349 -0.1736  1.0704  0.3139
18527TIP3   OH277071   2.817   1.431  15.456  0.0072 -0.0964 -0.0569
18527TIP3    H177072   2.830   1.524  15.438 -1.6909  0.0936 -0.5372
18527TIP3    H277073   2.889   1.407  15.514  0.6537  1.4371 -0.1711
18528TIP3   OH277074   2.749   1.041  16.598 -0.9598 -0.6798  0.3551
18528TIP3    H177075   2.750   1.134  16.621 -0.2569 -0.0555 -1.8794
18528TIP3    H277076   2.750   0.995  16.682  2.8204  1.3023  1.6380
18529TIP3   OH277077   5.314   5.464   1.250  0.0093  0.6869  0.1112
18529TIP3    H177078   5.246   5.523   1.284 -1.2019  0.7023 -2.1341
18529TIP3    H277079   5.277   5.430   1.169  1.8633 -0.9868 -0.0984
18530TIP3   OH277080   1.884   5.594   1.187 -0.1907  0.0248  0.5412
18530TIP3    H177081   1.840   5.600   1.272 -1.7817 -1.8435 -0.0721
18530TIP3    H277082   1.824   5.635   1.125  2.0234  3.6338  0.5093
18531TIP3   OH277083   6.440   4.243   2.669 -0.4607  0.4779  0.1157
18531TIP3    H177084   6.466   4.329   2.701 -0.2563  0.0270  1.2002
18531TIP3    H277085   6.347   4.251   2.649 -0.5070  0.8700  0.4868
18532TIP3   OH277086   4.315   6.791   1.074 -0.0437  0.2321  0.1394
18532TIP3    H177087   4.296   6.793   1.168  0.1405 -0.3189  0.1909
18532TIP3    H277088   4.403   6.826   1.067  0.3936 -0.8123  0.2958
18533TIP3   OH277089   1.225   3.927   0.066  0.3484  0.1820  0.0380
18533TIP3    H177090   1.240   4.016   0.097  0.4280  0.0815  0.2911
18533TIP3    H277091   1.142   3.932   0.018  0.4128  0.4161 -0.0496
18534TIP3   OH277092   0.773   6.591  12.458  0.0482  0.0781  1.2648
18534TIP3    H177093   0.827   6.592  12.538  0.6241  1.0336  0.8820
18534TIP3    H277094   0.684   6.579  12.490  0.3582 -0.3811  1.9944
18535TIP3   OH277095   4.603   5.352   2.067  0.1273  0.0697 -0.5176
18535TIP3    H177096   4.517   5.392   2.050 -0.1854 -0.8741 -1.2058
18535TIP3    H277097   4.663   5.400   2.010  0.1921  1.1703  0.4398
18536TIP3   OH277098   3.998   4.731  10.978  0.9584  0.3003 -0.7034
18536TIP3    H177099   3.911   4.744  10.940  0.2044 -0.3012  0.7310
18536TIP3    H277100   4.028   4.648  10.942  0.2130 -0.3089  0.0427
18537TIP3   OH277101   4.969   2.422   0.010  0.4624 -0.9857 -0.2467
18537TIP3    H177102   5.064   2.432  -0.004  0.6131 -0.0634  1.1949
18537TIP3    H277103   4.961   2.392   0.100 -0.6195 -1.2342 -0.4131
18538TIP3   OH277104   5.384   5.907   6.586 -0.1682 -0.1046  0.5311
18538TIP3    H177105   5.439   5.838   6.623 -0.0030  0.0697  0.6074
18538TIP3    H277106   5.348   5.952   6.662 -1.8181 -1.3133  0.5277
18539TIP3   OH277107   5.477   3.303   2.931  0.0637 -0.2665  0.0918
18539TIP3    H177108   5.536   3.372   2.959 -1.8155  0.7942  1.7363
18539TIP3    H277109   5.520   3.222   2.957  1.4628  0.3677 -0.1679
18540TIP3   OH277110   3.399   0.235  16.869  0.0303  0.6919 -0.1848
18540TIP3    H177111   3.377   0.148  16.836 -0.7402  1.3752 -1.5179
18540TIP3    H277112   3.425   0.285  16.792  0.6946  1.5966  0.5943
18541TIP3   OH277113   5.014   4.231  12.607  0.7264 -0.2772 -0.1225
18541TIP3    H177114   5.109   4.222  12.600  0.6851 -0.4979 -0.4353
18541TIP3    H277115   4.983   4.224  12.517  0.5760  1.9141 -0.2963
18542TIP3   OH277116   1.598   3.745  12.947  0.8424  0.0758  0.6879
18542TIP3    H177117   1.658   3.782  12.881  0.0640 -1.8875 -1.2703
18542TIP3    H277118   1.537   3.815  12.966  0.9379  0.6527 -0.9488
18543TIP3   OH277119   4.215   0.875  14.426 -0.0309  0.5406 -0.1933
18543TIP3    H177120   4.305   0.848  14.446 -0.6866 -1.0553  0.7339
18543TIP3    H277121   4.190   0.929  14.501 -0.2406  0.0099  0.1216
18544TIP3   OH277122   2.871   4.647   4.930 -0.2501  0.0985 -1.0319
18544TIP3    H177123   2.893   4.738   4.948  1.7091 -0.4427 -0.4854
18544TIP3    H277124   2.783   4.636   4.966  0.3483  1.2075  0.9428
18545TIP3   OH277125   6.239   2.123   4.383  0.6375 -0.0785  0.1321
18545TIP3    H177126   6.271   2.042   4.343 -0.4523  0.3111 -1.6657
18545TIP3    H277127   6.296   2.137   4.458  3.2655 -0.5519 -1.6262
18546TIP3   OH277128   0.783   5.307  17.178  0.5169  0.0019  0.1840
18546TIP3    H177129   0.690   5.292  17.163  1.0382 -2.3493 -1.1943
18546TIP3    H277130   0.788   5.397  17.210 -2.1982  0.2093  0.2406
18547TIP3   OH277131   1.740   0.719   0.059  0.1921 -0.0015  0.5177
18547TIP3    H177132   1.652   0.701   0.091 -0.2605 -1.0472 -1.1727
18547TIP3    H277133   1.739   0.688  -0.032  2.4418 -0.4973  0.6071
18548TIP3   OH277134   4.682   2.630  14.313  0.7708  0.2367 -0.7455
18548TIP3    H177135   4.770   2.593  14.323  1.7403  2.0918 -1.8776
18548TIP3    H277136   4.679   2.702  14.376  1.8782  3.1575 -3.7211
18549TIP3   OH277137   5.448   5.131  12.255 -0.6678 -0.3998 -0.1230
18549TIP3    H177138   5.442   5.188  12.332  0.0879  2.0518 -1.7633
18549TIP3    H277139   5.382   5.165  12.194  0.7810 -0.2993 -1.7149
18550TIP3   OH277140   1.478   2.228  13.334  0.5546  0.5076  0.1924
18550TIP3    H177141   1.440   2.312  13.359  0.1493 -0.0358  1.4921
18550TIP3    H277142   1.403   2.171  13.317  0.7986  0.0199  0.7104
18551TIP3   OH277143   6.580   2.510  13.718  0.1584  0.5179 -0.1325
18551TIP3    H177144   6.669   2.504  13.753  0.4617 -1.0813 -1.0892
18551TIP3    H277145   6.586   2.472  13.630 -1.6610 -0.5527  0.1565
18552TIP3   OH277146   0.860   6.690   2.104 -0.5454 -0.6013  0.2558
18552TIP3    H177147   0.834   6.777   2.135 -2.2187 -1.4457  1.3206
18552TIP3    H277148   0.884   6.705   2.012 -0.4492  1.0387  0.5039
18553TIP3   OH277149   6.584   1.414  13.914  0.1984  0.2238 -0.3870
18553TIP3    H177150   6.538   1.460  13.985 -3.5350 -0.8354 -1.8745
18553TIP3    H277151   6.633   1.345  13.958 -0.2146  0.9370  1.2971
18554TIP3   OH277152   4.876   5.411   4.255 -0.4044  0.2967 -0.4578
18554TIP3    H177153   4.888   5.467   4.178  0.0477  0.2843 -0.3987
18554TIP3    H277154   4.884   5.470   4.329  1.1522 -0.0049 -0.3578
18555TIP3   OH277155   0.824   6.082   5.757  0.3785  0.1350 -0.7890
18555TIP3    H177156   0.862   6.155   5.806  1.0940  0.0106 -1.1385
18555TIP3    H277157   0.860   6.004   5.798 -2.6172 -0.2203  1.4830
18556TIP3   OH277158   4.332   0.853   2.200 -0.1345 -0.0296  0.4676
18556TIP3    H177159   4.328   0.757   2.210 -0.4275  0.0459  1.0880
18556TIP3    H277160   4.255   0.874   2.147  0.5971 -0.2637 -0.7174
18557TIP3   OH277161   3.981   4.048   4.506 -0.1869 -0.7549  0.4179
18557TIP3    H177162   4.065   4.004   4.492  0.4850  0.9729 -1.5748
18557TIP3    H277163   3.937   4.042   4.421 -0.2719  1.8261  0.1821
18558TIP3   OH277164   4.517   2.169   2.126  0.4600 -0.6822 -0.5694
18558TIP3    H177165   4.568   2.244   2.096  0.7877  0.6797  2.9617
18558TIP3    H277166   4.475   2.199   2.207 -0.6711 -3.8345  0.1648
18559TIP3   OH277167   3.032   3.587   2.216  0.1804  0.0046  0.2008
18559TIP3    H177168   3.000   3.674   2.240 -0.3868  0.3239 -1.5874
18559TIP3    H277169   2.980   3.527   2.269  0.2415  0.7203  1.0993
18560TIP3   OH277170   1.620   4.942   4.072 -0.5918  0.0454  0.1935
18560TIP3    H177171   1.611   5.003   4.145 -1.4179 -0.1030  0.2273
18560TIP3    H277172   1.532   4.936   4.035 -0.6214 -1.4935  0.4751
18561TIP3   OH277173   1.788   2.093   4.503  0.1123  0.2949 -0.4950
18561TIP3    H177174   1.717   2.107   4.441  0.5368  0.2602 -0.9961
18561TIP3    H277175   1.774   2.159   4.571 -0.9942 -0.3733 -0.0378
18562TIP3   OH277176   3.816   1.021  12.497 -0.1068  0.1140  0.3086
18562TIP3    H177177   3.728   1.030  12.535  0.9158 -1.4115  3.3246
18562TIP3    H277178   3.800   1.005  12.404 -3.0596 -0.5386  0.8345
18563TIP3   OH277179   2.299   2.170   5.455 -0.4167 -0.3317 -0.5826
18563TIP3    H177180   2.235   2.160   5.385  0.8584 -2.3853 -1.5688
18563TIP3    H277181   2.281   2.097   5.514 -0.8888  0.8457  0.7843
18564TIP3   OH277182   6.049   3.880  11.707 -0.2649  0.0917 -0.0163
18564TIP3    H177183   5.971   3.920  11.667  0.6434  0.5510 -1.4107
18564TIP3    H277184   6.104   3.855  11.632  1.6276  1.1954  0.9251
18565TIP3   OH277185   3.948   5.119  13.521 -0.0515 -0.0163  0.4896
18565TIP3    H177186   4.036   5.102  13.555 -0.2763  0.9476  1.6105
18565TIP3    H277187   3.940   5.059  13.447  2.3466  1.2889 -0.9826
18566TIP3   OH277188   6.654   4.916  13.951 -0.3973 -0.4134 -0.1082
18566TIP3    H177189   6.731   4.935  13.898  1.0542  0.0450  2.0265
18566TIP3    H277190   6.678   4.838  14.001 -0.8118  0.4347  1.4847
18567TIP3   OH277191   5.927   1.037   0.441 -0.0372 -0.5040  0.2165
18567TIP3    H177192   5.901   1.077   0.358  0.5052  0.7769  0.6233
18567TIP3    H277193   5.846   1.029   0.491 -0.0981  0.7497  0.3689
18568TIP3   OH277194   2.477   4.432   1.430 -0.7858 -0.0576 -0.2564
18568TIP3    H177195   2.556   4.396   1.390 -0.2900 -0.3282  0.9333
18568TIP3    H277196   2.407   4.409   1.369  0.2803  2.1332 -2.4991
18569TIP3   OH277197   2.804   6.282   5.088 -0.7397  0.0139  0.3397
18569TIP3    H177198   2.875   6.332   5.128  0.7599 -1.4063 -0.4487
18569TIP3    H277199   2.790   6.208   5.146 -0.8230 -0.2898 -0.0597
18570TIP3   OH277200   1.019   5.195  14.448  0.0216 -0.4515  0.1269
18570TIP3    H177201   0.994   5.115  14.401 -1.2329 -0.3392  0.5742
18570TIP3    H277202   1.114   5.188  14.459  0.3904 -0.4883 -2.4263
18571TIP3   OH277203   2.479   0.854   3.479  0.0195 -0.0893  0.2566
18571TIP3    H177204   2.383   0.857   3.480 -0.0783 -1.4019 -0.9299
18571TIP3    H277205   2.506   0.946   3.477 -1.2043  0.2991  0.7146
18572TIP3   OH277206   4.059   0.489   1.579  0.5883  0.0494 -0.1297
18572TIP3    H177207   4.026   0.439   1.654 -0.3530  0.2415 -0.3952
18572TIP3    H277208   4.026   0.441   1.502  0.5857  0.4811 -0.4020
18573TIP3   OH277209   4.669   1.237  11.131  0.3205 -0.6192  0.7846
18573TIP3    H177210   4.735   1.274  11.072 -0.6431  0.9827  0.6431
18573TIP3    H277211   4.593   1.294  11.120  0.2590  0.0814  3.9524
18574TIP3   OH277212   1.945   0.377  15.646  0.4694  0.5024 -0.2050
18574TIP3    H177213   1.853   0.354  15.657  0.1648  0.8432 -1.8425
18574TIP3    H277214   1.944   0.468  15.616  1.1965 -0.2195 -2.5684
18575TIP3   OH277215   1.554   3.497   0.740 -0.5770 -0.2685  0.4123
18575TIP3    H177216   1.647   3.520   0.752 -0.2683 -1.0049 -0.4719
18575TIP3    H277217   1.556   3.417   0.689 -1.7221 -0.0754  0.0508
18576TIP3   OH277218   1.502   4.819  17.086  0.2792  0.6286  0.2100
18576TIP3    H177219   1.493   4.731  17.048  1.3828  0.6936 -0.2445
18576TIP3    H277220   1.580   4.813  17.142 -0.5015  0.9249  1.3630
18577TIP3   OH277221   5.106   5.000  16.583  0.0072 -0.0441  0.2510
18577TIP3    H177222   5.024   4.960  16.611  0.8667 -1.9390  0.1664
18577TIP3    H277223   5.163   4.995  16.659  0.3449  0.4753  0.0415
18578TIP3   OH277224   1.740   5.137  13.922 -0.1681 -0.3132 -0.1048
18578TIP3    H177225   1.750   5.179  14.007  0.2521 -1.1429  0.2677
18578TIP3    H277226   1.819   5.162  13.874 -0.6085  0.5172 -0.4297
18579TIP3   OH277227   6.506   0.205   2.501 -0.1968  0.0466  0.5025
18579TIP3    H177228   6.558   0.147   2.445  0.0644  1.1531 -0.4507
18579TIP3    H277229   6.482   0.278   2.444 -0.9323  0.6398  1.5334
18580TIP3   OH277230   1.360   4.042  12.242  0.3542 -0.0973 -0.1106
18580TIP3    H177231   1.296   3.974  12.264  1.5461 -1.5510 -0.8974
18580TIP3    H277232   1.368   4.095  12.321  0.6883 -1.9947  1.1903
18581TIP3   OH277233   2.517   2.552   1.645  0.0362 -0.0648  0.7834
18581TIP3    H177234   2.519   2.481   1.708 -0.1060 -0.4413  0.3672
18581TIP3    H277235   2.558   2.626   1.691 -1.0266 -0.0101  1.6921
18582TIP3   OH277236   6.218   0.035  11.378  0.2420  0.4805 -0.1008
18582TIP3    H177237   6.138   0.079  11.406  0.1633 -0.2915  0.9409
18582TIP3    H277238   6.288   0.082  11.424  0.4253  1.2248 -1.0928
18583TIP3   OH277239   0.957   0.001  15.127 -0.2028 -0.2630 -0.0113
18583TIP3    H177240   0.916  -0.081  15.154  0.4354 -0.3322  0.7799
18583TIP3    H277241   1.015  -0.023  15.054  1.4681 -0.8965  1.4585
18584TIP3   OH277242   0.383   5.234   2.962 -0.1590 -0.1023  0.3021
18584TIP3    H177243   0.375   5.145   2.929 -0.0862 -0.9590  2.4444
18584TIP3    H277244   0.311   5.243   3.025 -0.0790  1.3018  0.2170
18585TIP3   OH277245   0.939   5.717  16.695  0.0929 -0.5201  0.4415
18585TIP3    H177246   0.972   5.649  16.636 -0.3730  0.3246 -0.8398
18585TIP3    H277247   0.850   5.735  16.664 -0.0964  0.0806  1.2856
18586TIP3   OH277248   0.135   6.577  13.466  0.0778 -0.6803 -0.2017
18586TIP3    H177249   0.089   6.661  13.465  2.1668  0.5145 -0.0148
18586TIP3    H277250   0.191   6.581  13.543  2.5464 -0.8942 -1.8946
18587TIP3   OH277251   3.803   4.455  11.998 -0.0464 -0.5575  0.5725
18587TIP3    H177252   3.812   4.501  11.915  0.0789  0.5328  1.1674
18587TIP3    H277253   3.711   4.470  12.023 -0.0218 -0.6813  0.7373
18588TIP3   OH277254   4.165   3.220   5.236 -0.3904 -0.1508 -0.2644
18588TIP3    H177255   4.194   3.290   5.178  0.9424 -0.1724  0.3313
18588TIP3    H277256   4.215   3.143   5.208 -0.0150 -0.2551  0.6387
18589TIP3   OH277257   0.740   3.625   1.243  0.0759 -0.7099 -0.1476
18589TIP3    H177258   0.765   3.552   1.187  0.5970  0.9364 -2.1527
18589TIP3    H277259   0.822   3.654   1.283  0.1974 -0.0532 -0.8485
18590TIP3   OH277260   4.844   3.192  15.785  0.0639 -1.1251  0.3533
18590TIP3    H177261   4.872   3.133  15.714  0.9513  0.7711 -0.9454
18590TIP3    H277262   4.926   3.225  15.822 -0.4148 -1.1746  1.5064
18591TIP3   OH277263   5.753   5.187  14.211 -0.1492  0.1934  0.0649
18591TIP3    H177264   5.728   5.095  14.212 -1.0933  0.4347  1.7984
18591TIP3    H277265   5.846   5.187  14.235 -0.2619 -0.2692  0.5081
18592TIP3   OH277266   4.487   4.047  14.144 -0.4422  0.7625 -0.0709
18592TIP3    H177267   4.566   4.095  14.119 -0.7049  0.8027 -0.8324
18592TIP3    H277268   4.453   4.012  14.062 -1.6063  1.3302  0.1640
18593TIP3   OH277269   0.368   2.183   5.478 -0.3565 -0.1832  0.4074
18593TIP3    H177270   0.456   2.217   5.461  0.2767 -1.0310  1.7849
18593TIP3    H277271   0.348   2.127   5.403  0.7226 -0.7954  0.5542
18594TIP3   OH277272   5.588   2.408  12.328  0.3171 -0.0547  0.0013
18594TIP3    H177273   5.636   2.454  12.260 -0.5200  0.9351  0.0513
18594TIP3    H277274   5.521   2.471  12.357 -0.0906 -0.8764  0.9106
18595TIP3   OH277275   6.587   1.043  15.970 -0.6898  1.1262  0.0672
18595TIP3    H177276   6.514   1.104  15.977 -0.9555  1.0866 -1.8809
18595TIP3    H277277   6.611   1.044  15.877  0.2220 -0.6692  0.2354
18596TIP3   OH277278   4.769   4.633  15.110 -0.3651  0.0114 -0.5169
18596TIP3    H177279   4.742   4.601  15.196  0.3836  0.2281 -0.2011
18596TIP3    H277280   4.692   4.678  15.076 -0.8680 -0.6135 -0.2309
18597TIP3   OH277281   4.457   0.845  12.896  0.1962 -0.0189 -0.0206
18597TIP3    H177282   4.436   0.752  12.893 -0.9086  0.2354 -1.5554
18597TIP3    H277283   4.518   0.859  12.824  0.9605  0.3374  0.6714
18598TIP3   OH277284   1.351   2.223   0.037 -0.6743  0.2758  0.4577
18598TIP3    H177285   1.413   2.207  -0.034  0.2331  0.6895  1.1367
18598TIP3    H277286   1.265   2.222  -0.006 -0.2127 -0.3209 -0.4985
18599TIP3   OH277287   0.087   5.368  11.844 -0.1131 -0.0578 -0.7068
18599TIP3    H177288   0.059   5.291  11.893  1.2868 -0.6937 -0.8507
18599TIP3    H277289   0.036   5.440  11.882 -0.0061 -0.7352  0.8099
18600TIP3   OH277290   3.442   6.021   3.457 -0.3168  0.6865  0.3500
18600TIP3    H177291   3.420   6.021   3.550  0.2239 -3.2145  0.6288
18600TIP3    H277292   3.530   6.058   3.453  0.3608 -0.6681  1.6821
18601TIP3   OH277293   3.511   4.245  16.044 -0.1266 -0.2033  0.2585
18601TIP3    H177294   3.547   4.334  16.047 -1.9059  0.5358  0.4490
18601TIP3    H277295   3.588   4.190  16.028  0.8954  1.4390 -0.8886
18602TIP3   OH277296   4.059   4.690  16.888 -0.2293 -0.6054  0.6255
18602TIP3    H177297   4.126   4.755  16.909  0.1078 -0.6648 -0.2326
18602TIP3    H277298   4.024   4.718  16.804  0.2685 -1.7979  0.0002
18603TIP3   OH277299   5.207   6.175   0.001 -0.1230 -0.9872  0.3990
18603TIP3    H177300   5.139   6.240  -0.017 -1.9780 -2.7327  0.7998
18603TIP3    H277301   5.260   6.214   0.070 -1.2351  0.0771  0.6799
18604TIP3   OH277302   3.617   0.289  17.027 -0.1936  0.5616  0.1936
18604TIP3    H177303   3.660   0.233  17.091 -0.5039  1.3603  1.1144
18604TIP3    H277304   3.540   0.239  16.999  0.0634  0.1205  0.2675
18605TIP3   OH277305   6.505   3.356  13.353  0.6227 -0.3568  0.0633
18605TIP3    H177306   6.481   3.312  13.272  0.6311 -0.5676  0.1729
18605TIP3    H277307   6.598   3.376  13.343  0.9355 -1.4896  0.5121
18606TIP3   OH277308   5.642   3.680  16.614  0.2110 -0.7850 -0.1272
18606TIP3    H177309   5.643   3.753  16.552 -0.4078 -0.9191 -0.3097
18606TIP3    H277310   5.672   3.717  16.696  1.0186 -0.5938 -0.5002
18607TIP3   OH277311   4.355   0.362   0.905 -0.1133  0.8984  0.0734
18607TIP3    H177312   4.354   0.439   0.962 -0.0883  0.2082  1.0325
18607TIP3    H277313   4.419   0.303   0.946 -0.0872  0.3985 -0.6834
18608TIP3   OH277314   4.671   2.619  13.355  0.2469  0.6072 -0.0454
18608TIP3    H177315   4.709   2.537  13.321  0.9154  1.0606 -0.4189
18608TIP3    H277316   4.635   2.662  13.277  1.2856  1.3914 -0.1145
18609TIP3   OH277317   4.610   0.674   3.257  0.4825 -0.4691 -0.0681
18609TIP3    H177318   4.550   0.606   3.225  1.4638 -0.7123 -1.4805
18609TIP3    H277319   4.584   0.688   3.348 -1.5168 -0.7757 -0.5541
18610TIP3   OH277320   2.956   1.678  15.586 -0.4939  0.3002  0.4302
18610TIP3    H177321   3.042   1.701  15.621  0.1537 -1.5111  0.0957
18610TIP3    H277322   2.947   1.732  15.508  1.1893 -0.8175 -0.5996
18611TIP3   OH277323   5.298   2.138   4.325 -0.0641  0.0857 -0.6189
18611TIP3    H177324   5.368   2.173   4.381 -0.2179  0.8793 -0.9165
18611TIP3    H277325   5.222   2.192   4.346 -0.6491 -0.8896 -0.1654
18612TIP3   OH277326   4.453   0.293   5.066 -0.2376 -0.1511 -0.0593
18612TIP3    H177327   4.419   0.296   4.977 -1.5672  0.0160  0.4290
18612TIP3    H277328   4.505   0.214   5.070 -1.1186 -0.7786 -0.6721
18613TIP3   OH277329   6.401   1.085  14.555  0.0880 -0.8242 -0.1724
18613TIP3    H177330   6.380   0.994  14.572  0.3240 -0.6788  1.0222
18613TIP3    H277331   6.489   1.097  14.591  0.6699 -0.4806 -1.6462
18614TIP3   OH277332   1.278   5.804   6.374  0.1961 -0.2165 -0.4028
18614TIP3    H177333   1.199   5.810   6.429  2.7418 -0.4597  3.7494
18614TIP3    H277334   1.284   5.889   6.331 -1.6283  0.2626  0.1859
18615TIP3   OH277335   4.409   6.052  12.996 -0.2258  0.1394 -0.1265
18615TIP3    H177336   4.449   6.136  13.018 -2.0577  0.8524  0.6523
18615TIP3    H277337   4.479   6.003  12.951  1.8098  0.8935  2.0324
18616TIP3   OH277338   4.382   4.349  16.144 -0.3610 -0.5698 -0.5326
18616TIP3    H177339   4.466   4.318  16.178  0.9786  2.4964 -0.7673
18616TIP3    H277340   4.385   4.330  16.051 -0.5758 -1.7485 -0.3130
18617TIP3   OH277341   2.795   2.622  13.858 -0.1301 -0.0672 -0.0694
18617TIP3    H177342   2.707   2.588  13.840  0.0007 -1.1488  1.2082
18617TIP3    H277343   2.851   2.545  13.853 -0.1290 -0.7310  5.2668
18618TIP3   OH277344   4.066   4.319  16.495 -0.1191 -0.0844  0.6354
18618TIP3    H177345   4.037   4.390  16.552  0.3930 -0.4345  1.3430
18618TIP3    H277346   4.006   4.322  16.421  0.1002  1.2962  0.4962
18619TIP3   OH277347   1.485   0.149  11.159  0.5388 -0.0997 -0.0400
18619TIP3    H177348   1.436   0.083  11.207  0.4764  1.5081  2.2516
18619TIP3    H277349   1.418   0.202  11.116  0.3998  0.4201  0.8050
18620TIP3   OH277350   1.426   0.754  11.617  0.4707 -0.1695  0.2985
18620TIP3    H177351   1.348   0.749  11.671  0.7538 -1.5893  0.6093
18620TIP3    H277352   1.393   0.780  11.531 -0.2650 -0.1258  0.5841
18621TIP3   OH277353   5.492   3.877  16.423 -0.6450 -0.5281 -0.3970
18621TIP3    H177354   5.438   3.812  16.469  0.2740 -0.6513  0.5229
18621TIP3    H277355   5.440   3.958  16.427 -0.7584 -0.6339  0.5026
18622TIP3   OH277356   6.782   2.252  16.962  1.1268 -0.2323 -0.3083
18622TIP3    H177357   6.803   2.346  16.953  0.4962 -0.1922 -1.6109
18622TIP3    H277358   6.738   2.230  16.879  2.1031 -1.9039 -0.4073
18623TIP3   OH277359   5.606   5.509   2.393 -0.2916  0.2687 -0.2154
18623TIP3    H177360   5.605   5.424   2.348  2.3072 -0.9969  1.8775
18623TIP3    H277361   5.518   5.545   2.378 -0.9846 -2.0638 -2.4297
18624TIP3   OH277362   5.794   2.760   4.559 -0.3332  0.5467 -0.2451
18624TIP3    H177363   5.782   2.786   4.468  0.9865  0.5573 -0.4288
18624TIP3    H277364   5.742   2.823   4.609 -0.6426  0.8642 -0.9575
18625TIP3   OH277365   3.694   3.143  15.131  0.0408  0.8892  0.2258
18625TIP3    H177366   3.661   3.116  15.046 -0.6740 -2.2483  1.3614
18625TIP3    H277367   3.782   3.177  15.113 -0.2462  0.6580 -1.7743
18626TIP3   OH277368   5.122   3.727  11.524 -0.4802  0.2316  0.1044
18626TIP3    H177369   5.121   3.633  11.505 -0.5488  0.4577 -1.1065
18626TIP3    H277370   5.113   3.768  11.438  0.8243  1.3582  0.4721
18627TIP3   OH277371   3.532   3.493  13.686 -0.1728  0.1060  0.3378
18627TIP3    H177372   3.557   3.404  13.662 -0.4116 -0.2229  1.2552
18627TIP3    H277373   3.600   3.523  13.746  1.2716  1.5073 -1.8669
18628TIP3   OH277374   0.599   6.706   3.109 -0.7286 -0.2842 -0.2217
18628TIP3    H177375   0.593   6.758   3.189 -0.1140 -0.5272 -0.0072
18628TIP3    H277376   0.514   6.663   3.102 -1.7613  1.8233 -1.1701
18629TIP3   OH277377   2.923   0.694  13.608 -0.5422 -0.5208  0.0060
18629TIP3    H177378   2.995   0.725  13.554  0.0632 -1.8590  0.0138
18629TIP3    H277379   2.965   0.647  13.680 -1.4159 -2.6679 -0.8262
18630TIP3   OH277380   3.289   5.088   4.587  0.0954 -0.4130  0.0036
18630TIP3    H177381   3.379   5.105   4.560 -0.6440  2.3630 -1.1301
18630TIP3    H277382   3.289   4.998   4.617  2.8773 -1.0352 -1.5461
18631TIP3   OH277383   1.611   2.314  14.507 -0.0774  0.5411 -1.3255
18631TIP3    H177384   1.706   2.324  14.507  0.5353 -3.4235  0.5565
18631TIP3    H277385   1.578   2.394  14.548  2.6537  1.0695  0.0507
18632TIP3   OH277386   4.285   3.331   5.005  0.3833  0.5459 -0.2590
18632TIP3    H177387   4.267   3.265   4.938  1.0985  0.7270 -0.6394
18632TIP3    H277388   4.287   3.414   4.956  1.8650  0.5765 -0.1904
18633TIP3   OH277389   0.201   0.539  10.853 -0.1163 -0.3578  0.1708
18633TIP3    H177390   0.226   0.609  10.793  0.5770  0.2589  1.1717
18633TIP3    H277391   0.280   0.485  10.862  0.3874  0.6246  1.9939
18634TIP3   OH277392   1.187   0.929   6.015 -0.0269 -0.5393 -0.2748
18634TIP3    H177393   1.274   0.898   6.039  0.0045  0.6659  1.3350
18634TIP3    H277394   1.195   0.954   5.923  1.8914  1.2770  0.3073
18635TIP3   OH277395   3.420   0.607  15.737  0.0275 -0.1397  0.2405
18635TIP3    H177396   3.432   0.685  15.793  1.2344  0.7245 -1.1558
18635TIP3    H277397   3.327   0.585  15.747 -0.2252  1.1680  1.0833
18636TIP3   OH277398   2.898   5.599  16.566  0.6656 -0.0795  0.1089
18636TIP3    H177399   2.877   5.595  16.472  0.4971  0.1772  0.1340
18636TIP3    H277400   2.884   5.691  16.589  2.1542  0.1704  0.0609
18637TIP3   OH277401   5.150   5.916  16.367 -0.0705 -0.4597  0.6277
18637TIP3    H177402   5.090   5.990  16.354 -1.3982 -1.6035 -0.0239
18637TIP3    H277403   5.226   5.954  16.411 -1.0675  1.1399  1.0494
18638TIP3   OH277404   6.162   5.996  16.249  0.3535  0.2776  0.5729
18638TIP3    H177405   6.116   5.990  16.165  1.8403  0.4358 -0.2901
18638TIP3    H277406   6.096   5.976  16.314 -0.8239  0.0700 -0.6465
18639TIP3   OH277407   1.462   2.505   3.269  0.1055  0.2672 -0.3946
18639TIP3    H177408   1.478   2.468   3.183  1.6053 -2.4508  0.9227
18639TIP3    H277409   1.540   2.558   3.288 -0.5196  1.4195 -0.9030
18640TIP3   OH277410   5.858   3.494  14.341  0.5428 -0.4843 -0.2676
18640TIP3    H177411   5.941   3.535  14.367  1.5295 -1.4202 -1.7956
18640TIP3    H277412   5.805   3.566  14.306  0.0666  0.3910  2.0555
18641TIP3   OH277413   4.824   1.976   1.608  0.3138  0.0465 -0.3843
18641TIP3    H177414   4.886   1.910   1.640 -0.0445 -0.1238 -0.0283
18641TIP3    H277415   4.877   2.052   1.590  0.5337  0.1575  0.6552
18642TIP3   OH277416   5.279   1.709   5.010  0.4157  0.7962  0.1424
18642TIP3    H177417   5.255   1.617   5.014 -0.9696  0.9804 -1.9991
18642TIP3    H277418   5.219   1.752   5.072 -1.4315  0.6184 -1.4185
18643TIP3   OH277419   1.021   2.443   2.781 -0.0656 -0.3200 -0.4285
18643TIP3    H177420   1.058   2.357   2.799  0.4512 -0.5372 -2.2833
18643TIP3    H277421   0.928   2.426   2.765  0.1534 -0.6646 -1.4282
18644TIP3   OH277422   4.790   6.351   3.519  0.1474  0.6680 -0.3433
18644TIP3    H177423   4.818   6.259   3.519  0.8915  0.8747 -1.7955
18644TIP3    H277424   4.793   6.376   3.612  2.0111 -0.1856 -0.1193
18645TIP3   OH277425   6.506   3.128  15.804  0.3575 -0.0961 -0.7259
18645TIP3    H177426   6.493   3.166  15.717  0.6364 -1.0387 -1.1920
18645TIP3    H277427   6.601   3.127  15.815  0.3289 -0.1339 -0.4793
18646TIP3   OH277428   4.436   3.797   6.116  0.4853  0.0101 -0.5794
18646TIP3    H177429   4.507   3.734   6.126 -0.6156 -0.9726  1.8134
18646TIP3    H277430   4.371   3.751   6.063  0.6717  0.0616 -0.8571
18647TIP3   OH277431   3.510   1.318   0.255  0.1358  0.0879  0.1417
18647TIP3    H177432   3.596   1.311   0.297  0.0859  1.2675  0.4740
18647TIP3    H277433   3.529   1.343   0.164  0.1254  2.3517  0.7067
18648TIP3   OH277434   4.327   1.661  17.125 -0.3199  0.1617 -0.0652
18648TIP3    H177435   4.410   1.617  17.106 -0.4660  0.1210 -0.6246
18648TIP3    H277436   4.331   1.742  17.073 -0.4116  0.4063  0.3043
18649TIP3   OH277437   1.205   2.149  14.648 -0.3258  0.1151  0.3583
18649TIP3    H177438   1.299   2.159  14.635 -0.1498 -0.3238  1.1815
18649TIP3    H277439   1.173   2.112  14.565  0.3248 -0.2906  0.2800
18650TIP3   OH277440   3.785   6.769  16.967 -0.7315 -0.0297 -0.1053
18650TIP3    H177441   3.730   6.702  17.009 -0.6637  1.2175  2.1340
18650TIP3    H277442   3.791   6.839  17.032 -0.3987  1.9641 -2.1679
18651TIP3   OH277443   4.945   4.156   1.308 -0.3218  0.5689 -0.2509
18651TIP3    H177444   4.850   4.161   1.298 -0.5519 -2.5795 -0.9192
18651TIP3    H277445   4.958   4.134   1.400 -0.3193  0.1071 -0.3597
18652TIP3   OH277446   3.877   2.315   1.423  0.2459  0.4542 -0.4553
18652TIP3    H177447   3.849   2.332   1.513  0.4404 -3.6404  0.5852
18652TIP3    H277448   3.970   2.296   1.429 -0.1234 -1.8264 -1.1139
18653TIP3   OH277449   4.703   3.653   1.807 -0.7347  0.0545 -0.0953
18653TIP3    H177450   4.656   3.717   1.862 -0.7085 -0.0359  0.0331
18653TIP3    H277451   4.638   3.586   1.787 -0.5305 -0.3321  0.5027
18654TIP3   OH277452   0.418   2.944  14.139 -0.1896  0.4771 -0.4825
18654TIP3    H177453   0.400   3.015  14.201  1.4093 -0.0354  0.6237
18654TIP3    H277454   0.510   2.956  14.114  0.0904 -1.1454 -0.3401
18655TIP3   OH277455   3.723   4.251   1.577 -0.0900  0.2830  0.3424
18655TIP3    H177456   3.803   4.245   1.525 -0.5574  0.7327 -0.4341
18655TIP3    H277457   3.747   4.306   1.652  0.7701 -0.9165  0.9994
18656TIP3   OH277458   0.754   1.075  14.159  0.7438 -0.4477 -0.2756
18656TIP3    H177459   0.700   1.149  14.188  1.3177 -0.3176  0.4573
18656TIP3    H277460   0.730   1.064  14.066  1.8319  1.7066 -0.8874
18657TIP3   OH277461   1.663   2.877   4.944 -0.2265  0.1178 -0.1023
18657TIP3    H177462   1.568   2.881   4.938 -0.3974  1.7716  2.2261
18657TIP3    H277463   1.680   2.855   5.036  1.6609 -0.4914 -0.5522
18658TIP3   OH277464   3.307   2.156   4.534  0.1911  0.0872  0.2154
18658TIP3    H177465   3.266   2.069   4.531 -1.3202  0.7916 -0.7128
18658TIP3    H277466   3.376   2.147   4.600  0.2513 -1.8839 -0.0498
18659TIP3   OH277467   5.066   4.398   2.203 -0.4951  0.7030 -0.8586
18659TIP3    H177468   4.976   4.426   2.223 -0.4357  1.4209 -1.5391
18659TIP3    H277469   5.070   4.400   2.107  0.0544  0.0283 -0.8557
18660TIP3   OH277470   3.933   0.641  12.188  0.6830  0.1588 -0.1042
18660TIP3    H177471   3.978   0.558  12.207 -0.4409 -0.4724 -0.0859
18660TIP3    H277472   3.914   0.636  12.094  0.8968  0.5453 -0.1686
18661TIP3   OH277473   0.695   1.977  17.042 -1.0419  0.0209 -0.0132
18661TIP3    H177474   0.640   1.943  17.112 -0.2977 -1.0946  0.0586
18661TIP3    H277475   0.661   1.936  16.962 -1.6319  0.9739 -0.2646
18662TIP3   OH277476   4.370   5.299   5.348  0.2792  0.1004 -0.2261
18662TIP3    H177477   4.372   5.345   5.432 -0.6512  1.8900 -1.1240
18662TIP3    H277478   4.336   5.212   5.369 -1.7502  1.1137  1.0549
18663TIP3   OH277479   2.827   3.613   4.995  0.2889  0.4771  0.1166
18663TIP3    H177480   2.779   3.542   5.037  0.1100  1.1376  1.0562
18663TIP3    H277481   2.760   3.668   4.956  0.3940  0.4297 -0.1320
18664TIP3   OH277482   4.314   6.025  16.701  0.7411 -0.1767  0.5553
18664TIP3    H177483   4.302   6.085  16.775 -0.4433 -1.6312  1.5991
18664TIP3    H277484   4.288   5.939  16.735  3.3264 -1.5232 -0.5774
18665TIP3   OH277485   2.214   0.916   3.497 -0.1302  0.0449  0.5777
18665TIP3    H177486   2.209   1.011   3.490  0.8405  0.0761  0.1355
18665TIP3    H277487   2.175   0.884   3.415 -0.6071  0.0455  0.7978
18666TIP3   OH277488   3.524   3.418  15.892 -0.0934  0.1216 -0.8906
18666TIP3    H177489   3.543   3.412  15.986 -0.7560 -0.6857 -0.7988
18666TIP3    H277490   3.594   3.368  15.850 -1.1490 -1.6495 -0.6442
18667TIP3   OH277491   5.455   3.102  12.450  0.4321  0.3208 -0.4186
18667TIP3    H177492   5.437   3.037  12.382 -0.9953 -1.1859  1.2634
18667TIP3    H277493   5.546   3.127  12.438  0.4639 -0.5852 -2.2875
18668TIP3   OH277494   0.205   3.212  12.510  0.4139 -0.0764  0.2809
18668TIP3    H177495   0.178   3.151  12.441 -1.3560 -1.8806  2.3792
18668TIP3    H277496   0.175   3.298  12.480  1.7651 -0.3767 -2.1747
18669TIP3   OH277497   5.852   5.615   5.243  0.0654  0.1484  0.0390
18669TIP3    H177498   5.910   5.621   5.318 -0.1129  1.5006  0.0819
18669TIP3    H277499   5.819   5.524   5.245  1.1694 -0.2480  0.7373
18670TIP3   OH277500   3.350   0.340  10.539 -0.3274 -0.2689  0.0113
18670TIP3    H177501   3.355   0.404  10.610  1.8052  0.0989 -0.4171
18670TIP3    H277502   3.348   0.255  10.584  2.9810 -0.1672  0.6302
18671TIP3   OH277503   1.854   1.981  15.960 -0.8362  0.0349  0.1752
18671TIP3    H177504   1.776   2.007  15.911 -1.0468  2.0170  1.4428
18671TIP3    H277505   1.841   2.019  16.048  0.2395 -2.0506  1.3005
18672TIP3   OH277506   5.054   3.143  11.637 -0.0972 -0.7967  0.2965
18672TIP3    H177507   4.958   3.142  11.633 -0.1313 -1.2245  0.9139
18672TIP3    H277508   5.073   3.147  11.731  0.4905 -0.8167  0.1785
18673TIP3   OH277509   5.454   5.559  13.914 -0.1400 -0.0210 -0.3313
18673TIP3    H177510   5.543   5.589  13.898 -0.3655  0.8371 -0.0309
18673TIP3    H277511   5.448   5.475  13.868  0.2796  0.7393 -1.8351
18674TIP3   OH277512   1.395   6.608  12.430  0.7274 -0.4769 -0.0759
18674TIP3    H177513   1.453   6.625  12.356 -1.4605  0.8438 -1.6146
18674TIP3    H277514   1.334   6.542  12.398  0.0482 -0.2561  0.7173
18675TIP3   OH277515   6.756   5.690   5.293  0.2501  0.2467  0.1825
18675TIP3    H177516   6.715   5.703   5.208  0.0779  1.1001  0.3881
18675TIP3    H277517   6.684   5.699   5.356  0.5255  0.4704  0.4698
18676TIP3   OH277518   6.507   6.024   4.794  0.3901 -0.0946 -0.0829
18676TIP3    H177519   6.415   6.021   4.770  0.5030  0.4533 -0.6197
18676TIP3    H277520   6.508   6.008   4.888 -0.2295 -0.3572 -0.1152
18677TIP3   OH277521   2.417   4.032  11.106  0.0110  0.0114 -0.6092
18677TIP3    H177522   2.412   4.126  11.122 -0.0017 -0.4311  2.7960
18677TIP3    H277523   2.340   4.012  11.053 -0.5628  1.7482 -0.4984
18678TIP3   OH277524   0.945   5.882   0.538 -0.2520  0.3312  0.1900
18678TIP3    H177525   0.923   5.824   0.465  1.2899 -0.2388  0.1415
18678TIP3    H277526   0.882   5.859   0.607 -1.2184  0.3315 -0.6790
18679TIP3   OH277527   6.265   2.748   2.374  0.6429  0.5995 -0.4509
18679TIP3    H177528   6.244   2.780   2.462  0.3807 -0.7398 -0.0098
18679TIP3    H277529   6.357   2.770   2.361  0.7334  0.6273  0.2288
18680TIP3   OH277530   5.956   5.372   4.936 -0.1634  0.6491 -1.1621
18680TIP3    H177531   5.884   5.423   4.975  0.6525  1.0000 -0.0660
18680TIP3    H277532   5.975   5.304   5.000  1.3452  1.3600 -0.8200
18681TIP3   OH277533   0.983   3.168  12.542  0.2538  0.1660 -0.3109
18681TIP3    H177534   1.065   3.202  12.507  0.9106 -0.1280  0.9127
18681TIP3    H277535   0.985   3.075  12.519  0.9962 -0.1726  1.0203
18682TIP3   OH277536   1.865   3.134   5.826  0.4370 -0.3654  0.0538
18682TIP3    H177537   1.908   3.144   5.741  0.8686  0.2060  0.3325
18682TIP3    H277538   1.771   3.133   5.806  0.5393 -0.3675 -0.4364
18683TIP3   OH277539   0.892   6.299   2.437  0.0316 -0.3664  0.1198
18683TIP3    H177540   0.877   6.343   2.354  0.7495  1.1902  0.7771
18683TIP3    H277541   0.898   6.370   2.501  3.6704 -1.1330  0.8783
18684TIP3   OH277542   5.440   1.590  12.167 -0.6068 -0.3039  0.0088
18684TIP3    H177543   5.454   1.516  12.226 -0.5173 -0.1625  0.1664
18684TIP3    H277544   5.417   1.663  12.225  0.4718  0.0938 -0.0426
18685TIP3   OH277545   2.722   6.548   3.546 -0.1036 -0.2523  0.7652
18685TIP3    H177546   2.761   6.538   3.459  0.1890  0.1435  0.8493
18685TIP3    H277547   2.742   6.638   3.571 -1.8587  0.2751  0.4126
18686TIP3   OH277548   5.634   2.917  12.040  0.7146 -0.3046 -0.1297
18686TIP3    H177549   5.634   3.011  12.022 -0.2322 -0.2177  0.2684
18686TIP3    H277550   5.633   2.912  12.136 -1.6552 -0.6728 -0.1163
18687TIP3   OH277551   0.705   4.851   3.823 -0.4692 -0.3166  0.0295
18687TIP3    H177552   0.676   4.938   3.849 -0.6983 -0.6810  1.0669
18687TIP3    H277553   0.624   4.806   3.798 -0.3388 -0.1945 -0.6010
18688TIP3   OH277554   0.279   6.102  15.440  0.4026  0.8166  0.3254
18688TIP3    H177555   0.281   6.013  15.404  0.8838  1.2626 -0.7863
18688TIP3    H277556   0.196   6.107  15.486  0.4571 -0.2737  0.5679
18689TIP3   OH277557   3.304   4.669  12.278  0.4041  0.1868 -0.2519
18689TIP3    H177558   3.338   4.584  12.306  0.0018  0.4495  1.0840
18689TIP3    H277559   3.382   4.721  12.259  0.7085  0.0834  0.6698
18690TIP3   OH277560   1.910   1.240   0.160 -0.9984 -0.5113 -0.1422
18690TIP3    H177561   1.878   1.153   0.135  0.0195 -0.4312 -1.8479
18690TIP3    H277562   2.004   1.238   0.141 -0.6790  0.5145  1.1545
18691TIP3   OH277563   0.605   1.526  13.820  0.4518  0.6209 -0.2655
18691TIP3    H177564   0.648   1.442  13.802  3.4681  2.0396 -0.3434
18691TIP3    H277565   0.598   1.567  13.734 -1.8028  0.2057 -0.3505
18692TIP3   OH277566   4.668   3.802   5.727 -0.1043  0.1598 -0.3499
18692TIP3    H177567   4.745   3.762   5.767 -1.0374 -0.9404  0.4047
18692TIP3    H277568   4.703   3.851   5.652  1.8305  3.0495  2.2037
18693TIP3   OH277569   5.581   1.787  16.973  0.0018  0.6110 -0.2419
18693TIP3    H177570   5.575   1.738  16.891 -0.9306 -0.7681  0.5907
18693TIP3    H277571   5.647   1.741  17.024  1.7834  2.4375 -0.7905
18694TIP3   OH277572   5.860   2.018  10.633 -0.0146 -0.0397 -0.2740
18694TIP3    H177573   5.861   1.922  10.634 -0.2301 -0.1470  3.1558
18694TIP3    H277574   5.943   2.044  10.671 -0.3030  1.1145 -0.3830
18695TIP3   OH277575   3.858   1.421  15.815  0.0805 -0.2357  0.6183
18695TIP3    H177576   3.848   1.419  15.720  0.4026 -1.1245  0.5886
18695TIP3    H277577   3.905   1.340  15.835  2.0000  0.9788  1.2988
18696TIP3   OH277578   1.210   6.323  15.505  0.1434  0.3230  0.4961
18696TIP3    H177579   1.214   6.394  15.441  2.8038 -0.1846 -0.0179
18696TIP3    H277580   1.281   6.342  15.567 -1.2536 -0.1396  2.3170
18697TIP3   OH277581   1.917   3.899  16.864  0.1196 -0.1045 -0.2795
18697TIP3    H177582   1.941   3.988  16.837 -0.2358  0.0723 -0.0161
18697TIP3    H277583   1.954   3.843  16.796 -0.0134  0.2728 -0.6685
18698TIP3   OH277584   1.852   3.800  14.465  0.5208  0.1837  0.0856
18698TIP3    H177585   1.909   3.875  14.478  0.6520 -0.1744  1.8553
18698TIP3    H277586   1.908   3.724  14.484  0.3899 -0.3766 -1.6610
18699TIP3   OH277587   1.828   0.495   3.591 -0.1818 -0.5690  0.1314
18699TIP3    H177588   1.769   0.432   3.549  0.5151 -1.0292 -0.1767
18699TIP3    H277589   1.891   0.519   3.522  1.3963 -1.8488  1.0538
18700TIP3   OH277590   5.546   4.859  13.361 -0.3314  0.1477  0.4320
18700TIP3    H177591   5.521   4.916  13.289  1.9400  0.0831 -0.4929
18700TIP3    H277592   5.634   4.827  13.338  0.8653  0.7515  3.5926
18701TIP3   OH277593   1.550   1.717  11.837 -0.2758 -0.6025  0.3072
18701TIP3    H177594   1.455   1.724  11.840 -0.2870 -0.7074  0.2346
18701TIP3    H277595   1.580   1.804  11.812 -0.4361 -0.9094 -1.0509
18702TIP3   OH277596   3.883   6.788  14.835  0.0939 -0.7743  0.4798
18702TIP3    H177597   3.877   6.883  14.827 -0.5155 -0.5880  2.5131
18702TIP3    H277598   3.976   6.769  14.825  0.2587  0.0775  0.3237
18703TIP3   OH277599   5.830   5.407   6.876  0.1178  0.9678  0.8093
18703TIP3    H177600   5.810   5.322   6.836 -4.9370  1.3288  1.9497
18703TIP3    H277601   5.826   5.390   6.970 -0.0454  2.3461  1.0580
18704TIP3   OH277602   2.995   3.341   0.113 -0.2434 -0.4506  0.8944
18704TIP3    H177603   2.935   3.415   0.115  0.8185  0.4284  1.0816
18704TIP3    H277604   2.952   3.277   0.057 -0.1491  1.2445 -1.2603
18705TIP3   OH277605   4.266   2.554  11.749  0.3362 -0.3558  0.7676
18705TIP3    H177606   4.180   2.592  11.735  0.6872  0.8859  1.8113
18705TIP3    H277607   4.323   2.600  11.687  0.3985 -0.5872  0.6526
18706TIP3   OH277608   1.347   4.595   0.927 -0.1810  0.1499 -0.1735
18706TIP3    H177609   1.293   4.671   0.950  1.4252  1.9322 -2.0134
18706TIP3    H277610   1.434   4.630   0.911  0.3689 -1.9085 -2.2279
18707TIP3   OH277611   4.592   5.316   1.263 -0.0800 -0.0320 -0.3201
18707TIP3    H177612   4.627   5.230   1.241 -1.1652 -0.7730  0.7181
18707TIP3    H277613   4.579   5.314   1.357  1.0323  1.7455 -0.0841
18708TIP3   OH277614   3.788   2.414  15.247  0.0805 -0.0599  0.3051
18708TIP3    H177615   3.710   2.362  15.226  0.3020 -0.3855  0.2827
18708TIP3    H277616   3.804   2.466  15.168  0.4553 -0.7108 -0.0586
18709TIP3   OH277617   6.103   1.962   3.588 -0.2695  0.1442 -0.2010
18709TIP3    H177618   6.018   1.983   3.627  0.1149 -0.2283  0.8830
18709TIP3    H277619   6.129   2.042   3.542 -1.9780 -0.2680 -2.0559
18710TIP3   OH277620   4.402   1.047   2.552  0.1017 -0.4813  0.3911
18710TIP3    H177621   4.417   1.111   2.621 -1.5353  1.4993 -0.9865
18710TIP3    H277622   4.352   0.977   2.595 -0.2547  0.3510  1.3755
18711TIP3   OH277623   0.011   6.318  15.628  0.3927 -0.1618  0.1344
18711TIP3    H177624  -0.029   6.402  15.653  1.7769  0.8745 -0.8989
18711TIP3    H277625   0.105   6.337  15.627  0.6830 -1.5212 -0.8575
18712TIP3   OH277626   1.578   5.597   4.379  0.5676  0.0762 -0.0353
18712TIP3    H177627   1.517   5.669   4.364 -1.9715 -2.0403 -0.5167
18712TIP3    H277628   1.578   5.584   4.474  0.0849 -0.0637 -0.0553
18713TIP3   OH277629   1.212   6.644   1.663 -0.3355 -0.6227 -0.1570
18713TIP3    H177630   1.171   6.687   1.738 -0.0728  0.7041 -0.7425
18713TIP3    H277631   1.264   6.573   1.701 -0.8904 -0.5149  0.8354
18714TIP3   OH277632   2.323   3.448   1.673  0.6491 -0.3168 -0.9724
18714TIP3    H177633   2.376   3.420   1.747  3.2309 -1.3589 -3.0793
18714TIP3    H277634   2.242   3.398   1.680  0.6478 -0.0719  1.3138
18715TIP3   OH277635   4.328   5.743   5.826 -0.6392 -0.1450 -0.1997
18715TIP3    H177636   4.281   5.667   5.791 -1.0033  0.3858 -0.9001
18715TIP3    H277637   4.317   5.811   5.758 -0.4146  0.5596  0.4556
18716TIP3   OH277638   6.651   0.459  14.065  0.3717  0.5618  0.6340
18716TIP3    H177639   6.633   0.380  14.014  1.6679 -0.7158  2.0361
18716TIP3    H277640   6.588   0.457  14.136  1.6488 -0.3257  1.7883
18717TIP3   OH277641   0.803   3.322   4.168  0.1653  0.0231  0.6196
18717TIP3    H177642   0.719   3.350   4.206 -0.7135  0.8999 -1.7985
18717TIP3    H277643   0.780   3.248   4.112  1.0804  0.0275  0.2294
18718TIP3   OH277644   5.655   6.608  11.745 -0.3410 -0.4092  0.8058
18718TIP3    H177645   5.609   6.684  11.710 -0.9979 -0.6839  1.0707
18718TIP3    H277646   5.697   6.641  11.825  0.8498  0.1193  0.0044
18719TIP3   OH277647   4.817   1.922  16.770 -0.6881 -0.0716  0.4935
18719TIP3    H177648   4.865   1.989  16.721 -3.1427  2.1193  0.8733
18719TIP3    H277649   4.784   1.862  16.703  0.4741 -0.2033  0.0208
18720TIP3   OH277650   6.808   2.584   5.849 -0.1415  0.2185 -0.3261
18720TIP3    H177651   6.801   2.506   5.904  0.9442  1.4432  1.6831
18720TIP3    H277652   6.748   2.568   5.776 -0.7384 -2.0142  0.5797
18721TIP3   OH277653   6.016   2.478   6.520  0.2336 -0.1822  0.5353
18721TIP3    H177654   6.073   2.458   6.446  1.9329 -1.5399  2.1336
18721TIP3    H277655   5.950   2.409   6.519 -0.2754  0.2971 -0.1838
18722TIP3   OH277656   2.447   3.819  16.734  0.2335 -0.1615 -0.1925
18722TIP3    H177657   2.503   3.838  16.809  0.4539 -0.9533 -0.1443
18722TIP3    H277658   2.428   3.726  16.741  1.3300 -0.5542 -1.8125
18723TIP3   OH277659   4.365   1.300  11.699 -0.3577 -0.0948 -0.2219
18723TIP3    H177660   4.393   1.216  11.735  0.6351  0.4212  0.2831
18723TIP3    H277661   4.311   1.339  11.768 -1.4823 -0.6493 -0.7782
18724TIP3   OH277662   1.465   3.766   4.618 -0.3898  0.4250  0.1037
18724TIP3    H177663   1.414   3.757   4.699  1.4662  1.8867  1.5229
18724TIP3    H277664   1.400   3.788   4.552 -1.7595  1.0687  1.5794
18725TIP3   OH277665   4.930   1.577  16.246 -0.0575 -0.7817  0.2630
18725TIP3    H177666   4.883   1.496  16.227  0.5966 -1.6070  1.9582
18725TIP3    H277667   5.000   1.551  16.306  1.5311  0.6901 -0.8570
18726TIP3   OH277668   3.526   3.844  11.119  0.1361 -0.5209  0.0601
18726TIP3    H177669   3.464   3.898  11.070 -0.3835 -0.3682  0.8660
18726TIP3    H277670   3.609   3.854  11.073 -0.2564 -0.0744 -0.5560
18727TIP3   OH277671   1.359   6.580   1.907  0.8525 -0.0044 -0.3349
18727TIP3    H177672   1.338   6.583   2.000 -1.1309 -0.0869 -0.7345
18727TIP3    H277673   1.412   6.658   1.892  0.7786  0.2750  0.7841
18728TIP3   OH277674   3.086   5.534   2.316  0.1221 -0.2023 -0.2142
18728TIP3    H177675   3.002   5.574   2.342  0.4469  0.4197 -0.1004
18728TIP3    H277676   3.061   5.464   2.256 -0.4937 -0.1430 -0.0403
18729TIP3   OH277677   3.380   6.791  17.199 -0.2566 -0.6863 -0.7722
18729TIP3    H177678   3.446   6.798  17.268 -0.1451 -2.9059 -0.5728
18729TIP3    H277679   3.310   6.850  17.226 -0.2736 -1.6003  1.3541
18730TIP3   OH277680   1.158   4.410   2.931 -0.4498  0.2684  0.1856
18730TIP3    H177681   1.088   4.346   2.934 -0.1076 -0.1525 -0.5059
18730TIP3    H277682   1.123   4.487   2.976 -1.1791 -0.0962  0.2493
18731TIP3   OH277683   2.948   5.428  16.879 -0.1889 -0.4016  0.3990
18731TIP3    H177684   2.940   5.451  16.786 -1.6525  1.5240  0.9342
18731TIP3    H277685   2.904   5.344  16.887 -0.8856 -0.1364 -0.5039
18732TIP3   OH277686   2.443   4.454  11.765  0.3657 -0.2790 -0.4195
18732TIP3    H177687   2.439   4.500  11.681 -3.0555 -0.9170 -0.7773
18732TIP3    H277688   2.450   4.523  11.830 -2.4281  0.7642 -1.0707
18733TIP3   OH277689   1.709   6.570  15.523 -0.7263  0.5192  0.3606
18733TIP3    H177690   1.709   6.604  15.612 -0.3948  1.3269  0.0568
18733TIP3    H277691   1.679   6.643  15.469 -2.2498 -0.3689 -0.0515
18734TIP3   OH277692   4.684   4.076  16.795 -0.2091 -0.1948 -0.1920
18734TIP3    H177693   4.779   4.079  16.796 -0.2159  2.8631  0.9827
18734TIP3    H277694   4.660   4.094  16.704  0.3174  0.2417 -0.2423
18735TIP3   OH277695   5.897   4.368   6.233 -0.1815 -0.2177 -0.6074
18735TIP3    H177696   5.820   4.363   6.290 -0.5169  1.9096 -0.7739
18735TIP3    H277697   5.860   4.368   6.144  0.1567 -0.9452 -0.7541
18736TIP3   OH277698   3.246   4.763   3.649 -0.1823 -0.2203 -0.0034
18736TIP3    H177699   3.311   4.727   3.710  0.6551  2.0246  0.5279
18736TIP3    H277700   3.295   4.827   3.597 -1.9194  1.5419  0.4066
18737TIP3   OH277701   3.957   6.241  13.095 -0.3274  0.0916  0.0127
18737TIP3    H177702   3.982   6.315  13.151 -1.4739  0.3370  0.2316
18737TIP3    H277703   3.861   6.245  13.093 -0.3539 -0.8045 -0.7767
18738TIP3   OH277704   1.474   4.623  11.481  0.5142 -0.3322  0.2570
18738TIP3    H177705   1.438   4.709  11.499  0.5223  0.0182 -1.2986
18738TIP3    H277706   1.528   4.635  11.403  1.6749 -1.4549  0.8390
18739TIP3   OH277707   3.086   4.745  15.016  0.0744  0.6223  0.0052
18739TIP3    H177708   3.090   4.650  15.022  0.0366  0.3595 -2.7856
18739TIP3    H277709   2.993   4.765  15.009  0.1643  0.6699 -1.2339
18740TIP3   OH277710   6.585   1.000   1.015  0.6730 -0.4459 -0.4795
18740TIP3    H177711   6.615   1.024   0.927  0.6917 -2.1164 -0.9653
18740TIP3    H277712   6.528   0.924   1.000 -1.7779  1.0478  0.6653
18741TIP3   OH277713   0.227   3.094   0.322 -0.6604 -0.1398 -0.1666
18741TIP3    H177714   0.213   3.115   0.230 -1.2335  1.5453  0.2675
18741TIP3    H277715   0.207   3.175   0.368 -0.1919 -0.8970  1.4343
18742TIP3   OH277716   2.535   6.246  11.992 -0.8010  0.4495  0.5435
18742TIP3    H177717   2.617   6.294  11.980 -0.8733  0.5508  0.4569
18742TIP3    H277718   2.556   6.156  11.966 -0.9293  0.6428 -0.2554
18743TIP3   OH277719   5.207   5.141  13.460 -0.2344  0.9271 -0.4018
18743TIP3    H177720   5.227   5.052  13.490  0.5730  1.3931  0.5064
18743TIP3    H277721   5.276   5.195  13.498 -1.7470  2.2299  0.6238
18744TIP3   OH277722   1.715   3.221  10.739 -0.5414 -0.3104 -0.2709
18744TIP3    H177723   1.632   3.260  10.711  0.5387  0.1778 -3.0617
18744TIP3    H277724   1.755   3.288  10.795 -0.8487  0.5691 -1.0848
18745TIP3   OH277725   5.643   3.400  16.370  0.2932 -0.4565  0.1629
18745TIP3    H177726   5.604   3.485  16.347 -2.5085 -1.4675  0.7926
18745TIP3    H277727   5.681   3.369  16.288  0.9382  1.1361 -0.1955
18746TIP3   OH277728   3.979   5.061   1.270 -0.0637 -0.8811 -0.7276
18746TIP3    H177729   4.008   4.981   1.315 -2.2827 -0.7561  1.1284
18746TIP3    H277730   3.892   5.039   1.237 -0.3048  0.4639 -1.0218
18747TIP3   OH277731   2.945   6.710  12.414  0.1908 -0.2928  0.4033
18747TIP3    H177732   2.916   6.792  12.454 -1.4132  0.2466 -1.6751
18747TIP3    H277733   3.039   6.721  12.400 -0.3375  2.2047 -1.8951
18748TIP3   OH277734   3.978   4.202   0.482 -0.0133  0.3779  0.0326
18748TIP3    H177735   3.994   4.291   0.511 -0.2971  0.1022  1.0588
18748TIP3    H277736   4.042   4.187   0.412  0.7179  1.0257  0.5607
18749TIP3   OH277737   3.722   4.508   0.317  0.1585  0.0262  0.0685
18749TIP3    H177738   3.675   4.438   0.271  0.8017 -0.6784  0.4726
18749TIP3    H277739   3.810   4.474   0.331  0.3043  0.6708  0.8242
18750TIP3   OH277740   5.257   6.001   6.168 -0.1130  0.0010  0.1574
18750TIP3    H177741   5.241   5.978   6.259  1.7305 -1.1442  0.2534
18750TIP3    H277742   5.181   6.053   6.142 -0.9912 -0.2147  2.1321
18751TIP3   OH277743   5.674   2.241  16.323 -0.3194 -0.3095  0.0794
18751TIP3    H177744   5.688   2.335  16.315 -0.0339 -0.4460 -1.2362
18751TIP3    H277745   5.595   2.233  16.377 -0.5715  0.6871 -0.1283
18752TIP3   OH277746   3.213   0.959   0.971 -0.1783  0.7559 -0.0029
18752TIP3    H177747   3.259   0.930   1.049 -1.4018  0.5879  0.6891
18752TIP3    H277748   3.276   1.014   0.925  0.5084  1.0172  1.2023
18753TIP3   OH277749   0.586   6.159  13.306 -0.7979 -0.3017  0.1825
18753TIP3    H177750   0.601   6.132  13.396 -0.6638 -0.6342  0.0613
18753TIP3    H277751   0.539   6.242  13.314  0.3632  0.3404  0.5521
18754TIP3   OH277752   1.512   1.189  15.809  0.1717  0.4100 -0.3366
18754TIP3    H177753   1.483   1.274  15.842  0.4659  0.1387  0.6834
18754TIP3    H277754   1.488   1.128  15.879  2.5235  0.0707  0.2594
18755TIP3   OH277755   6.254   4.761  15.318  0.5201 -0.1455  0.1102
18755TIP3    H177756   6.286   4.848  15.343 -0.9415  0.2451  0.7695
18755TIP3    H277757   6.264   4.758  15.223  2.0411  0.1172  0.2385
18756TIP3   OH277758   0.771   2.980  12.673  0.3122 -0.6135 -0.5790
18756TIP3    H177759   0.826   3.049  12.635  0.6376  0.1480  1.1462
18756TIP3    H277760   0.827   2.939  12.739 -1.0753  0.0326  1.0812
18757TIP3   OH277761   1.037   3.459   0.017 -0.3354 -0.4911 -0.3268
18757TIP3    H177762   1.080   3.379  -0.013 -1.1689 -0.0088 -3.1092
18757TIP3    H277763   1.106   3.525   0.021 -0.2532 -0.4686 -1.7433
18758TIP3   OH277764   4.916   3.036   1.343  0.2396 -0.3348  0.4348
18758TIP3    H177765   4.979   2.965   1.329  0.5637  0.0202  0.0616
18758TIP3    H277766   4.966   3.104   1.387 -0.1018 -0.3799  0.9039
18759TIP3   OH277767   0.193   4.799   3.868 -0.5167 -0.1602 -0.3086
18759TIP3    H177768   0.150   4.731   3.815 -0.1539 -1.0167  0.4566
18759TIP3    H277769   0.157   4.881   3.836 -0.5774 -0.6729 -1.6399
18760TIP3   OH277770   1.202   6.374   2.847 -0.7327 -0.3725 -0.3252
18760TIP3    H177771   1.176   6.458   2.810 -1.0055 -0.7219 -0.9409
18760TIP3    H277772   1.218   6.392   2.940 -1.8110  0.1397 -0.2287
18761TIP3   OH277773   4.216   1.213  12.698  0.0347  0.0990 -0.1222
18761TIP3    H177774   4.216   1.178  12.609  1.1755  0.0093 -0.1023
18761TIP3    H277775   4.251   1.301  12.689 -0.0441  0.1653  0.2175
18762TIP3   OH277776   4.953   5.553   2.172 -0.6241  0.0779 -0.0319
18762TIP3    H177777   4.996   5.630   2.208  1.2036  0.0226 -1.8801
18762TIP3    H277778   4.874   5.543   2.224  0.2984  1.7609  1.8297
18763TIP3   OH277779   5.189   6.134   3.375 -0.1150  0.4429  0.4716
18763TIP3    H177780   5.180   6.152   3.281  0.6595  1.3585  0.5546
18763TIP3    H277781   5.263   6.188   3.403 -0.7589  0.7194  1.7524
18764TIP3   OH277782   0.764   2.577  10.801 -0.0727 -0.1437  0.9779
18764TIP3    H177783   0.800   2.501  10.847  0.4920  0.6167  1.8420
18764TIP3    H277784   0.749   2.547  10.712  0.5990 -1.1258  1.1854
18765TIP3   OH277785   5.650   5.530  14.257  0.1495 -0.5029 -0.4840
18765TIP3    H177786   5.621   5.443  14.230  0.6564 -0.9669  0.4385
18765TIP3    H277787   5.614   5.541  14.345  1.8509 -0.6680  0.2712
18766TIP3   OH277788   6.509   2.111   1.813 -0.7585  0.2691  0.1931
18766TIP3    H177789   6.500   2.184   1.875 -1.2303 -0.2227  0.7170
18766TIP3    H277790   6.420   2.090   1.788 -0.5750  0.3756 -0.5613
18767TIP3   OH277791   0.239   3.488  11.256 -0.0429 -0.5182  0.0084
18767TIP3    H177792   0.188   3.569  11.251 -0.2712 -0.5462  1.3190
18767TIP3    H277793   0.215   3.439  11.177 -1.8245 -0.3868  0.4207
18768TIP3   OH277794   6.785   3.143  15.848 -0.0976  0.2957  0.1177
18768TIP3    H177795   6.810   3.205  15.916 -0.3997  0.9718 -0.3724
18768TIP3    H277796   6.867   3.126  15.800 -0.1669  0.9640 -0.2539
18769TIP3   OH277797   0.886   3.165  15.570  0.7149 -0.1329  0.4331
18769TIP3    H177798   0.950   3.101  15.539  0.1890  0.2134 -1.4924
18769TIP3    H277799   0.809   3.114  15.593  0.5713 -0.2684 -0.3414
18770TIP3   OH277800   4.022   3.038   0.297  0.5946  0.2567 -0.2744
18770TIP3    H177801   4.101   3.034   0.243  0.2464  0.5079 -0.8180
18770TIP3    H277802   4.052   3.074   0.381  1.4944 -1.9465  0.4088
18771TIP3   OH277803   5.215   6.423  15.111  0.2181  0.4365 -0.0074
18771TIP3    H177804   5.218   6.395  15.019  2.1032 -0.2731  0.2369
18771TIP3    H277805   5.124   6.408  15.137 -0.0805 -0.4262 -1.4349
18772TIP3   OH277806   4.157   5.875   4.248  0.2795  0.4874 -0.1955
18772TIP3    H177807   4.154   5.792   4.296  1.2968 -0.6777 -2.0208
18772TIP3    H277808   4.241   5.873   4.203 -0.1616  2.0172 -1.1548
18773TIP3   OH277809   3.399   4.260  17.082  0.0041  0.1546  0.2246
18773TIP3    H177810   3.387   4.250  16.988  2.1907  1.8420 -0.3205
18773TIP3    H277811   3.418   4.172  17.113  0.5783 -0.2360 -1.1512
18774TIP3   OH277812   6.348   4.935  16.664 -0.4958  0.1652  0.3120
18774TIP3    H177813   6.432   4.973  16.640 -0.7961  1.6801  1.5246
18774TIP3    H277814   6.325   4.879  16.590  1.2982  0.1525 -0.2801
18775TIP3   OH277815   2.221   0.039  12.550 -0.5321  0.3709  0.3496
18775TIP3    H177816   2.233   0.067  12.641  0.7985  1.5535 -0.1449
18775TIP3    H277817   2.187   0.116  12.506  3.3367  1.4986 -1.0779
18776TIP3   OH277818   5.742   6.015   3.057 -0.9461 -0.0533 -0.4654
18776TIP3    H177819   5.685   6.036   2.983  1.3894  0.8204 -2.1342
18776TIP3    H277820   5.784   5.932   3.032  1.1169  1.0769 -1.0344
18777TIP3   OH277821   3.972   1.627   1.136  0.2312  0.1539 -0.2703
18777TIP3    H177822   3.904   1.581   1.184 -0.1374  1.0975  0.1320
18777TIP3    H277823   4.035   1.655   1.203 -0.1440  1.2360 -0.3503
18778TIP3   OH277824   4.614   4.114   4.359 -0.3178  0.2404  1.2214
18778TIP3    H177825   4.558   4.162   4.297  0.9862  0.5482  0.2252
18778TIP3    H277826   4.703   4.128   4.326  0.1595 -2.5955  1.0685
18779TIP3   OH277827   2.638   4.375  14.638 -0.6845  0.5395  0.2567
18779TIP3    H177828   2.642   4.287  14.601 -2.3196  0.3153  0.5549
18779TIP3    H277829   2.677   4.366  14.725 -0.7500  0.1346  0.2452
18780TIP3   OH277830   3.979   1.416   5.287 -0.3356  0.1177 -0.0161
18780TIP3    H177831   3.914   1.346   5.283 -0.0905 -0.0720 -2.1253
18780TIP3    H277832   3.930   1.493   5.315 -1.4703 -0.0781 -1.3115
18781TIP3   OH277833   1.664   0.607   2.963 -0.2052  0.1913  0.7506
18781TIP3    H177834   1.698   0.610   2.874 -0.2792 -1.4754  0.6318
18781TIP3    H277835   1.743   0.600   3.018 -0.1949  0.4921  0.7786
18782TIP3   OH277836   3.853   3.951   4.267 -0.1147 -0.5022 -0.1906
18782TIP3    H177837   3.778   3.975   4.212  1.0928  1.5121 -1.0560
18782TIP3    H277838   3.839   3.858   4.287 -1.9513 -0.6186 -1.7197
18783TIP3   OH277839   0.260   2.101  11.933 -0.5294 -0.3873  0.8711
18783TIP3    H177840   0.269   2.058  11.848 -0.5320 -0.1549  0.7526
18783TIP3    H277841   0.312   2.182  11.925  0.4612 -0.9394  1.4878
18784TIP3   OH277842   0.843   0.305  12.697  0.4961  0.5415 -0.2229
18784TIP3    H177843   0.756   0.300  12.656  0.5211 -2.7403 -0.1413
18784TIP3    H277844   0.826   0.320  12.790  0.1164  1.5220 -0.4452
18785TIP3   OH277845   5.177   5.485  12.730 -0.3621  0.0388  0.0533
18785TIP3    H177846   5.182   5.390  12.720 -2.3205 -0.3656  2.1176
18785TIP3    H277847   5.165   5.498  12.824 -2.6490  2.1511 -0.4269
18786TIP3   OH277848   1.556   5.159  14.191 -0.3936  0.2045  0.5413
18786TIP3    H177849   1.596   5.239  14.157  1.4579 -0.9039 -0.0655
18786TIP3    H277850   1.463   5.180  14.199  0.2072  2.7912  1.6250
18787TIP3   OH277851   1.083   4.773  12.524  0.3050 -0.0716 -0.4140
18787TIP3    H177852   0.992   4.770  12.554  0.1828  1.2076 -0.5782
18787TIP3    H277853   1.099   4.687  12.486  0.0409 -1.2756  2.0259
18788TIP3   OH277854   3.733   4.103   6.602 -0.2495 -0.5098 -0.2508
18788TIP3    H177855   3.704   4.047   6.530 -0.2233  0.3619 -0.9672
18788TIP3    H277856   3.652   4.139   6.639 -0.3147 -1.5456  0.6808
18789TIP3   OH277857   1.319   5.293   2.061  0.6287  0.2880 -0.1537
18789TIP3    H177858   1.313   5.221   2.124  0.9096 -0.3355 -0.8274
18789TIP3    H277859   1.230   5.302   2.027  0.7876 -0.3968 -0.7738
18790TIP3   OH277860   1.189   6.023   5.917 -0.0684 -0.8733  0.1106
18790TIP3    H177861   1.106   6.015   5.871 -0.6453  1.5636  0.6175
18790TIP3    H277862   1.248   6.064   5.854  0.2263 -0.9171  0.3540
18791TIP3   OH277863   4.693   5.299   6.133 -0.1422  0.1407  0.1130
18791TIP3    H177864   4.757   5.321   6.201  0.4163  3.1485 -1.2263
18791TIP3    H277865   4.608   5.313   6.175  0.0608 -1.3230  1.1138
18792TIP3   OH277866   0.028   0.031  15.241 -0.3572  0.0636 -0.1187
18792TIP3    H177867  -0.049   0.052  15.188 -0.6927  0.6497  0.5971
18792TIP3    H277868   0.098   0.019  15.177 -0.5502  1.6491 -0.6654
18793TIP3   OH277869   4.363   5.078  14.281  0.4038 -0.3905  0.3228
18793TIP3    H177870   4.403   5.090  14.367 -1.7898 -0.6837  1.4532
18793TIP3    H277871   4.381   5.159  14.234  1.5204 -0.1819  1.0711
18794TIP3   OH277872   0.360   6.421  12.770 -0.3268 -0.1610 -0.2046
18794TIP3    H177873   0.383   6.500  12.820 -1.9561 -0.8713  1.8413
18794TIP3    H277874   0.269   6.436  12.744 -0.3560 -0.9874 -0.5770
18795TIP3   OH277875   2.107   0.304   3.723 -0.6472 -0.0907 -0.2063
18795TIP3    H177876   2.014   0.326   3.727 -1.1064 -1.8956 -0.4765
18795TIP3    H277877   2.130   0.311   3.630 -0.8487 -0.9483 -0.3229
18796TIP3   OH277878   2.387   5.510  16.658 -0.2111 -0.5804  0.0389
18796TIP3    H177879   2.347   5.454  16.724  1.0044 -2.0700 -0.4364
18796TIP3    H277880   2.478   5.481  16.653 -0.4345 -1.1050 -2.8677
18797TIP3   OH277881   2.172   0.939   0.882  0.6766 -0.3934 -1.0347
18797TIP3    H177882   2.087   0.954   0.840  0.1409 -0.3807  0.0238
18797TIP3    H277883   2.205   0.859   0.841 -0.6212 -1.3456 -0.2962
18798TIP3   OH277884   2.599   6.092  15.341 -0.4086 -0.3654 -0.2060
18798TIP3    H177885   2.577   6.115  15.431 -1.2854  0.6599 -0.6614
18798TIP3    H277886   2.694   6.084  15.341 -0.5057 -2.5607  1.2838
18799TIP3   OH277887   5.418   5.457  10.821  0.1344  0.4838  0.2316
18799TIP3    H177888   5.339   5.434  10.868  0.1550  1.6115  0.8585
18799TIP3    H277889   5.408   5.551  10.801  1.7423  0.9214  1.2615
18800TIP3   OH277890   1.664   1.372   5.926 -0.1381 -0.1127  0.7864
18800TIP3    H177891   1.617   1.289   5.917  1.7943 -1.6871  3.5996
18800TIP3    H277892   1.597   1.434   5.956 -1.0620 -1.4929  1.7099
18801TIP3   OH277893   4.016   3.310   4.848  0.4671 -0.1275  0.3079
18801TIP3    H177894   3.922   3.313   4.829  0.4234  1.0075  0.6204
18801TIP3    H277895   4.045   3.225   4.814 -0.2327  0.4453 -1.8422
18802TIP3   OH277896   3.817   0.897  16.301  0.1494 -0.1547 -0.0558
18802TIP3    H177897   3.828   0.809  16.337  0.2910 -0.7130 -1.4042
18802TIP3    H277898   3.738   0.890  16.247 -0.3835  0.8128  0.5768
18803TIP3   OH277899   2.193   0.590  15.392 -0.1658  0.2881  0.0965
18803TIP3    H177900   2.219   0.651  15.323 -0.6729  1.1733  0.6709
18803TIP3    H277901   2.109   0.623  15.424  0.8330  0.9045  2.2981
18804TIP3   OH277902   5.238   3.971  11.070  0.4533  0.2992 -0.0874
18804TIP3    H177903   5.154   4.017  11.081  0.2586 -0.4606  2.1462
18804TIP3    H277904   5.213   3.879  11.064  1.0301  0.2205 -1.5238
18805TIP3   OH277905   6.668   3.108  14.501  0.2067  0.1250  0.5707
18805TIP3    H177906   6.673   3.034  14.562  0.3307  0.9048  1.5386
18805TIP3    H277907   6.587   3.153  14.524 -0.2776 -0.1415 -0.5441
18806TIP3   OH277908   0.350   0.995  11.206 -0.0811 -0.2742 -0.0823
18806TIP3    H177909   0.263   1.032  11.192 -0.5378 -1.8568 -1.8165
18806TIP3    H277910   0.356   0.923  11.143  2.9754  0.5580 -0.8843
18807TIP3   OH277911   4.811   2.262   5.829  0.0969 -0.4926  0.2309
18807TIP3    H177912   4.900   2.291   5.813  0.6143 -1.8465  0.4897
18807TIP3    H277913   4.787   2.301   5.913  1.3232 -1.9611  1.3163
18808TIP3   OH277914   6.192   2.916   0.373  0.5140 -0.5777 -0.2002
18808TIP3    H177915   6.226   2.827   0.385 -1.4283 -1.2923  0.2723
18808TIP3    H277916   6.245   2.970   0.433  1.3824 -1.4904 -0.1306
18809TIP3   OH277917   6.443   1.071   0.268 -0.5746  0.5359 -0.8521
18809TIP3    H177918   6.358   1.049   0.307 -1.7510  0.6482 -3.1406
18809TIP3    H277919   6.446   1.166   0.268 -0.7638  0.5477 -1.3324
18810TIP3   OH277920   1.260   1.466   2.065 -0.3886 -0.1003 -0.2294
18810TIP3    H177921   1.245   1.457   1.971 -2.2246  0.5077 -0.0434
18810TIP3    H277922   1.289   1.556   2.077 -2.1658  0.5009 -0.0614
18811TIP3   OH277923   5.785   1.486  14.487 -0.4925  0.2252  0.0929
18811TIP3    H177924   5.792   1.496  14.582 -0.2728  0.4524  0.0525
18811TIP3    H277925   5.875   1.470  14.458 -0.6870 -0.8284  0.0350
18812TIP3   OH277926   6.401   5.608  13.674 -0.0173  0.1370  0.7981
18812TIP3    H177927   6.454   5.622  13.752 -0.9411 -1.2054  1.7027
18812TIP3    H277928   6.463   5.579  13.607  0.6248  0.2094  1.3557
18813TIP3   OH277929   2.727   5.451  15.291 -0.2901  0.5065 -0.3469
18813TIP3    H177930   2.635   5.474  15.285  0.0223  1.9178  0.0898
18813TIP3    H277931   2.728   5.368  15.340 -1.2472  1.0534  0.6189
18814TIP3   OH277932   3.043   0.337   0.370  0.0243 -0.0524  0.3114
18814TIP3    H177933   3.066   0.395   0.298  0.4143 -0.1479  0.3606
18814TIP3    H277934   2.949   0.352   0.383  0.3126  1.3114  0.9749
18815TIP3   OH277935   4.032   2.056  12.138 -0.0611  0.2607 -0.2551
18815TIP3    H177936   4.103   2.077  12.198  0.8363  1.4557 -1.6380
18815TIP3    H277937   4.064   1.981  12.087 -0.8344 -0.7761  0.7300
18816TIP3   OH277938   5.393   4.641   4.356  0.0974 -0.4107  0.1224
18816TIP3    H177939   5.327   4.598   4.411 -0.8564  0.2892 -0.4519
18816TIP3    H277940   5.474   4.635   4.408 -0.2873 -1.7236  0.6157
18817TIP3   OH277941   4.256   3.320   3.638 -0.3904 -0.4963  0.0402
18817TIP3    H177942   4.191   3.368   3.688 -0.6721 -0.7209 -0.1078
18817TIP3    H277943   4.283   3.248   3.695  0.4262  0.1354  0.4747
18818TIP3   OH277944   5.840   5.920  17.106  0.4253 -0.0122  0.1301
18818TIP3    H177945   5.859   6.013  17.091  1.8899 -0.2093  0.5909
18818TIP3    H277946   5.921   5.885  17.144  0.1321 -1.6280 -0.6556
18819TIP3   OH277947   0.826   6.485  13.320  0.6022 -0.2536 -0.5131
18819TIP3    H177948   0.794   6.418  13.259  1.2122 -0.6516 -0.4012
18819TIP3    H277949   0.847   6.560  13.263 -0.5809  0.0562 -0.5810
18820TIP3   OH277950   6.396   5.059  17.128  0.5024 -0.3281  0.5127
18820TIP3    H177951   6.383   5.003  17.051  1.7049 -0.8893  0.6983
18820TIP3    H277952   6.367   5.006  17.202 -0.8340  0.2815  0.4609
18821TIP3   OH277953   0.626   2.439  15.274  0.5194 -0.5611  0.3496
18821TIP3    H177954   0.532   2.422  15.283  0.3717 -0.0877 -0.2511
18821TIP3    H277955   0.659   2.440  15.364 -0.3196  0.7366  0.6791
18822TIP3   OH277956   2.552   0.456   4.614  0.4983  0.2990  0.4608
18822TIP3    H177957   2.603   0.375   4.624  0.7218  0.2563 -0.8109
18822TIP3    H277958   2.497   0.459   4.692  0.1334 -1.3518  0.3230
18823TIP3   OH277959   5.234   2.609   4.300 -0.6980  0.8551  0.4199
18823TIP3    H177960   5.277   2.569   4.375 -0.5959  1.2837  0.5914
18823TIP3    H277961   5.305   2.626   4.237 -0.6781  1.1563  0.5222
18824TIP3   OH277962   2.619   3.219   5.429  0.0217 -0.4755  0.5460
18824TIP3    H177963   2.708   3.183   5.438  0.2047 -0.2725 -0.3116
18824TIP3    H277964   2.568   3.147   5.392  0.0370 -0.3273  0.2302
18825TIP3   OH277965   5.622   4.303  12.352 -0.0120  0.3715  0.3667
18825TIP3    H177966   5.685   4.257  12.296  0.6032  0.8643  0.6388
18825TIP3    H277967   5.671   4.378  12.385 -0.7908  0.8348  0.4786
18826TIP3   OH277968   1.148   0.499   1.417  0.1269 -0.0922 -0.1835
18826TIP3    H177969   1.163   0.423   1.361 -0.4027 -1.1137  0.9866
18826TIP3    H277970   1.164   0.575   1.361 -0.7795 -1.0423 -1.8081
18827TIP3   OH277971   2.183   5.086  12.621  0.2718  0.3939  0.8740
18827TIP3    H177972   2.134   5.083  12.539  1.2122 -1.2697  0.3308
18827TIP3    H277973   2.180   5.178  12.647 -0.0894  0.9623 -1.0016
18828TIP3   OH277974   3.009   1.007  14.144  0.6934 -0.3032 -0.5198
18828TIP3    H177975   3.036   0.957  14.221  0.0430 -0.5727 -0.4607
18828TIP3    H277976   2.970   0.941  14.086 -1.2206  0.2938  0.0321
18829TIP3   OH277977   5.113   6.039   3.827  0.2458  0.1221  0.3759
18829TIP3    H177978   5.040   5.982   3.801  0.0379  0.2514  0.6683
18829TIP3    H277979   5.140   6.005   3.912  0.9750 -0.3504 -0.0306
18830TIP3   OH277980   6.385   2.241  16.491 -0.5960 -0.3071 -0.0199
18830TIP3    H177981   6.343   2.304  16.433 -1.2203 -0.3322  0.4004
18830TIP3    H277982   6.335   2.160  16.479 -1.4210 -0.0217  1.3573
18831TIP3   OH277983   4.234   2.535   1.879 -0.2060 -0.3169  0.4506
18831TIP3    H177984   4.140   2.517   1.873 -0.0790 -0.5222 -2.8268
18831TIP3    H277985   4.243   2.624   1.846  0.8616 -0.9238 -1.0051
18832TIP3   OH277986   2.280   5.444   5.277 -0.2063  1.1493  0.3821
18832TIP3    H177987   2.233   5.489   5.207  0.3538  0.7483 -0.2651
18832TIP3    H277988   2.252   5.489   5.357 -1.2360  1.2956 -0.0395
18833TIP3   OH277989   2.802   1.855   1.662 -0.5368 -0.0877  0.0050
18833TIP3    H177990   2.809   1.766   1.697  0.5288  0.1710  0.4964
18833TIP3    H277991   2.818   1.845   1.568 -1.2920 -0.5174 -0.0844
18834TIP3   OH277992   3.328   3.992  11.609 -0.3018  0.4597  0.3235
18834TIP3    H177993   3.351   3.937  11.534 -0.7777 -0.7526  1.0379
18834TIP3    H277994   3.411   4.009  11.653 -0.3777 -1.7408  1.4421
18835TIP3   OH277995   2.288   2.255   4.995 -0.2356 -0.3913 -0.5337
18835TIP3    H177996   2.352   2.290   5.058 -1.1087 -2.3805  1.6065
18835TIP3    H277997   2.341   2.216   4.926  0.8400 -0.5834  0.3787
18836TIP3   OH277998   4.321   5.591  15.724  0.0837 -0.4607  0.0999
18836TIP3    H177999   4.302   5.511  15.674  1.8766 -1.3061  0.6751
18836TIP3    H278000   4.416   5.602  15.716 -0.0171  1.1716  0.7252
18837TIP3   OH278001   3.365   6.197  13.794 -0.3074 -0.0834 -0.5966
18837TIP3    H178002   3.312   6.144  13.853 -0.1192  1.8900  1.4936
18837TIP3    H278003   3.304   6.229  13.727 -1.1394 -0.1218  0.1334
18838TIP3   OH278004   5.456   3.380   4.108 -0.1442  0.2655 -0.5007
18838TIP3    H178005   5.372   3.409   4.073 -0.3755 -2.2665 -2.3474
18838TIP3    H278006   5.491   3.456   4.154 -2.4266  2.0704 -1.5675
18839TIP3   OH278007   6.593   1.623   1.525  0.4605  0.4802  0.1305
18839TIP3    H178008   6.577   1.585   1.611 -0.7434  0.9867  0.1471
18839TIP3    H278009   6.641   1.703   1.542  1.3159 -0.0427  0.2313
18840TIP3   OH278010   3.967   2.743   4.239  0.2112  0.1758 -0.4383
18840TIP3    H178011   3.883   2.788   4.240  0.2709  0.2855  0.3899
18840TIP3    H278012   3.982   2.722   4.147 -1.8153 -1.9450 -0.3621
18841TIP3   OH278013   0.166   2.363   3.234  0.4553 -0.3579 -0.3512
18841TIP3    H178014   0.130   2.446   3.205  1.3627 -0.1241 -0.8250
18841TIP3    H278015   0.253   2.384   3.268  0.9675 -1.1947 -1.0915
18842TIP3   OH278016   1.771   4.590   5.485  0.8045  0.2378 -0.2239
18842TIP3    H178017   1.849   4.534   5.487 -0.0104 -1.0158 -1.6282
18842TIP3    H278018   1.698   4.530   5.492 -0.0810  1.2401 -0.6157
18843TIP3   OH278019   5.882   3.390  13.516  0.6397  0.0810  0.1613
18843TIP3    H178020   5.932   3.316  13.481 -1.5871 -1.5611  0.2367
18843TIP3    H278021   5.805   3.396  13.459 -0.3612  0.8648  1.5227
18844TIP3   OH278022   6.634   5.786   3.966 -0.4775  0.0003  0.5946
18844TIP3    H178023   6.705   5.743   3.919  1.3289  1.1763  2.0870
18844TIP3    H278024   6.578   5.715   3.997 -0.7556 -0.8839 -1.7547
18845TIP3   OH278025   2.570   1.106  14.418 -0.4164  0.1113  0.0203
18845TIP3    H178026   2.652   1.090  14.372 -0.3052 -0.8721  0.5334
18845TIP3    H278027   2.592   1.169  14.486  0.0364 -0.5582  0.4975
18846TIP3   OH278028   1.315   1.685  15.617 -0.0660  0.2691  0.1088
18846TIP3    H178029   1.388   1.642  15.662 -0.7392 -0.3873  0.5943
18846TIP3    H278030   1.268   1.613  15.574  0.1566  0.8055 -1.0728
18847TIP3   OH278031   4.746   3.783  15.821  0.2689 -0.0540 -0.4824
18847TIP3    H178032   4.839   3.766  15.804 -0.0945 -2.4880 -0.3669
18847TIP3    H278033   4.722   3.849  15.756  2.0852  0.7021 -0.4462
18848TIP3   OH278034   5.911   5.584  12.581 -0.1023  0.3906  0.1402
18848TIP3    H178035   6.000   5.617  12.597  0.2752 -1.0197  1.1414
18848TIP3    H278036   5.866   5.597  12.665 -0.8682  1.1458 -0.3800
18849TIP3   OH278037   5.657   3.300   1.550 -0.0914 -0.0496  0.0373
18849TIP3    H178038   5.640   3.223   1.496 -0.8344  1.4045 -1.9575
18849TIP3    H278039   5.611   3.283   1.632  0.7400 -2.1897  0.1087
18850TIP3   OH278040   3.099   3.625  14.213 -0.0403  0.0078 -0.1198
18850TIP3    H178041   3.142   3.711  14.209  3.1819 -1.4085  0.9720
18850TIP3    H278042   3.050   3.627  14.295  1.3482  0.2879  0.7325
18851TIP3   OH278043   2.316   0.688   1.600 -0.2374 -0.7207  0.0899
18851TIP3    H178044   2.244   0.693   1.537  0.3009  0.3886 -0.4790
18851TIP3    H278045   2.344   0.779   1.610  1.9738 -1.2602 -0.7493
18852TIP3   OH278046   5.817   3.286  13.993 -0.1909  0.1004  0.3463
18852TIP3    H178047   5.889   3.348  13.994  1.1321 -1.3495  1.1196
18852TIP3    H278048   5.745   3.331  13.949  0.5262  2.3281  1.3289
18853TIP3   OH278049   3.803   3.696  11.556 -0.2087 -0.1469 -0.6133
18853TIP3    H178050   3.796   3.657  11.643 -1.2647 -0.2228 -0.7149
18853TIP3    H278051   3.895   3.684  11.531 -0.2561 -1.5770 -0.1904
18854TIP3   OH278052   4.287   5.823   4.687 -0.1248  0.1519  0.0210
18854TIP3    H178053   4.311   5.778   4.606 -1.6683 -1.0691  0.1814
18854TIP3    H278054   4.351   5.794   4.752 -1.1623 -2.0606  0.1565
18855TIP3   OH278055   2.170   4.507  10.373  0.4002 -0.2785 -0.0701
18855TIP3    H178056   2.244   4.539  10.321 -1.1539  1.4712 -1.3430
18855TIP3    H278057   2.098   4.500  10.310 -0.6226 -1.6351  1.1851
18856TIP3   OH278058   4.980   3.866  11.698 -0.1626 -0.0618  0.5269
18856TIP3    H178059   5.036   3.935  11.735  0.1071 -1.1301  2.2358
18856TIP3    H278060   5.034   3.827  11.629  0.0397  0.8071  0.1730
18857TIP3   OH278061   1.230   5.912  12.235 -0.1542 -0.7611  0.0259
18857TIP3    H178062   1.288   5.980  12.269 -2.1422  0.8264  0.4123
18857TIP3    H278063   1.142   5.950  12.240 -1.3300 -3.2458 -0.0434
18858TIP3   OH278064   5.046   6.757  16.291 -0.3711 -0.3329  0.1830
18858TIP3    H178065   5.070   6.754  16.383 -0.3484  0.5749  0.2124
18858TIP3    H278066   4.968   6.812  16.288 -0.7392 -0.8578 -0.2724
18859TIP3   OH278067   4.829   5.789   0.254  0.3249 -0.6578 -0.5451
18859TIP3    H178068   4.830   5.720   0.320  1.3864 -0.4965 -0.3747
18859TIP3    H278069   4.921   5.806   0.235  0.1928  1.8899  0.6616
18860TIP3   OH278070   5.845   2.875  12.698 -0.2897 -0.1739 -0.4626
18860TIP3    H178071   5.929   2.837  12.673 -0.4092  0.0173 -1.1796
18860TIP3    H278072   5.834   2.853  12.790  1.3196  1.2034  0.1075
18861TIP3   OH278073   0.467   3.597   5.151  0.7858  0.5054  0.2600
18861TIP3    H178074   0.438   3.680   5.189  1.5894  0.3493  1.2685
18861TIP3    H278075   0.390   3.540   5.158  0.6684  0.7320  0.9274
18862TIP3   OH278076   3.979   3.427   3.952  0.2592  0.6011  0.3555
18862TIP3    H178077   4.022   3.407   4.035 -0.8969  1.7629  1.2734
18862TIP3    H278078   3.957   3.342   3.915 -1.5216  0.0391  2.5117
18863TIP3   OH278079   2.251   3.863  11.715  0.3443 -0.5615  0.0536
18863TIP3    H178080   2.206   3.941  11.684 -0.9725 -1.4327 -0.2998
18863TIP3    H278081   2.181   3.803  11.740  1.2979 -2.0002 -0.5969
18864TIP3   OH278082   6.642   6.466   4.435 -0.3824 -0.0245 -0.0241
18864TIP3    H178083   6.690   6.449   4.516  0.9393  1.3739 -0.4570
18864TIP3    H278084   6.710   6.490   4.372 -1.6106  1.6197 -0.7813
18865TIP3   OH278085   6.407   3.167  12.177 -0.5515 -0.1610 -0.5154
18865TIP3    H178086   6.411   3.081  12.135  0.0309 -0.5524  0.3124
18865TIP3    H278087   6.447   3.153  12.263 -1.8607  0.5762  0.2430
18866TIP3   OH278088   1.532   4.030  15.511 -0.2317 -0.3422 -0.1920
18866TIP3    H178089   1.524   4.046  15.605  2.8487 -0.8341  0.2474
18866TIP3    H278090   1.568   3.942  15.503 -0.3668 -0.2958 -1.8413
18867TIP3   OH278091   1.343   2.941  13.221  0.9298  0.1146  0.0497
18867TIP3    H178092   1.270   2.881  13.204  1.8530 -0.8676 -0.6178
18867TIP3    H278093   1.331   2.969  13.311 -1.6380  1.9198 -0.7386
18868TIP3   OH278094   4.116   0.851   2.024  0.8572 -0.7573 -0.2772
18868TIP3    H178095   4.075   0.776   1.980 -1.1510  1.2493 -2.0978
18868TIP3    H278096   4.042   0.903   2.054  2.1940  0.7449  0.5114
18869TIP3   OH278097   3.771   4.287   4.964 -0.2601 -0.1648 -0.2047
18869TIP3    H178098   3.796   4.203   5.004  0.1056 -0.4767 -1.0737
18869TIP3    H278099   3.769   4.269   4.870 -1.0731  0.5707 -0.3410
18870TIP3   OH278100   3.064   0.054   2.123  0.4249  0.3512  0.7440
18870TIP3    H178101   3.143   0.016   2.085 -0.3313 -2.2520  1.5601
18870TIP3    H278102   2.993  -0.003   2.092 -1.2872  2.8591 -0.3664
18871TIP3   OH278103   3.365   6.776   2.905 -0.5005  0.3796 -0.1186
18871TIP3    H178104   3.407   6.694   2.878 -1.5113 -0.7568  1.5336
18871TIP3    H278105   3.403   6.843   2.849  0.3446 -1.2298 -1.5528
18872TIP3   OH278106   4.193   0.744   5.188  0.0549  0.5657  0.3225
18872TIP3    H178107   4.152   0.660   5.206  1.0904 -0.3120 -1.2073
18872TIP3    H278108   4.166   0.800   5.261 -3.6173  0.0403 -0.4454
18873TIP3   OH278109   1.321   3.813   1.852  0.3418 -0.8413 -0.4119
18873TIP3    H178110   1.350   3.904   1.852 -0.5309 -0.5528  0.0449
18873TIP3    H278111   1.350   3.778   1.936 -2.4592  0.0862  1.0604
18874TIP3   OH278112   6.756   5.876  11.972  0.1594  0.1290 -0.1794
18874TIP3    H178113   6.669   5.912  11.991  0.0947 -0.4062  0.5883
18874TIP3    H278114   6.774   5.902  11.882 -0.2832  1.2722  0.0457
18875TIP3   OH278115   4.498   2.998   1.650 -0.4803  0.4333  0.0948
18875TIP3    H178116   4.541   3.008   1.734 -0.4393  2.6261 -0.1322
18875TIP3    H278117   4.570   2.992   1.587 -0.2928  4.2975 -0.3078
18876TIP3   OH278118   2.636   3.314  15.600 -0.1807 -0.3504 -0.1307
18876TIP3    H178119   2.613   3.381  15.535  1.4969 -0.1162 -0.5288
18876TIP3    H278120   2.706   3.355  15.652  1.0602 -1.8525 -0.5412
18877TIP3   OH278121   2.283   0.739   5.101 -0.0445  0.1446  0.4789
18877TIP3    H178122   2.238   0.762   5.020  0.4515  0.7508  0.3745
18877TIP3    H278123   2.376   0.747   5.080  0.0714  1.2257  1.3763
18878TIP3   OH278124   1.252   3.779  13.975 -0.4787  0.9220  0.0563
18878TIP3    H178125   1.280   3.849  13.916  0.7505  0.2106 -0.2435
18878TIP3    H278126   1.226   3.708  13.916 -0.7415  0.7612  0.3658
18879TIP3   OH278127   2.813   1.194   4.421  0.4142 -0.2058  0.3371
18879TIP3    H178128   2.764   1.237   4.351  1.2587 -0.9329 -0.7364
18879TIP3    H278129   2.891   1.248   4.433  0.8375 -0.7092 -0.1029
18880TIP3   OH278130   5.558   4.730   0.356 -0.0250  0.1638 -0.3142
18880TIP3    H178131   5.463   4.728   0.347 -0.1768  1.5247  0.5340
18880TIP3    H278132   5.585   4.812   0.313  0.7738 -0.2633 -0.6520
18881TIP3   OH278133   1.176   1.368   5.480  0.0561 -0.2998  0.2501
18881TIP3    H178134   1.261   1.410   5.490 -0.2482  0.6597 -0.9519
18881TIP3    H278135   1.176   1.335   5.391 -2.1123  2.8903 -1.1354
18882TIP3   OH278136   5.629   3.626  13.565 -0.8205 -0.4228 -0.0181
18882TIP3    H178137   5.650   3.559  13.500 -0.6715 -0.6163  0.2271
18882TIP3    H278138   5.536   3.612  13.583 -0.9614 -0.1079 -0.4829
18883TIP3   OH278139   4.995   1.845  11.227 -0.2468  0.1630 -0.3579
18883TIP3    H178140   5.032   1.775  11.280  1.9706  1.6804  0.2096
18883TIP3    H278141   5.014   1.820  11.137  2.9487  1.1768 -0.0797
18884TIP3   OH278142   6.001   1.674  13.806  0.4831 -0.3332 -0.5605
18884TIP3    H178143   5.987   1.587  13.768  0.9499 -1.2643  1.2883
18884TIP3    H278144   5.918   1.720  13.790 -0.5739 -1.8536  0.2313
18885TIP3   OH278145   5.118   1.334   0.308 -0.7931  0.0630 -0.4316
18885TIP3    H178146   5.050   1.270   0.287  0.7770 -1.6901 -0.4436
18885TIP3    H278147   5.071   1.410   0.341 -2.7913 -0.7184 -1.3593
18886TIP3   OH278148   1.547   1.153  11.674 -0.2691  0.0109  0.1957
18886TIP3    H178149   1.547   1.062  11.644 -1.0429  0.0006  0.2136
18886TIP3    H278150   1.581   1.203  11.600 -1.3985 -0.1069 -0.4174
18887TIP3   OH278151   2.172   4.579   3.167  0.5917  0.0004 -0.0934
18887TIP3    H178152   2.161   4.674   3.162  0.2001 -0.0711 -0.6764
18887TIP3    H278153   2.210   4.564   3.253  0.8898  0.7088 -0.0940
18888TIP3   OH278154   2.487   2.509  13.649  0.0592  0.6234  0.4206
18888TIP3    H178155   2.473   2.601  13.628  0.1719  0.5285 -0.0747
18888TIP3    H278156   2.546   2.478  13.581  1.4285  0.6222  1.5579
18889TIP3   OH278157   6.578   5.920  14.711  0.0663  0.9581  0.1380
18889TIP3    H178158   6.623   5.988  14.661  3.0954  0.1484  1.5004
18889TIP3    H278159   6.623   5.839  14.687 -2.5837 -0.4203 -0.4561
18890TIP3   OH278160   3.202   0.453   2.308  0.5675 -0.3158 -0.1911
18890TIP3    H178161   3.159   0.538   2.297  0.7623  0.0979  1.9087
18890TIP3    H278162   3.295   0.475   2.321  0.4230 -0.7017  1.7346
18891TIP3   OH278163   4.245   5.257   0.676 -0.0589 -0.0170  0.3677
18891TIP3    H178164   4.268   5.166   0.658  3.5878  0.3997  2.1035
18891TIP3    H278165   4.156   5.252   0.712 -0.5753 -2.6378 -1.0180
18892TIP3   OH278166   3.731   2.456   0.802  0.1900  0.1827  0.0642
18892TIP3    H178167   3.710   2.506   0.882 -2.2987 -2.1969  1.0709
18892TIP3    H278168   3.786   2.384   0.833  1.9153  0.9936 -0.9939
18893TIP3   OH278169   2.231   6.718  13.379  0.1361 -0.3129 -0.2153
18893TIP3    H178170   2.314   6.679  13.350  0.8866  0.5808  0.6337
18893TIP3    H278171   2.238   6.811  13.354  0.9075  0.5671  2.7837
18894TIP3   OH278172   3.552   4.819   2.507 -0.3163  0.3070  0.1085
18894TIP3    H178173   3.602   4.891   2.545 -1.3138  0.3000  1.5056
18894TIP3    H278174   3.479   4.806   2.568 -0.7277 -1.2024 -0.6693
18895TIP3   OH278175   3.142   5.043  13.907 -0.3968  0.3072  0.5113
18895TIP3    H178176   3.090   5.087  13.840  1.1812  0.5565 -0.6106
18895TIP3    H278177   3.105   4.955  13.912 -0.6383  0.3236 -0.6156
18896TIP3   OH278178   2.204   0.494   0.537 -1.3981 -0.1144  0.0738
18896TIP3    H178179   2.255   0.496   0.456 -1.9677 -3.4830 -0.5131
18896TIP3    H278180   2.267   0.515   0.605 -0.3480  0.4644 -1.0363
18897TIP3   OH278181   4.657   1.223   4.391  0.3526  0.4036  0.0380
18897TIP3    H178182   4.570   1.226   4.352 -0.6527 -0.6645  2.0375
18897TIP3    H278183   4.709   1.285   4.339 -1.0165 -0.3929 -2.4820
18898TIP3   OH278184   2.600   5.386   4.644 -0.0544  0.6281 -0.4202
18898TIP3    H178185   2.549   5.367   4.722  1.0417 -0.6908  0.0241
18898TIP3    H278186   2.651   5.464   4.667 -0.5552  0.8975 -0.2232
18899TIP3   OH278187   0.142   5.533  17.060 -0.2930  0.0393 -0.0078
18899TIP3    H178188   0.121   5.522  16.968  0.4102  1.3007 -0.3401
18899TIP3    H278189   0.235   5.557  17.061 -0.3651  0.3276  0.9998
18900TIP3   OH278190   2.524   2.381   4.442 -0.1196 -0.0476 -0.0946
18900TIP3    H178191   2.590   2.315   4.421  0.1959  0.2736 -0.1142
18900TIP3    H278192   2.558   2.426   4.520 -1.4866 -1.5222  1.4249
18901TIP3   OH278193   3.477   0.334   4.292  0.2134  0.3868  0.1717
18901TIP3    H178194   3.553   0.377   4.252  1.2369 -2.7140 -1.6016
18901TIP3    H278195   3.515   0.263   4.344 -1.3944  1.0530  2.3787
18902TIP3   OH278196   2.098   4.784  10.741 -0.5274 -0.0600  0.3019
18902TIP3    H178197   2.050   4.702  10.752 -0.9708 -0.0269 -1.1772
18902TIP3    H278198   2.071   4.817  10.655  2.1768 -0.0980 -0.6585
18903TIP3   OH278199   1.714   2.384   0.731 -0.0501 -0.3084 -0.2489
18903TIP3    H178200   1.657   2.307   0.734 -2.6905  1.5179  1.0884
18903TIP3    H278201   1.664   2.448   0.680  1.2973  1.0582  0.0663
18904TIP3   OH278202   4.528   3.238   1.348 -0.2225 -0.0751  0.1498
18904TIP3    H178203   4.506   3.207   1.260 -2.5139  0.9031  0.3098
18904TIP3    H278204   4.452   3.289   1.375  1.9593  2.8787  1.2052
18905TIP3   OH278205   0.955   2.496  15.075  0.4685  0.3202 -0.4527
18905TIP3    H178206   1.046   2.466  15.079  0.4374  0.1837 -0.7852
18905TIP3    H278207   0.904   2.422  15.107  0.5440  0.7421  0.6830
18906TIP3   OH278208   3.522   5.782  13.410 -0.3798  0.1120 -0.4132
18906TIP3    H178209   3.454   5.849  13.407 -0.1163  0.4828  1.0596
18906TIP3    H278210   3.559   5.790  13.498  1.6510 -0.0001 -1.2146
18907TIP3   OH278211   4.759   0.202   6.373 -0.3237  0.5243 -0.2519
18907TIP3    H178212   4.758   0.172   6.282 -2.5984 -0.5701  0.0582
18907TIP3    H278213   4.796   0.128   6.422 -4.8589 -1.6976  0.3639
18908TIP3   OH278214   4.147   5.838  13.953 -0.5579  0.1398 -0.4708
18908TIP3    H178215   4.108   5.904  14.010  1.6700  0.9933  0.1552
18908TIP3    H278216   4.180   5.887  13.878 -0.1096 -0.4525 -0.6755
18909TIP3   OH278217   1.232   2.006   3.815 -0.1656 -0.1833  0.4259
18909TIP3    H178218   1.187   1.926   3.844  1.3136 -0.9068  0.7818
18909TIP3    H278219   1.294   1.976   3.748  0.0867  0.7397  0.2392
18910TIP3   OH278220   0.551   4.286  12.184 -0.1125  0.0169  0.1663
18910TIP3    H178221   0.598   4.203  12.174 -1.0521 -0.5880  0.6101
18910TIP3    H278222   0.525   4.309  12.095 -0.2027 -0.3917  0.0827
18911TIP3   OH278223   1.295   3.382  12.649 -0.0868  0.3392  0.9906
18911TIP3    H178224   1.302   3.317  12.580 -0.9461  1.2096  0.0412
18911TIP3    H278225   1.378   3.429  12.647  0.0852  0.0339  0.9001
18912TIP3   OH278226   0.840   3.385   3.286  0.0646 -0.4899 -0.2075
18912TIP3    H178227   0.747   3.376   3.267 -0.5231  0.1538  2.0061
18912TIP3    H278228   0.853   3.480   3.294  0.7631 -0.6069  0.1062
18913TIP3   OH278229   0.298   1.729   5.405 -0.0208  0.4235 -0.3024
18913TIP3    H178230   0.305   1.824   5.405 -2.2196  0.7416  2.5554
18913TIP3    H278231   0.229   1.710   5.342 -1.6001  1.0688  1.1585
18914TIP3   OH278232   6.175   0.476  17.182 -0.1504  0.0925 -0.4538
18914TIP3    H178233   6.185   0.548  17.244 -2.9963 -0.4730  0.8395
18914TIP3    H278234   6.240   0.493  17.114  0.2108  3.1018  0.5142
18915TIP3   OH278235   5.787   3.059  16.535 -0.5128 -0.0185  0.4809
18915TIP3    H178236   5.824   3.069  16.447 -1.1993 -0.1139  0.1782
18915TIP3    H278237   5.721   3.128  16.541  0.6229  1.0101  1.5107
18916TIP3   OH278238   3.638   2.444   4.138  0.1796 -0.3584 -0.0483
18916TIP3    H178239   3.630   2.489   4.222 -2.5494 -0.9449  0.1136
18916TIP3    H278240   3.665   2.355   4.162 -0.0362 -0.3672  0.1777
18917TIP3   OH278241   4.749   5.331   5.130 -0.0546  0.5268 -0.4673
18917TIP3    H178242   4.670   5.276   5.126  1.3915 -1.6923 -0.1769
18917TIP3    H278243   4.779   5.324   5.220  1.0231  0.5260 -0.8163
18918TIP3   OH278244   5.593   5.699  16.262 -0.2619 -0.5018  0.6990
18918TIP3    H178245   5.552   5.708  16.348 -0.6140 -0.9879  0.5871
18918TIP3    H278246   5.684   5.723  16.277 -0.4942  0.1885  1.0419
18919TIP3   OH278247   4.893   6.821  10.575  0.2829  0.6877 -0.0084
18919TIP3    H178248   4.799   6.817  10.555  0.4059  0.7875 -0.6286
18919TIP3    H278249   4.936   6.801  10.491  0.8205 -1.9838  0.8247
18920TIP3   OH278250   5.544   5.732   6.686  0.2758  0.7715  0.1743
18920TIP3    H178251   5.552   5.674   6.762 -0.9741 -0.0619 -0.2935
18920TIP3    H278252   5.609   5.700   6.624  0.2307  0.4659  0.2835
18921TIP3   OH278253   2.268   2.055  13.241  0.9850  0.0329  0.3898
18921TIP3    H178254   2.234   2.115  13.307  1.0107  1.3196 -0.7174
18921TIP3    H278255   2.322   1.993  13.290 -0.5012 -0.2005  1.7868
18922TIP3   OH278256   5.272   0.037  10.612 -0.1760  0.2447 -0.5514
18922TIP3    H178257   5.331   0.008  10.543  0.0346 -2.2361  0.5629
18922TIP3    H278258   5.314   0.116  10.647  1.1870 -0.0731 -1.3921
18923TIP3   OH278259   1.456   3.238  14.371 -0.0030  0.5145 -0.0847
18923TIP3    H178260   1.534   3.293  14.363  1.4077 -1.6535 -2.6353
18923TIP3    H278261   1.395   3.274  14.306  1.2337 -1.1794 -2.3628
18924TIP3   OH278262   5.820   1.169   1.746  0.0488  0.2733  0.5759
18924TIP3    H178263   5.844   1.259   1.724 -0.3497  0.0064 -1.1111
18924TIP3    H278264   5.903   1.127   1.771  0.6057  0.5813 -0.6754
18925TIP3   OH278265   5.818   2.068  13.886  0.2244 -0.0112 -0.2087
18925TIP3    H178266   5.835   2.081  13.979 -0.1078  0.4948 -0.2138
18925TIP3    H278267   5.905   2.071  13.845  0.2459  1.3179 -0.0942
18926TIP3   OH278268   5.928   0.058  13.363 -0.2697 -0.4498  0.2740
18926TIP3    H178269   6.012   0.056  13.409  0.0392 -2.0126 -0.2837
18926TIP3    H278270   5.951   0.041  13.272 -1.1043  0.2045 -0.0710
18927TIP3   OH278271   4.025   2.547  14.861 -0.2123 -0.0856 -0.3584
18927TIP3    H178272   4.072   2.569  14.942 -0.1504 -0.5688 -0.2606
18927TIP3    H278273   4.009   2.631  14.819  0.4563  0.1123 -0.2335
18928TIP3   OH278274   1.140   1.697  12.136 -0.0904  0.1969  0.4127
18928TIP3    H178275   1.166   1.613  12.174 -0.9673  0.0305  0.6896
18928TIP3    H278276   1.049   1.708  12.166 -0.1164  1.0402  0.0285
18929TIP3   OH278277   0.602   1.529   5.332 -0.2461 -0.3586  0.1483
18929TIP3    H178278   0.570   1.464   5.394 -2.6220 -0.8351 -1.4093
18929TIP3    H278279   0.636   1.600   5.386  0.9849 -2.1891  1.9023
18930TIP3   OH278280   2.243   2.264   4.150  0.4962  0.2460  0.1676
18930TIP3    H178281   2.275   2.193   4.095  1.1515 -0.8189  1.8471
18930TIP3    H278282   2.191   2.319   4.091 -1.8730 -2.7459 -0.7858
18931TIP3   OH278283   5.824   6.796   4.282  0.6510  0.5114 -0.0819
18931TIP3    H178284   5.748   6.833   4.237  0.0178 -2.3861 -1.6403
18931TIP3    H278285   5.798   6.791   4.374 -1.3723 -1.0782 -0.6927
18932TIP3   OH278286   2.066   1.520   5.885  0.6043  0.3255 -0.8193
18932TIP3    H178287   2.116   1.600   5.903  0.4584  0.4530 -0.9733
18932TIP3    H278288   2.019   1.540   5.804  2.3839 -0.7334 -2.1941
18933TIP3   OH278289   6.611   5.916   6.277 -0.1318 -0.1786  0.2129
18933TIP3    H178290   6.586   5.987   6.336  1.5218  0.3306  0.3635
18933TIP3    H278291   6.544   5.849   6.289 -1.6171  1.2706  0.2201
18934TIP3   OH278292   1.189   0.359   4.000 -0.4992  0.2947 -0.2296
18934TIP3    H178293   1.280   0.389   3.996 -0.1831 -0.6972 -0.7715
18934TIP3    H278294   1.137   0.438   3.987  0.2832  0.8544 -0.0363
18935TIP3   OH278295   1.415   5.335  14.802  0.8531  0.0539  0.3069
18935TIP3    H178296   1.456   5.341  14.716 -0.8360 -0.3735 -0.5745
18935TIP3    H278297   1.448   5.411  14.850  1.3105  0.6736 -0.9480
18936TIP3   OH278298   1.563   1.544  14.161 -0.2848 -0.5979 -0.3219
18936TIP3    H178299   1.537   1.630  14.195  0.9697  0.8307 -2.6765
18936TIP3    H278300   1.485   1.512  14.115  0.3356  1.3046 -2.9808
18937TIP3   OH278301   4.423   4.414   3.111 -0.4924  0.2355 -0.1035
18937TIP3    H178302   4.504   4.444   3.150 -0.3553  0.1163 -0.2963
18937TIP3    H278303   4.450   4.363   3.034 -0.7627  0.5995 -0.4462
18938TIP3   OH278304   4.284   5.659   1.116 -0.2041 -0.6016 -0.0735
18938TIP3    H178305   4.285   5.563   1.113  0.7423 -0.5932 -1.7530
18938TIP3    H278306   4.201   5.684   1.075 -0.0249 -0.7179 -0.5180
18939TIP3   OH278307   0.990   2.339   2.060  0.0727  0.5215 -0.0428
18939TIP3    H178308   0.929   2.412   2.060 -0.2683  0.2404 -0.1943
18939TIP3    H278309   1.069   2.373   2.017  0.4358  1.2132  1.1321
18940TIP3   OH278310   4.447   3.741   2.719 -0.1900 -0.0832  0.6223
18940TIP3    H178311   4.499   3.821   2.728  1.5259 -1.0781  0.1651
18940TIP3    H278312   4.358   3.767   2.739  0.6462  1.5044  2.5808
18941TIP3   OH278313   2.936   2.762   2.862 -0.0105 -0.1258  0.1507
18941TIP3    H178314   2.860   2.709   2.838  0.4943 -0.5795 -0.4811
18941TIP3    H278315   2.902   2.827   2.923 -0.4729 -1.8330  1.8198
18942TIP3   OH278316   2.781   6.482   2.868 -0.3623  0.3499  0.6152
18942TIP3    H178317   2.852   6.519   2.816  0.3069 -0.2283  1.0928
18942TIP3    H278318   2.734   6.425   2.807 -0.4680  0.7963  0.2762
18943TIP3   OH278319   4.624   3.888  12.962 -0.1432  0.3540 -0.1602
18943TIP3    H178320   4.530   3.907  12.966  0.4228  3.6604  1.4657
18943TIP3    H278321   4.630   3.808  12.911 -3.8463 -0.1292 -0.1521
18944TIP3   OH278322   1.031   6.686  12.314  0.4085 -1.1448  0.1912
18944TIP3    H178323   0.960   6.747  12.294  0.3941 -1.0823  0.4219
18944TIP3    H278324   1.012   6.657  12.404  1.6787  0.2979  0.9792
18945TIP3   OH278325   1.097   1.364  10.936  0.8056 -0.6480 -0.5420
18945TIP3    H178326   1.090   1.274  10.904  1.1388 -0.9547  0.2194
18945TIP3    H278327   1.191   1.381  10.939  1.1136 -1.8349  3.3491
18946TIP3   OH278328   3.458   4.650  11.903  0.2669 -0.1126  0.2928
18946TIP3    H178329   3.480   4.587  11.973  0.7058  0.2912  0.5218
18946TIP3    H278330   3.543   4.682  11.872  0.1377 -1.1243 -1.2192
18947TIP3   OH278331   0.830   1.261   3.212  0.0614 -0.2561  0.2307
18947TIP3    H178332   0.859   1.348   3.186 -1.1979  0.4667  1.1693
18947TIP3    H278333   0.735   1.264   3.203  0.0182 -1.6235  0.0311
18948TIP3   OH278334   1.620   2.830  14.088  0.3444 -0.5607 -0.2741
18948TIP3    H178335   1.598   2.830  14.181  0.8719 -0.7808 -0.1462
18948TIP3    H278336   1.585   2.913  14.055  2.2972  0.7128  0.6418
18949TIP3   OH278337   4.372   2.360  15.799  0.4630 -0.4966 -0.3566
18949TIP3    H178338   4.401   2.358  15.708 -0.4338 -0.3123 -0.6566
18949TIP3    H278339   4.348   2.451  15.815  0.8295 -0.4835  0.1391
18950TIP3   OH278340   5.551   4.953  13.115 -0.3535  0.0168  0.2076
18950TIP3    H178341   5.592   4.885  13.062 -0.8712 -0.2419  0.1348
18950TIP3    H278342   5.611   5.028  13.108 -0.3583 -0.0453 -0.6607
18951TIP3   OH278343   2.974   5.927  16.445  0.1667  0.2339  0.3748
18951TIP3    H178344   2.896   5.914  16.391 -0.2679 -1.4168  1.3315
18951TIP3    H278345   2.978   6.021  16.459 -1.4587  0.3877  0.0007
18952TIP3   OH278346   2.873   0.010   6.316 -0.1694 -0.2092 -0.3948
18952TIP3    H178347   2.887   0.020   6.410  1.0370 -2.1811 -0.3091
18952TIP3    H278348   2.845   0.097   6.286 -4.7148 -0.3468  2.4012
18953TIP3   OH278349   5.662   2.554  15.693  0.4350  0.4706  0.0712
18953TIP3    H178350   5.586   2.534  15.748  2.0794 -0.6444  2.0899
18953TIP3    H278351   5.628   2.550  15.604 -1.5702 -1.5070  0.8163
18954TIP3   OH278352   2.885   0.205   0.704 -0.2843  0.1366 -0.2037
18954TIP3    H178353   2.841   0.123   0.727 -0.1007  0.4872  1.5628
18954TIP3    H278354   2.875   0.212   0.609  0.1461 -2.1636 -0.4634
18955TIP3   OH278355   2.207   1.682  12.298  0.0555 -0.3515  0.1167
18955TIP3    H178356   2.124   1.634  12.308 -1.4893  2.2862  0.7845
18955TIP3    H278357   2.210   1.704  12.205  0.1737 -0.7148  0.0330
18956TIP3   OH278358   5.567   5.079   5.651  0.3543  0.2684  0.0958
18956TIP3    H178359   5.629   5.081   5.579 -0.8253  1.2666 -0.9395
18956TIP3    H278360   5.487   5.044   5.613 -0.7402  2.2106  0.4918
18957TIP3   OH278361   1.648   2.480   0.408 -0.6227 -0.0296 -0.3094
18957TIP3    H178362   1.592   2.467   0.484  0.2943 -1.9909  0.0968
18957TIP3    H278363   1.630   2.405   0.351  0.3965  0.1661 -0.9226
18958TIP3   OH278364   5.176   0.260  11.092 -0.4198  0.0166  0.4128
18958TIP3    H178365   5.104   0.319  11.068 -0.5768 -0.4680 -0.3502
18958TIP3    H278366   5.231   0.256  11.014 -0.1340 -0.4418  0.6332
18959TIP3   OH278367   1.093   3.137  15.282 -0.0893 -0.3795 -0.5729
18959TIP3    H178368   1.136   3.160  15.365  0.7264 -1.5427 -0.6301
18959TIP3    H278369   1.084   3.041  15.287  0.5303 -0.5384 -2.0714
18960TIP3   OH278370   2.418   1.189   5.481 -0.3584  0.0677  0.0473
18960TIP3    H178371   2.432   1.172   5.574  1.2242  1.4664  0.1281
18960TIP3    H278372   2.348   1.129   5.455  1.0455 -2.3725  1.4924
18961TIP3   OH278373   3.065   6.564   2.289 -0.2595 -0.4280  0.2499
18961TIP3    H178374   3.075   6.485   2.343  0.8655 -0.3522  0.1760
18961TIP3    H278375   3.134   6.623   2.320 -2.3501  1.3970  1.7173
18962TIP3   OH278376   5.539   4.864  16.884  0.1073 -0.4304 -0.4662
18962TIP3    H178377   5.631   4.855  16.908 -0.0857  0.2980  0.6388
18962TIP3    H278378   5.501   4.777  16.897  0.0098 -0.0817  2.0437
18963TIP3   OH278379   3.475   4.026   2.720 -0.8385 -0.0226 -0.0455
18963TIP3    H178380   3.449   3.934   2.712 -1.8630  0.3428 -1.2735
18963TIP3    H278381   3.411   4.074   2.667  0.4144  1.2736 -0.4708
18964TIP3   OH278382   4.231   4.553   0.675 -0.2438  0.3890  0.1525
18964TIP3    H178383   4.204   4.558   0.767 -1.2800 -2.7265  0.1202
18964TIP3    H278384   4.169   4.493   0.635  2.1777 -0.9856 -1.8120
18965TIP3   OH278385   2.757   1.696   3.652 -0.0471 -0.2866 -0.6483
18965TIP3    H178386   2.780   1.789   3.645  2.2805 -0.7104  0.4498
18965TIP3    H278387   2.678   1.695   3.706 -0.7870  1.0921 -1.6355
18966TIP3   OH278388   5.047   6.740   0.194 -0.5120  0.0305  0.7713
18966TIP3    H178389   4.994   6.672   0.153 -0.4497  0.8907 -0.8457
18966TIP3    H278390   5.128   6.742   0.142 -1.1565  2.3573 -0.3114
18967TIP3   OH278391   1.251   2.712   1.576  0.7140 -0.1776  0.4405
18967TIP3    H178392   1.186   2.780   1.588  0.8046  0.4262 -1.8963
18967TIP3    H278393   1.327   2.757   1.540  1.3693 -1.2806  0.3678
18968TIP3   OH278394   2.195   5.953  15.620  0.4004  0.0527 -0.7186
18968TIP3    H178395   2.131   6.014  15.583 -0.9991 -0.2363  1.1010
18968TIP3    H278396   2.250   6.007  15.677  0.6323 -0.0193 -0.8704
18969TIP3   OH278397   5.430   1.398  16.437 -0.1521  0.2071 -0.7523
18969TIP3    H178398   5.413   1.305  16.449  0.6283 -0.0025 -1.1401
18969TIP3    H278399   5.405   1.439  16.519  2.6110 -0.7963  0.7235
18970TIP3   OH278400   0.586   6.584   1.947 -0.0985 -0.3128  0.0713
18970TIP3    H178401   0.590   6.629   2.031 -2.0406  0.5054 -0.2226
18970TIP3    H278402   0.676   6.557   1.930  0.3908 -0.2469  2.2627
18971TIP3   OH278403   1.243   0.472   0.635 -0.7284 -0.8206 -0.0935
18971TIP3    H178404   1.203   0.540   0.580  0.1119 -0.8206 -0.7107
18971TIP3    H278405   1.177   0.456   0.703 -0.5659  1.2913  0.6503
18972TIP3   OH278406   2.228   1.666  15.458 -0.0205  0.1541 -0.2185
18972TIP3    H178407   2.318   1.698  15.452 -0.2056  1.0519  1.2984
18972TIP3    H278408   2.187   1.693  15.376  0.6116  1.3456 -0.1670
18973TIP3   OH278409   5.232   3.259   5.653 -0.0831  0.1798  0.2165
18973TIP3    H178410   5.177   3.331   5.685  0.8200  1.0529 -0.1502
18973TIP3    H278411   5.236   3.272   5.558 -1.4138 -1.4523 -0.1188
18974TIP3   OH278412   4.582   5.246  13.748 -0.1950  0.3743  0.3688
18974TIP3    H178413   4.594   5.261  13.842 -0.7412  1.4574  0.2909
18974TIP3    H278414   4.499   5.198  13.743  0.1642 -0.2631  0.4722
18975TIP3   OH278415   5.804   1.164  17.004 -0.2478 -0.3274  0.4556
18975TIP3    H178416   5.851   1.089  17.042  0.5153  0.4400  1.0668
18975TIP3    H278417   5.828   1.162  16.912 -1.2544 -1.5706  0.1885
18976TIP3   OH278418   2.093   5.062   6.041 -0.0237 -0.4162 -0.2131
18976TIP3    H178419   2.152   5.129   6.006 -0.3150  0.0712  0.2203
18976TIP3    H278420   2.150   5.002   6.090  0.0769  0.2292  0.4708
18977TIP3   OH278421   1.773   6.628  14.693  0.3815  0.0397  0.1655
18977TIP3    H178422   1.746   6.664  14.777  0.0915  1.7034 -0.6202
18977TIP3    H278423   1.849   6.573  14.714 -0.6099 -0.8269  1.7000
18978TIP3   OH278424   3.140   5.669   4.869 -0.4076  0.8869  0.0552
18978TIP3    H178425   3.108   5.655   4.958 -0.9550  2.1235  0.0710
18978TIP3    H278426   3.223   5.715   4.881 -0.6912  1.4337 -0.0848
18979TIP3   OH278427   2.671   2.733   4.376  0.0452  0.9005  0.0042
18979TIP3    H178428   2.736   2.773   4.317 -0.3346  1.7688  0.1590
18979TIP3    H278429   2.593   2.723   4.321  0.1200  0.4112 -0.0168
18980TIP3   OH278430   3.630   1.500  11.390 -0.2484 -0.4018 -0.2624
18980TIP3    H178431   3.564   1.486  11.322  1.2103 -0.5631 -1.7319
18980TIP3    H278432   3.695   1.557  11.349  0.9350 -0.9092  0.8147
18981TIP3   OH278433   0.691   5.064   6.639  0.5972  0.5134 -0.6199
18981TIP3    H178434   0.712   5.049   6.732  0.1811  0.6044 -0.5118
18981TIP3    H278435   0.714   4.982   6.596  1.1971  0.6160 -0.5057
18982TIP3   OH278436   1.040   5.773   3.060  0.1114 -0.1810 -0.5322
18982TIP3    H178437   0.977   5.816   3.118  1.2909 -0.8098  1.2900
18982TIP3    H278438   1.027   5.680   3.075  1.4693 -0.3154 -0.1265
18983TIP3   OH278439   0.227   1.583   4.071 -0.3751  0.3039 -0.2633
18983TIP3    H178440   0.235   1.491   4.046 -0.4348 -0.2902  1.7263
18983TIP3    H278441   0.161   1.618   4.011 -0.2791 -0.9104 -1.1229
18984TIP3   OH278442   1.249   4.124  14.567  0.3750  0.0477 -0.6884
18984TIP3    H178443   1.299   4.050  14.535 -0.5649 -1.4491  1.1100
18984TIP3    H278444   1.302   4.201  14.545  1.5460 -1.1655 -2.2677
18985TIP3   OH278445   4.382   0.264   4.775 -0.3582  0.0143 -0.4466
18985TIP3    H178446   4.341   0.281   4.690  1.5091  0.5279 -1.2910
18985TIP3    H278447   4.462   0.317   4.775  0.7604 -1.5557  0.7554
18986TIP3   OH278448   5.725   1.154   0.243 -0.3234 -0.1329  1.0117
18986TIP3    H178449   5.773   1.188   0.168  1.2761 -2.2420  0.9792
18986TIP3    H278450   5.680   1.230   0.279 -1.3765  0.9120 -2.1920
18987TIP3   OH278451   6.558   1.662   4.889  0.2042 -0.0068 -0.0172
18987TIP3    H178452   6.637   1.676   4.941  0.8955  0.3818 -1.1194
18987TIP3    H278453   6.500   1.735   4.913  1.1095  1.0230 -0.8420
18988TIP3   OH278454   4.517   3.177   5.108 -0.1797  0.4830 -0.3094
18988TIP3    H178455   4.538   3.119   5.180  2.1608  1.4989 -0.0623
18988TIP3    H278456   4.423   3.167   5.095 -0.0539 -2.5613  0.3473
18989TIP3   OH278457   6.072   2.708  12.163  0.0217  0.0975  0.5238
18989TIP3    H178458   5.998   2.697  12.223  1.4101 -1.1739  2.1239
18989TIP3    H278459   6.128   2.772  12.207  0.7807 -0.4156  0.3209
18990TIP3   OH278460   1.261   4.483  15.291  0.0898  0.1664 -0.4077
18990TIP3    H178461   1.319   4.555  15.315  1.2179 -0.2717 -1.7355
18990TIP3    H278462   1.318   4.408  15.277 -0.6109 -0.0079 -2.8273
18991TIP3   OH278463   1.111   3.122   5.136 -0.4147 -0.0803 -0.4620
18991TIP3    H178464   1.110   3.218   5.133  0.4043 -0.0599 -0.4106
18991TIP3    H278465   1.118   3.101   5.229 -1.3477 -0.2184 -0.4075
18992TIP3   OH278466   4.334   0.027  15.263 -0.3525  0.1425  0.0649
18992TIP3    H178467   4.258   0.034  15.206  0.4468  1.6967 -0.8617
18992TIP3    H278468   4.314   0.084  15.337 -0.4045 -0.0527  0.2027
18993TIP3   OH278469   2.665   5.725  13.143 -0.3038  0.5165 -0.0814
18993TIP3    H178470   2.689   5.765  13.060  2.1659 -0.3181  0.1562
18993TIP3    H278471   2.748   5.710  13.188 -1.5256  0.4211  2.3173
18994TIP3   OH278472   1.982   2.199   5.612 -0.5080 -0.0697 -0.2896
18994TIP3    H178473   2.046   2.158   5.672  0.5865  1.4069 -0.3968
18994TIP3    H278474   1.898   2.159   5.637  0.0421 -0.1491  1.6560
18995TIP3   OH278475   0.537   4.550  11.018  0.1215  0.0117  0.4496
18995TIP3    H178476   0.536   4.565  10.924  0.2315 -1.6955  0.1411
18995TIP3    H278477   0.585   4.624  11.054  0.1377  0.6476 -0.8381
18996TIP3   OH278478   6.365   3.433  16.027 -0.3987 -0.2873  0.3301
18996TIP3    H178479   6.415   3.393  16.098  0.6547 -1.2383 -0.8942
18996TIP3    H278480   6.330   3.358  15.978 -1.8855  0.3555  0.3440
18997TIP3   OH278481   1.492   4.440  14.084  0.2359  0.5699 -0.4382
18997TIP3    H178482   1.555   4.451  14.156 -0.2435  1.1979 -0.1044
18997TIP3    H278483   1.453   4.354  14.100  0.9100  0.2268 -0.5784
18998TIP3   OH278484   4.177   6.452  14.433 -0.9073  0.1908 -0.1960
18998TIP3    H178485   4.117   6.517  14.468 -0.7266 -0.0826  0.6363
18998TIP3    H278486   4.208   6.404  14.509  0.0791  0.0836 -0.6447
18999TIP3   OH278487   5.493   4.154  11.985  0.4250 -0.3520 -0.0842
18999TIP3    H178488   5.538   4.235  11.962 -0.3687 -0.4664 -2.2513
18999TIP3    H278489   5.445   4.176  12.065  2.8245  0.2749  1.2820
19000TIP3   OH278490   2.089   4.066   4.034  0.7391  0.0031 -0.3092
19000TIP3    H178491   2.084   4.160   4.018 -0.5288 -0.1763 -1.1598
19000TIP3    H278492   2.182   4.045   4.025  1.1297  1.2519  0.4845
19001TIP3   OH278493   3.066   1.021  15.875 -0.4843  0.7427  0.1199
19001TIP3    H178494   3.066   0.938  15.924  2.2856  1.5601  1.7517
19001TIP3    H278495   2.976   1.052  15.880 -1.4597 -1.8356 -0.0086
19002TIP3   OH278496   6.787   4.889  16.091 -0.4955 -0.0926  0.2579
19002TIP3    H178497   6.705   4.917  16.133 -0.8167 -1.8665  0.8860
19002TIP3    H278498   6.847   4.873  16.163 -0.7940 -2.3646  0.0732
19003TIP3   OH278499   2.639   2.749  16.487  0.0366 -0.2141  0.1747
19003TIP3    H178500   2.622   2.703  16.405  1.3636 -1.5541  0.6000
19003TIP3    H278501   2.635   2.681  16.554  2.2874  0.1947  0.8179
19004TIP3   OH278502   2.248   2.296   1.646 -0.5117 -0.1205 -0.6868
19004TIP3    H178503   2.223   2.294   1.553  1.9011 -1.3081 -1.3937
19004TIP3    H278504   2.343   2.281   1.645 -0.0962  1.7496  1.8790
19005TIP3   OH278505   2.999   4.307   0.509 -0.3394  0.2166 -0.0398
19005TIP3    H178506   3.068   4.246   0.532 -0.7772  0.7682  3.1488
19005TIP3    H278507   2.918   4.260   0.528 -0.8943  0.1025 -2.3409
19006TIP3   OH278508   1.409   4.521  10.825  0.2779  0.0788 -0.0595
19006TIP3    H178509   1.479   4.482  10.773  1.1508  0.2596  0.9416
19006TIP3    H278510   1.401   4.610  10.791 -0.2066 -0.2702 -0.8817
19007TIP3   OH278511   0.765   3.697   1.739 -0.0295 -0.1995 -0.1274
19007TIP3    H178512   0.716   3.635   1.685  1.2111  0.9783 -2.7656
19007TIP3    H278513   0.735   3.783   1.711  2.1524  0.5036 -0.5680
19008TIP3   OH278514   0.851   4.768   6.297 -0.4272 -0.6798  0.4299
19008TIP3    H178515   0.828   4.848   6.249 -1.2188 -1.4889 -0.5863
19008TIP3    H278516   0.919   4.727   6.244 -0.0565 -0.7204  0.9250
19009TIP3   OH278517   3.707   3.051  16.124 -0.0820 -0.0170  0.1195
19009TIP3    H178518   3.730   2.963  16.153 -0.2854 -0.0947  0.0424
19009TIP3    H278519   3.791   3.093  16.107  0.1093  0.4029  1.9223
19010TIP3   OH278520   3.779   4.645  16.626 -0.1210  0.1290 -0.4565
19010TIP3    H178521   3.719   4.718  16.611 -0.9829 -0.8598 -2.1289
19010TIP3    H278522   3.756   4.613  16.714 -0.1777  1.4339  0.0169
19011TIP3   OH278523   4.735   4.370   5.782 -0.0213 -0.3512 -0.1857
19011TIP3    H178524   4.753   4.294   5.726 -3.1555 -0.9689 -0.5250
19011TIP3    H278525   4.690   4.432   5.724  0.0273  0.5801  0.7577
19012TIP3   OH278526   3.160   4.985  16.037 -0.2662  0.8232 -0.0073
19012TIP3    H178527   3.135   4.943  15.955 -0.9360 -1.7658  1.4164
19012TIP3    H278528   3.254   4.998  16.029 -0.1548 -0.3050 -0.8227
19013TIP3   OH278529   2.150   4.894   3.240  0.0624 -0.0210 -0.1999
19013TIP3    H178530   2.224   4.934   3.286 -0.2251 -0.6623  0.8522
19013TIP3    H278531   2.155   4.930   3.151  0.4619  1.4884  0.3930
19014TIP3   OH278532   4.313   4.799   0.503  0.2681  0.1156  0.5906
19014TIP3    H178533   4.405   4.792   0.480  0.0651 -1.1382  0.0596
19014TIP3    H278534   4.291   4.714   0.542 -0.3881  0.8078  1.7879
19015TIP3   OH278535   0.782   5.706   3.812 -0.4417 -0.3726 -0.6084
19015TIP3    H178536   0.798   5.679   3.722 -1.4937 -0.9971 -0.6189
19015TIP3    H278537   0.703   5.759   3.808  0.8185  1.6311 -0.3830
19016TIP3   OH278538   6.148   4.979  16.442 -0.1142 -0.4366  0.1023
19016TIP3    H178539   6.177   4.904  16.391  0.5038 -0.4796  0.5052
19016TIP3    H278540   6.228   5.029  16.458 -0.4675  0.1263  0.1299
19017TIP3   OH278541   3.728   6.400   5.519  0.0460 -0.3873  0.1672
19017TIP3    H178542   3.774   6.441   5.445  1.5777 -0.1700  1.1798
19017TIP3    H278543   3.797   6.384   5.583 -0.6507 -3.6449  0.2702
19018TIP3   OH278544   6.409   4.312   1.434 -0.1796 -0.2567  0.0474
19018TIP3    H178545   6.490   4.264   1.416  0.5780  0.6802  0.8397
19018TIP3    H278546   6.411   4.328   1.528 -1.4407 -0.4787  0.1231
19019TIP3   OH278547   1.453   5.119  16.441 -0.3063  0.3590  0.0326
19019TIP3    H178548   1.415   5.171  16.512 -1.8171 -0.0216 -0.4480
19019TIP3    H278549   1.531   5.168  16.415 -0.1582  0.9184  1.4085
19020TIP3   OH278550   0.120   3.833  11.869  0.2573  0.0668  0.2777
19020TIP3    H178551   0.051   3.770  11.847 -1.6358  2.1334 -0.0248
19020TIP3    H278552   0.146   3.809  11.958 -1.3563 -0.3554  0.6724
19021TIP3   OH278553   0.677   3.424   6.189  0.1873  0.1119  0.2822
19021TIP3    H178554   0.668   3.332   6.215 -1.3323 -0.5937 -2.4019
19021TIP3    H278555   0.590   3.461   6.204  1.0251  1.4578  2.2423
19022TIP3   OH278556   2.722   6.369   0.364  0.0518  0.2032  0.7826
19022TIP3    H178557   2.633   6.339   0.345 -0.9577  1.7689  2.7395
19022TIP3    H278558   2.736   6.442   0.303  0.5879 -0.9074 -0.4847
19023TIP3   OH278559   5.137   4.528  16.012 -0.0747  0.7377 -0.1091
19023TIP3    H178560   5.067   4.475  15.975 -0.6336  1.4018 -0.0381
19023TIP3    H278561   5.206   4.529  15.946 -0.0055 -0.1651 -0.0563
19024TIP3   OH278562   1.108   4.589  14.599  0.4751  0.2334 -0.2271
19024TIP3    H178563   1.040   4.587  14.666 -0.6954  0.1851 -1.3731
19024TIP3    H278564   1.079   4.525  14.534  0.8066  1.3560 -1.5115
19025TIP3   OH278565   0.799   0.149   2.191  0.0905  0.9645 -0.4658
19025TIP3    H178566   0.759   0.229   2.157  1.5377  1.4306 -1.1510
19025TIP3    H278567   0.732   0.111   2.247 -0.3395  3.1241  0.6007
19026TIP3   OH278568   0.560   2.720   0.971 -0.6396 -0.4247  0.4440
19026TIP3    H178569   0.604   2.661   1.033  2.5621 -0.1916 -1.3728
19026TIP3    H278570   0.564   2.806   1.013  0.3986 -0.4731  0.4725
19027TIP3   OH278571   5.117   4.403  16.793  0.5652  0.6434  0.0241
19027TIP3    H178572   5.091   4.399  16.885 -2.1294 -1.7005 -0.6750
19027TIP3    H278573   5.184   4.336  16.784  0.1285  0.1882  0.1192
19028TIP3   OH278574   3.707   0.883  13.807 -0.8956  0.0476 -0.3429
19028TIP3    H178575   3.798   0.910  13.824 -0.6459 -1.5813  1.2661
19028TIP3    H278576   3.654   0.953  13.846 -0.4221  1.9250 -2.8608
19029TIP3   OH278577   0.892   6.527   2.835  0.5022  0.2816  0.9858
19029TIP3    H178578   0.856   6.612   2.858 -0.3886 -0.2607  1.7110
19029TIP3    H278579   0.873   6.472   2.912  0.3535 -0.7618  0.2255
19030TIP3   OH278580   2.700   6.665   4.043  0.2719 -0.2356  0.6227
19030TIP3    H178581   2.648   6.737   4.077  0.8994  0.0082  1.0875
19030TIP3    H278582   2.774   6.658   4.103  1.0135 -0.2892 -0.2730
19031TIP3   OH278583   0.385   5.890   3.165 -0.1804 -0.5773  0.6920
19031TIP3    H178584   0.328   5.916   3.238 -2.0165 -0.5764 -0.6720
19031TIP3    H278585   0.334   5.826   3.116  0.6545  0.0226 -1.0626
19032TIP3   OH278586   3.941   1.223  16.712  0.2774  0.2929 -0.0450
19032TIP3    H178587   3.892   1.256  16.787  2.0345 -0.4442  1.4947
19032TIP3    H278588   3.994   1.151  16.747  2.4018  0.9868 -1.6014
19033TIP3   OH278589   6.815   5.154   1.790 -0.2934 -0.2888  0.1372
19033TIP3    H178590   6.805   5.119   1.878  1.3147  0.9599  0.8737
19033TIP3    H278591   6.777   5.242   1.795  0.6415  0.1378 -0.1429
19034TIP3   OH278592   3.917   3.884  14.317 -0.0593  0.2586 -0.1076
19034TIP3    H178593   3.983   3.953  14.307 -0.3117  0.5654  0.2881
19034TIP3    H278594   3.936   3.846  14.403  0.9808 -1.1411 -0.9207
19035TIP3   OH278595   4.304   5.436   2.013  0.1766  0.6164 -0.2610
19035TIP3    H178596   4.209   5.431   2.024  0.3995  0.0069  1.9957
19035TIP3    H278597   4.321   5.528   1.994 -0.7126  1.2342  1.6783
19036TIP3   OH278598   4.720   5.663   3.374  0.1488  0.2043 -0.4734
19036TIP3    H178599   4.720   5.652   3.470  0.3072  0.1162 -0.4832
19036TIP3    H278600   4.772   5.742   3.359 -0.9379  0.9487 -0.4079
19037TIP3   OH278601   1.807   3.162  13.522 -0.1978  0.4411 -0.3586
19037TIP3    H178602   1.758   3.084  13.497 -1.0928  1.3833 -1.6881
19037TIP3    H278603   1.888   3.129  13.560 -1.0918 -1.1399  0.2593
19038TIP3   OH278604   6.058   5.553   0.315 -0.5036  0.0678  0.3098
19038TIP3    H178605   6.105   5.481   0.274  3.5149  1.6407  1.6722
19038TIP3    H278606   6.019   5.600   0.242 -1.1762 -2.0583 -0.8004
19039TIP3   OH278607   3.090   1.905   3.046 -0.2876  0.5381  0.4588
19039TIP3    H178608   3.046   1.833   3.001 -0.4910  0.4468  0.8009
19039TIP3    H278609   3.107   1.969   2.978  3.0990 -1.2901 -0.6254
19040TIP3   OH278610   5.654   2.851  14.198  0.0205 -0.3278  0.1556
19040TIP3    H178611   5.583   2.840  14.262  0.6486  0.4684  1.0095
19040TIP3    H278612   5.647   2.942  14.171  1.5481  0.1501  1.2749
19041TIP3   OH278613   1.630   1.789   0.083  0.4744 -0.2477 -0.4588
19041TIP3    H178614   1.683   1.777   0.162  0.0674 -0.8350 -0.2639
19041TIP3    H278615   1.599   1.701   0.061 -0.3938  0.0724 -0.5850
19042TIP3   OH278616   0.630   2.595  11.221  0.4424 -0.2214 -0.1221
19042TIP3    H178617   0.726   2.591  11.217  0.4818  0.5093  0.0881
19042TIP3    H278618   0.611   2.676  11.268 -0.3240  0.6279 -1.8330
19043TIP3   OH278619   4.210   6.674  12.039  0.1777  0.2968 -0.2553
19043TIP3    H178620   4.140   6.701  11.980 -0.7055 -1.2465  0.0454
19043TIP3    H278621   4.170   6.672  12.126  0.0373 -2.2942 -0.3003
19044TIP3   OH278622   2.407   1.537   3.478  0.3176  0.0955 -0.5413
19044TIP3    H178623   2.409   1.600   3.407 -0.0652  0.0750 -0.5720
19044TIP3    H278624   2.490   1.490   3.472 -0.4576 -1.1783 -2.1348
19045TIP3   OH278625   0.362   5.055   0.268 -0.2650  0.0401 -0.2159
19045TIP3    H178626   0.332   4.964   0.263  1.9037 -0.6429 -2.8597
19045TIP3    H278627   0.421   5.056   0.344  0.4596 -1.0753 -0.7258
19046TIP3   OH278628   2.841   6.399   3.121 -0.5934 -0.7988  0.2298
19046TIP3    H178629   2.872   6.474   3.171  0.2955  0.0511 -1.5068
19046TIP3    H278630   2.841   6.429   3.030 -3.0774 -1.9601 -0.2357
19047TIP3   OH278631   6.817   5.696  14.063  0.1901  0.2363 -0.4380
19047TIP3    H178632   6.805   5.684  14.157 -2.5826  2.4486 -0.3902
19047TIP3    H278633   6.896   5.750  14.055 -0.1002  0.8611  0.7167
19048TIP3   OH278634   4.292   1.532   3.238  0.1279 -0.1419  0.6005
19048TIP3    H178635   4.283   1.438   3.252  0.7413 -0.6646 -1.9813
19048TIP3    H278636   4.218   1.571   3.284 -0.6652 -1.9785  0.9482
19049TIP3   OH278637   3.570   1.186  12.486  0.4865 -0.0821  0.4350
19049TIP3    H178638   3.578   1.281  12.497 -0.3714 -0.0703  1.0730
19049TIP3    H278639   3.540   1.154  12.571  1.3170 -1.0075  0.3940
19050TIP3   OH278640   3.953   0.940  15.055  0.2890 -0.1776  0.0437
19050TIP3    H178641   3.929   0.989  15.134 -1.1830  0.4360 -0.7507
19050TIP3    H278642   3.879   0.882  15.040  1.1851 -1.3207 -0.1040
19051TIP3   OH278643   6.614   2.951  16.186 -0.1940 -0.6043 -0.2166
19051TIP3    H178644   6.569   2.904  16.257  0.0464 -2.0978 -1.0181
19051TIP3    H278645   6.702   2.913  16.185 -0.4651 -1.2489 -1.8698
19052TIP3   OH278646   1.319   6.577   0.716 -0.1596 -0.3382  0.0766
19052TIP3    H178647   1.287   6.616   0.797 -1.8686  0.3957 -0.9059
19052TIP3    H278648   1.246   6.525   0.683  0.0309  0.4174 -1.6506
19053TIP3   OH278649   5.221   4.675   2.169  0.0784  0.5304 -0.1740
19053TIP3    H178650   5.300   4.679   2.223 -0.1703 -3.9657  0.9180
19053TIP3    H278651   5.253   4.686   2.080  1.4416  1.8359  0.4326
19054TIP3   OH278652   1.106   5.723  14.220 -0.1706  0.1192  0.2144
19054TIP3    H178653   1.067   5.687  14.300 -1.5594 -0.3030 -0.6147
19054TIP3    H278654   1.145   5.647  14.176 -2.5529 -0.3781 -1.2264
19055TIP3   OH278655   6.377   6.142   3.749 -0.3898  0.0261 -0.8272
19055TIP3    H178656   6.323   6.215   3.781 -1.9020 -2.0379  1.6412
19055TIP3    H278657   6.318   6.094   3.690 -0.6645 -1.1824  0.4008
19056TIP3   OH278658   5.708   3.270   4.045 -0.2319  0.3598  0.3835
19056TIP3    H178659   5.687   3.182   4.014  0.3345  1.0959 -2.2943
19056TIP3    H278660   5.624   3.306   4.076 -1.0444 -0.1228 -1.1926
19057TIP3   OH278661   4.156   4.213  12.818  0.8845 -0.3224 -0.1607
19057TIP3    H178662   4.117   4.177  12.898  1.8603 -0.4997  0.2547
19057TIP3    H278663   4.088   4.205  12.752  0.7789 -2.1764  0.1218
19058TIP3   OH278664   4.883   0.307  11.742 -0.3534  0.0550 -0.1024
19058TIP3    H178665   4.857   0.274  11.656  0.2496  0.4808 -0.4550
19058TIP3    H278666   4.834   0.388  11.752  0.4160  0.5838 -0.5375
19059TIP3   OH278667   4.632   5.841  14.071 -0.1967 -0.0087  0.4727
19059TIP3    H178668   4.633   5.843  14.167  1.3101 -1.4782  0.5421
19059TIP3    H278669   4.682   5.762  14.049 -0.9131  0.0509 -1.5218
19060TIP3   OH278670   4.013   6.684  12.248  0.4733 -0.6975 -0.4970
19060TIP3    H178671   3.960   6.604  12.247  0.3484 -0.6342  0.5146
19060TIP3    H278672   3.957   6.749  12.206 -0.4241 -0.5490  0.8552
19061TIP3   OH278673   5.883   3.560   3.922  0.1639 -0.0584 -0.4861
19061TIP3    H178674   5.815   3.524   3.865  0.5906 -0.1011 -0.9760
19061TIP3    H278675   5.912   3.485   3.974 -1.3809  0.3128  1.0029
19062TIP3   OH278676   1.732   1.518   0.874 -0.1134 -0.0007 -0.5648
19062TIP3    H178677   1.729   1.486   0.784 -1.0219  3.5609 -1.9723
19062TIP3    H278678   1.825   1.527   0.893  0.0934 -0.8750 -1.0855
19063TIP3   OH278679   1.208   5.936   0.073 -0.4322 -0.1577 -0.4411
19063TIP3    H178680   1.132   5.897   0.028 -1.0690  0.2399  0.2599
19063TIP3    H278681   1.266   5.862   0.091 -1.1586 -0.6352 -0.0193
19064TIP3   OH278682   1.277   0.438  11.127  0.2325 -0.1198  0.1143
19064TIP3    H178683   1.326   0.501  11.074 -1.7410  0.6656 -0.9014
19064TIP3    H278684   1.244   0.374  11.063 -0.0005 -0.6726  0.7743
19065TIP3   OH278685   6.322   0.165   0.741  0.2310 -0.1859  0.0672
19065TIP3    H178686   6.325   0.238   0.803 -2.6275  0.1806 -0.0772
19065TIP3    H278687   6.352   0.090   0.792  1.3101  0.7122  0.8196
19066TIP3   OH278688   3.689   3.083   4.861 -0.1556 -0.2144  0.6990
19066TIP3    H178689   3.724   3.167   4.829 -1.6379  0.4814  0.8106
19066TIP3    H278690   3.639   3.106   4.939 -3.0164 -0.6800 -0.8447
19067TIP3   OH278691   4.892   5.384  12.597  0.4467  0.2685 -0.4517
19067TIP3    H178692   4.891   5.288  12.602  1.3695  0.3131  1.5886
19067TIP3    H278693   4.800   5.408  12.586 -0.1234 -0.8097  1.4122
19068TIP3   OH278694   6.804   4.008  14.611  0.0120  0.3288 -0.1331
19068TIP3    H178695   6.900   4.010  14.614  0.0776 -0.8344 -0.9533
19068TIP3    H278696   6.780   4.078  14.550  0.3165  0.7799  0.2576
19069TIP3   OH278697   1.074   6.827   0.704 -0.7229  0.2568 -0.3954
19069TIP3    H178698   1.126   6.904   0.729  1.1762 -0.4731 -1.8205
19069TIP3    H278699   1.064   6.778   0.786  1.3444  0.1863 -0.1283
19070TIP3   OH278700   1.531   1.770  12.099  0.5541 -0.7803 -0.2483
19070TIP3    H178701   1.512   1.691  12.149  1.6532 -1.7414 -1.2953
19070TIP3    H278702   1.540   1.740  12.009  0.0788  0.6915 -0.8155
19071TIP3   OH278703   2.619   0.474   2.038  0.3034  0.3635  0.0233
19071TIP3    H178704   2.552   0.474   1.970  0.7193 -0.0565 -0.3940
19071TIP3    H278705   2.571   0.493   2.119 -0.0358  1.9861 -0.5254
19072TIP3   OH278706   4.792   5.034  12.913  0.8003  0.3669 -0.3695
19072TIP3    H178707   4.715   5.072  12.955  0.9682 -0.3950  0.6641
19072TIP3    H278708   4.805   4.951  12.958  4.0474  1.7829  1.6989
19073TIP3   OH278709   3.546   6.831   4.134 -0.0190  0.3896  0.2475
19073TIP3    H178710   3.493   6.751   4.139 -0.4572  0.6253 -0.3856
19073TIP3    H278711   3.561   6.856   4.225  0.4599 -0.6331  0.4587
19074TIP3   OH278712   5.315   1.524   5.242  0.2318 -0.0386 -0.4655
19074TIP3    H178713   5.325   1.430   5.222  2.1940 -0.0196  0.1985
19074TIP3    H278714   5.238   1.528   5.299  0.3554 -1.2987 -0.1694
19075TIP3   OH278715   0.842   3.921  16.324 -0.2332  0.6219 -0.1188
19075TIP3    H178716   0.937   3.918  16.335  0.4303  2.0583 -3.8421
19075TIP3    H278717   0.807   3.890  16.407  3.4727 -1.4121  0.9290
19076TIP3   OH278718   2.574   3.961   2.155 -0.0425  0.5996 -0.0157
19076TIP3    H178719   2.663   3.973   2.121 -0.8972  1.8013 -1.9935
19076TIP3    H278720   2.586   3.956   2.250  2.2409 -0.5248 -0.2817
19077TIP3   OH278721   3.335   4.189  15.804 -0.1546 -0.2256  0.6814
19077TIP3    H178722   3.355   4.205  15.896  0.6283 -1.8439  0.8387
19077TIP3    H278723   3.253   4.140  15.805 -1.0756  1.2624  0.3875
19078TIP3   OH278724   5.841   2.432   4.954  0.0333  0.6505  0.4230
19078TIP3    H178725   5.889   2.471   4.881  0.7969 -1.3542 -0.2264
19078TIP3    H278726   5.750   2.432   4.926  0.3128 -0.0354 -0.5182
19079TIP3   OH278727   3.166   2.474   4.086  0.4770 -0.1189 -0.1142
19079TIP3    H178728   3.147   2.478   3.992 -0.0886  1.0951  0.0307
19079TIP3    H278729   3.260   2.487   4.092  0.8057 -1.9393 -0.5922
19080TIP3   OH278730   5.851   3.594  17.119 -0.2767 -0.2443 -0.2074
19080TIP3    H178731   5.925   3.569  17.064 -0.7461 -2.5065  0.0814
19080TIP3    H278732   5.829   3.515  17.168 -0.6032  1.3590  2.4404
19081TIP3   OH278733   6.597   2.460  13.444 -0.1926 -0.0185 -0.1795
19081TIP3    H178734   6.568   2.533  13.388 -2.6703 -1.0482 -0.3505
19081TIP3    H278735   6.566   2.382  13.399  3.1568 -1.3392 -0.4344
19082TIP3   OH278736   4.012   2.158  14.247 -0.7610  0.1498 -0.4908
19082TIP3    H178737   3.981   2.135  14.335  2.4350  1.3046  1.0911
19082TIP3    H278738   3.935   2.194  14.204 -2.3398  0.0457  2.0159
19083TIP3   OH278739   1.294   5.746  12.437 -0.2463  0.1560 -0.3734
19083TIP3    H178740   1.267   5.788  12.356  1.6032 -1.6556 -2.0497
19083TIP3    H278741   1.378   5.788  12.458 -0.5217  0.3328  0.4061
19084TIP3   OH278742   1.593   2.802   5.253  0.2351 -0.0526 -0.5957
19084TIP3    H178743   1.535   2.875   5.274 -1.7201 -0.8181 -2.9142
19084TIP3    H278744   1.624   2.771   5.339 -1.0327  1.7754  0.5923
19085TIP3   OH278745   5.305   0.183   1.094 -0.2318 -0.0448  0.0677
19085TIP3    H178746   5.366   0.145   1.031  0.1768 -1.3608  1.2129
19085TIP3    H278747   5.251   0.243   1.042 -1.4246 -2.7516 -2.0397
19086TIP3   OH278748   3.481   0.610  12.651  0.1670  0.5363  0.4183
19086TIP3    H178749   3.420   0.580  12.718 -1.1581 -0.2309 -1.0554
19086TIP3    H278750   3.522   0.530  12.618 -1.1719  0.5655 -1.4711
19087TIP3   OH278751   6.292   1.044  13.762 -0.5759  0.3229  0.0349
19087TIP3    H178752   6.263   1.084  13.844 -1.3386 -1.5374  0.7171
19087TIP3    H278753   6.215   1.047  13.705 -0.7986 -0.5528  0.2663
19088TIP3   OH278754   0.954   2.173   5.691  0.7190 -0.3401  0.1303
19088TIP3    H178755   0.927   2.126   5.770  1.8095 -0.4688  0.4402
19088TIP3    H278756   0.902   2.133   5.621 -0.4126 -0.0727  0.7996
19089TIP3   OH278757   4.984   0.231  15.732  0.1592  0.1022  0.3401
19089TIP3    H178758   4.962   0.192  15.817 -0.7409 -0.0918  0.0358
19089TIP3    H278759   4.929   0.184  15.670  0.9454  0.1203 -0.3801
19090TIP3   OH278760   3.939   4.367   0.184  0.1166 -0.9636 -0.2730
19090TIP3    H178761   3.887   4.371   0.104 -1.2376 -0.4324  0.6063
19090TIP3    H278762   3.994   4.289   0.173 -0.4246 -1.1885 -1.4940
19091TIP3   OH278763   0.621   0.074   5.019 -0.7937  0.7216 -0.3257
19091TIP3    H178764   0.591   0.155   5.060 -0.2696  1.0198 -0.5112
19091TIP3    H278765   0.619   0.092   4.925 -0.5940  0.5506 -0.3652
19092TIP3   OH278766   6.649   5.773   2.406  0.0334 -0.2504 -0.4526
19092TIP3    H178767   6.711   5.745   2.473  0.4577 -0.4080 -0.9048
19092TIP3    H278768   6.662   5.712   2.334 -0.4560 -0.1144 -0.6609
19093TIP3   OH278769   4.501   0.070  16.369  0.4536 -0.1007  0.1033
19093TIP3    H178770   4.534   0.023  16.446  0.5474  0.6155  0.4993
19093TIP3    H278771   4.515   0.162  16.388  1.7605  0.0498 -1.3381
19094TIP3   OH278772   3.839   1.078  14.791 -0.0426  0.9532 -0.0785
19094TIP3    H178773   3.877   1.138  14.855 -0.4200  1.8946 -0.7096
19094TIP3    H278774   3.755   1.050  14.829  0.8846 -0.5381  0.9771
19095TIP3   OH278775   3.754   0.849  11.477 -0.4655  0.0678 -0.0488
19095TIP3    H178776   3.834   0.894  11.506 -0.9031  0.2306  0.9524
19095TIP3    H278777   3.685   0.884  11.534 -1.2790  0.0186 -0.9871
19096TIP3   OH278778   6.652   2.054   6.501  0.0280  0.6737  0.3797
19096TIP3    H178779   6.620   2.068   6.590 -0.0466 -0.9031  0.6232
19096TIP3    H278780   6.700   1.971   6.505 -0.5057  0.2516 -1.1713
19097TIP3   OH278781   3.102   0.275  17.028  0.7265  0.1266  0.2428
19097TIP3    H178782   3.050   0.198  17.003  0.1125  0.4913  0.3683
19097TIP3    H278783   3.074   0.343  16.967  1.4177  0.2045  0.0001
19098TIP3   OH278784   2.409   6.527  17.087  0.0242  0.6104 -0.0919
19098TIP3    H178785   2.461   6.448  17.101 -0.2285  0.4539 -0.0261
19098TIP3    H278786   2.441   6.589  17.153  0.1895  0.5475 -0.1127
19099TIP3   OH278787   4.874   4.892  16.669 -0.3813 -0.0415 -0.0758
19099TIP3    H178788   4.875   4.827  16.739  0.1662  0.3775  0.3200
19099TIP3    H278789   4.829   4.967  16.708 -2.3096 -0.6630 -0.9979
19100TIP3   OH278790   1.393   4.799  11.257  0.1549 -0.2958  0.3982
19100TIP3    H178791   1.409   4.863  11.326  1.5231 -0.0152 -0.1460
19100TIP3    H278792   1.299   4.782  11.261 -0.2462  1.7190  0.5834
19101TIP3   OH278793   3.919   1.516   1.673  0.0755 -0.1681  0.1874
19101TIP3    H178794   3.824   1.510   1.664 -0.1272 -0.9200  2.2928
19101TIP3    H278795   3.934   1.599   1.718  0.5410  0.4928 -1.1251
19102TIP3   OH278796   0.006   2.661   2.386  0.0602  0.9232  0.2418
19102TIP3    H178797   0.075   2.649   2.452 -0.2173 -1.0588  0.2546
19102TIP3    H278798  -0.069   2.613   2.421  0.3751 -1.5533 -2.1249
19103TIP3   OH278799   2.733   5.735  13.617 -0.1993 -0.1253  0.1705
19103TIP3    H178800   2.725   5.725  13.522  0.1727  0.8974  0.0181
19103TIP3    H278801   2.798   5.803  13.628 -0.4898  0.0045  1.1635
19104TIP3   OH278802   5.083   2.968   5.418 -0.0875 -0.1848  0.2587
19104TIP3    H178803   5.035   2.901   5.466 -0.8287  0.1233 -0.0342
19104TIP3    H278804   5.119   2.923   5.342  0.1260 -0.4248  0.4992
19105TIP3   OH278805   0.898   0.031   1.701 -0.2221  0.4018 -0.0620
19105TIP3    H178806   0.967  -0.035   1.709  0.6753  1.1880 -1.1358
19105TIP3    H278807   0.910   0.088   1.777 -0.5502 -0.2279  0.4787
19106TIP3   OH278808   3.187   1.685  12.348  0.5605  0.4281  0.2339
19106TIP3    H178809   3.109   1.673  12.402  0.7018 -0.6195  0.2203
19106TIP3    H278810   3.187   1.611  12.288  1.6639  0.3154  0.3520
19107TIP3   OH278811   1.328   5.697  15.081 -0.1277  0.0924 -0.3260
19107TIP3    H178812   1.275   5.773  15.105 -0.7398 -0.7897  1.3048
19107TIP3    H278813   1.269   5.640  15.033  0.5413  0.9245 -2.2581
19108TIP3   OH278814   5.068   6.186   5.575  0.4535 -0.2372  0.0763
19108TIP3    H178815   5.124   6.118   5.614 -0.3478 -1.0950 -0.2369
19108TIP3    H278816   5.017   6.221   5.648 -0.4957 -1.3078 -0.0552
19109TIP3   OH278817   4.085   6.023  14.481  0.2014 -0.0969 -0.0866
19109TIP3    H178818   3.991   6.006  14.482 -0.0518  1.0629 -1.4049
19109TIP3    H278819   4.101   6.072  14.562 -0.8744  2.1342 -1.1173
19110TIP3   OH278820   3.809   3.643   0.011 -0.7140  0.0745  0.7177
19110TIP3    H178821   3.878   3.602  -0.042 -0.9667  0.6907 -0.1095
19110TIP3    H278822   3.774   3.572   0.064  0.5168 -0.2661  1.0996
19111TIP3   OH278823   5.418   5.436   3.657  0.1615 -0.2521  0.8806
19111TIP3    H178824   5.496   5.399   3.615  1.3328  2.8407  0.0985
19111TIP3    H278825   5.435   5.428   3.751  0.4963 -1.3379  0.7461
19112TIP3   OH278826   2.079   3.279  11.067 -0.3758 -0.1490  0.3631
19112TIP3    H178827   2.105   3.254  11.156  1.9741  0.5862 -0.0407
19112TIP3    H278828   2.114   3.367  11.056  0.1390 -0.5581 -1.5738
19113TIP3   OH278829   5.261   0.334  12.422  0.3564 -0.0113 -0.0293
19113TIP3    H178830   5.276   0.422  12.387 -0.2807  0.2570  0.3550
19113TIP3    H278831   5.167   0.322  12.415  0.4450 -0.6706 -0.0856
19114TIP3   OH278832   5.314   0.577  15.583  0.5840 -0.5676 -0.3774
19114TIP3    H178833   5.362   0.535  15.512  2.8363 -0.9535  1.2698
19114TIP3    H278834   5.382   0.612  15.641 -1.1426 -0.2779  1.5976
19115TIP3   OH278835   6.428   5.822   1.086  0.3587  0.0298  0.3784
19115TIP3    H178836   6.341   5.821   1.126 -0.3620 -1.3750 -1.1045
19115TIP3    H278837   6.487   5.798   1.157 -0.8292 -2.0168  0.7550
19116TIP3   OH278838   0.161   1.696  13.963 -0.5697  0.1016 -0.1244
19116TIP3    H178839   0.108   1.733  13.892 -2.0709 -0.3299  0.7258
19116TIP3    H278840   0.125   1.608  13.976  0.6198 -0.3476  0.2412
19117TIP3   OH278841   1.246   3.684  16.090 -0.4999  0.1768 -0.2363
19117TIP3    H178842   1.209   3.744  16.024 -0.2033 -1.1523 -1.6664
19117TIP3    H278843   1.247   3.599  16.047  1.1788 -0.4490  0.9399
19118TIP3   OH278844   6.169   2.682   6.263  0.4285 -0.4701 -0.0888
19118TIP3    H178845   6.172   2.588   6.280 -0.5518 -0.1959  1.9454
19118TIP3    H278846   6.101   2.715   6.322  1.2575  1.6241 -0.2136
19119TIP3   OH278847   4.841   2.070  10.272  0.4195 -0.0631  0.3979
19119TIP3    H178848   4.781   2.143  10.288  1.9283  1.5267 -0.8108
19119TIP3    H278849   4.884   2.055  10.356  0.9109  1.2607  0.4127
19120TIP3   OH278850   6.391   5.166  11.223  0.3035 -0.1960  0.1496
19120TIP3    H178851   6.354   5.078  11.219  1.0610 -0.5387  0.4330
19120TIP3    H278852   6.317   5.224  11.207 -0.3714 -0.8519  0.7981
19121TIP3   OH278853   6.743   6.639  11.390 -0.1472 -0.3689  0.1903
19121TIP3    H178854   6.822   6.689  11.370 -0.1550 -0.8893 -1.3090
19121TIP3    H278855   6.768   6.582  11.462  0.7949 -0.3625 -0.1150
19122TIP3   OH278856   1.973   6.787   1.379 -0.3016  0.1873  0.1440
19122TIP3    H178857   1.980   6.717   1.444  0.5847 -1.2823 -1.4172
19122TIP3    H278858   2.062   6.821   1.370 -0.6237  1.1426  0.4746
19123TIP3   OH278859   4.468   1.062  11.826  0.4498  0.0869  0.3623
19123TIP3    H178860   4.548   1.027  11.865  0.4774 -1.5452 -1.0457
19123TIP3    H278861   4.398   1.015  11.870  0.4948 -2.1058 -1.7022
19124TIP3   OH278862   0.905   6.068   3.444  0.1146 -0.1296 -0.6432
19124TIP3    H178863   0.881   6.131   3.377 -2.9171  0.0394  0.4031
19124TIP3    H278864   0.988   6.099   3.479  0.3736  1.3291 -2.4417
19125TIP3   OH278865   1.812   5.595  15.347  0.3954  0.3701 -0.0265
19125TIP3    H178866   1.741   5.566  15.405 -0.1400  2.5011  0.4741
19125TIP3    H278867   1.883   5.533  15.364 -0.6887 -0.6656  0.9034
19126TIP3   OH278868   3.229   1.222  10.513  0.0605  0.1248 -0.3456
19126TIP3    H178869   3.241   1.166  10.436  0.4781  0.2828 -0.3990
19126TIP3    H278870   3.227   1.311  10.478  2.2107  0.3632 -0.0118
19127TIP3   OH278871   4.527   1.826   5.112  0.3209  0.1080  0.6284
19127TIP3    H178872   4.607   1.863   5.147  0.9750 -0.5772 -0.0988
19127TIP3    H278873   4.548   1.734   5.095 -1.4913 -0.8716  3.1448
19128TIP3   OH278874   3.344   1.275   3.550  0.3483 -0.2762 -0.3091
19128TIP3    H178875   3.293   1.196   3.571  0.2229 -0.3630 -0.9259
19128TIP3    H278876   3.433   1.243   3.538  0.3934 -0.2479 -0.0455
19129TIP3   OH278877   5.636   2.006   4.162  0.2242 -0.7639 -0.0469
19129TIP3    H178878   5.723   1.977   4.190  0.2649 -2.4410 -1.7486
19129TIP3    H278879   5.604   2.059   4.235  2.7020  0.0032  0.5797
19130TIP3   OH278880   6.647   1.813   0.673 -0.1291 -0.4906  0.5947
19130TIP3    H178881   6.630   1.904   0.649 -0.6918 -0.7557 -0.0565
19130TIP3    H278882   6.707   1.781   0.605 -0.0136 -0.6324  0.7625
19131TIP3   OH278883   3.002   4.662   0.851 -0.2043  0.1046 -0.8142
19131TIP3    H178884   3.075   4.605   0.828 -1.0464 -0.7345 -1.4817
19131TIP3    H278885   3.028   4.702   0.934  0.2066 -1.6364 -0.0577
19132TIP3   OH278886   6.714   2.046   5.899 -0.0513  0.0020 -0.2878
19132TIP3    H178887   6.688   1.954   5.910 -1.2038  0.4404  0.9386
19132TIP3    H278888   6.799   2.042   5.855  0.5946 -1.7141  1.0169
19133TIP3   OH278889   6.003   3.555  13.114  0.4574  0.1847  0.2539
19133TIP3    H178890   5.981   3.474  13.160 -0.1054  1.4004  2.2415
19133TIP3    H278891   6.065   3.528  13.046  1.3060 -1.7280  1.6927
19134TIP3   OH278892   6.165   4.496   1.690  0.6750 -0.1102  0.1191
19134TIP3    H178893   6.107   4.514   1.764 -0.1619  1.7902 -0.9339
19134TIP3    H278894   6.241   4.552   1.704  1.8299 -1.7608  0.8959
19135TIP3   OH278895   0.318   2.265   3.624 -0.3994 -0.3217  0.1900
19135TIP3    H178896   0.366   2.191   3.586  0.8006  0.5713 -0.0550
19135TIP3    H278897   0.245   2.224   3.670  0.0358 -1.6420 -0.2513
19136TIP3   OH278898   1.267   0.495  14.156 -0.2653 -0.1097 -1.0504
19136TIP3    H178899   1.233   0.581  14.179  2.7733  0.6374  1.3910
19136TIP3    H278900   1.310   0.507  14.071 -1.1488  0.3734 -1.4343
19137TIP3   OH278901   1.492   4.119  12.480 -0.0629 -0.1938 -0.3082
19137TIP3    H178902   1.526   4.053  12.419 -2.0708 -1.2871 -0.3312
19137TIP3    H278903   1.502   4.079  12.567  1.4270  0.7469 -0.0079
19138TIP3   OH278904   4.792   2.924   1.005  0.1342  0.1588  0.2676
19138TIP3    H178905   4.793   3.020   1.014  0.5735  0.1262  0.6097
19138TIP3    H278906   4.711   2.906   0.956 -1.2292  0.5327  2.2449
19139TIP3   OH278907   4.642   5.540  11.970  0.3338 -0.4268  0.1017
19139TIP3    H178908   4.549   5.518  11.979 -0.0767  1.7546  1.8931
19139TIP3    H278909   4.646   5.601  11.897  0.5443 -1.2635 -0.6101
19140TIP3   OH278910   3.243   0.733   2.501  0.1927 -0.5618 -0.1605
19140TIP3    H178911   3.305   0.662   2.483  1.0711 -0.4706  2.1403
19140TIP3    H278912   3.297   0.804   2.536 -0.8848  0.6365 -0.8188
19141TIP3   OH278913   2.268   4.044  16.970  0.0448  0.1066  0.3024
19141TIP3    H178914   2.286   4.071  17.060 -1.2149  0.8624  0.3568
19141TIP3    H278915   2.184   4.085  16.949 -0.3327 -1.1288 -0.7730
19142TIP3   OH278916   5.155   2.084  16.107 -0.5379  0.6445  0.3530
19142TIP3    H178917   5.161   2.142  16.031  0.0167  1.0657  0.7196
19142TIP3    H278918   5.161   2.142  16.183  0.5770  0.0674  0.7254
19143TIP3   OH278919   1.002   2.533   1.457  0.3134 -0.3296 -0.0558
19143TIP3    H178920   1.072   2.599   1.451 -0.4586  0.4232 -1.9300
19143TIP3    H278921   1.038   2.456   1.412 -0.2062  0.2617 -1.5695
19144TIP3   OH278922   4.712   0.082  14.219 -0.3087  0.0884  0.8528
19144TIP3    H178923   4.746   0.136  14.148 -0.8281  0.3631  0.8125
19144TIP3    H278924   4.767   0.003  14.217 -0.2528  0.1398  0.2139
19145TIP3   OH278925   5.335   6.672  16.881  0.0367 -0.8325 -0.2565
19145TIP3    H178926   5.426   6.646  16.867  0.0830  0.1332 -2.1302
19145TIP3    H278927   5.288   6.633  16.807 -0.7194  0.2822 -0.3876
19146TIP3   OH278928   5.188   0.774  12.563  0.1744 -0.5267 -0.4571
19146TIP3    H178929   5.095   0.781  12.539 -0.3040 -5.6216 -1.1587
19146TIP3    H278930   5.194   0.819  12.648 -3.1139 -0.6632 -0.0125
19147TIP3   OH278931   2.742   4.680   3.579  0.2026  0.4567 -0.1773
19147TIP3    H178932   2.704   4.713   3.498 -0.9987 -1.8265 -0.6353
19147TIP3    H278933   2.824   4.639   3.552 -0.7728 -1.3727 -0.5058
19148TIP3   OH278934   2.532   3.572  11.283  0.4522  0.2746 -0.4180
19148TIP3    H178935   2.516   3.483  11.251 -0.9388  0.4192 -0.2217
19148TIP3    H278936   2.469   3.626  11.234  1.8787  1.2975 -1.1753
19149TIP3   OH278937   4.937   4.045  11.210 -0.7717 -0.2560  0.2093
19149TIP3    H178938   4.867   4.099  11.245 -1.6665  0.4341 -2.4355
19149TIP3    H278939   4.966   4.091  11.131 -0.1719 -2.6075 -1.0198
19150TIP3   OH278940   2.515   5.519  14.800 -0.6995  0.9206  0.3828
19150TIP3    H178941   2.506   5.535  14.894  0.4060  0.7710  0.5255
19150TIP3    H278942   2.610   5.516  14.785 -0.8621  1.2687 -0.7953
19151TIP3   OH278943   0.348   3.053   2.204  0.2754  0.1085  0.7438
19151TIP3    H178944   0.285   3.117   2.172  1.5274  0.5004 -1.0592
19151TIP3    H278945   0.314   2.969   2.174  0.8839  0.3754 -0.7846
19152TIP3   OH278946   2.674   1.296   4.188  0.2931  0.5729 -0.1567
19152TIP3    H178947   2.653   1.225   4.128 -0.8874  1.6665 -1.0961
19152TIP3    H278948   2.598   1.354   4.185  2.0326  3.0245 -1.1648
19153TIP3   OH278949   3.008   2.749   1.164 -0.3375 -0.5518 -0.6486
19153TIP3    H178950   2.967   2.706   1.239 -0.2468  0.8161  0.2161
19153TIP3    H278951   2.948   2.733   1.091 -2.4284  1.2554  0.5388
19154TIP3   OH278952   4.820   0.827  13.470  0.4130 -0.5192  0.0787
19154TIP3    H178953   4.809   0.736  13.499  1.3922 -0.2384  1.4209
19154TIP3    H278954   4.732   0.864  13.477  0.2673 -0.9834  0.9253
19155TIP3   OH278955   5.980   3.496  11.128 -0.3546  0.8805 -0.3983
19155TIP3    H178956   5.930   3.577  11.120  0.0413  1.0392 -1.3138
19155TIP3    H278957   6.038   3.495  11.052 -1.8619 -1.3041 -1.6301
19156TIP3   OH278958   5.222   6.511  16.661  0.2528  0.5565 -0.0235
19156TIP3    H178959   5.300   6.463  16.632  0.7184  0.4856  1.2838
19156TIP3    H278960   5.186   6.457  16.731  0.9250  2.1978  1.6608
19157TIP3   OH278961   1.788   3.111  13.795  0.3889 -0.4068 -0.0534
19157TIP3    H178962   1.867   3.070  13.829 -0.3377 -0.7937  1.2575
19157TIP3    H278963   1.764   3.175  13.862 -0.6484 -0.6023 -0.2253
19158TIP3   OH278964   5.834   4.549   5.577 -0.6029  0.0998  0.5717
19158TIP3    H178965   5.742   4.546   5.601 -0.2438  0.2552  2.1020
19158TIP3    H278966   5.879   4.507   5.651  0.4667 -1.0094 -0.6643
19159TIP3   OH278967   5.983   2.421  16.258  0.0666  0.3528 -0.4916
19159TIP3    H178968   5.900   2.458  16.229 -1.1633 -0.0240  2.2014
19159TIP3    H278969   5.962   2.331  16.283  0.5956  0.9365  2.5065
19160TIP3   OH278970   1.447   2.456  10.235 -0.4506  0.5544  0.1075
19160TIP3    H178971   1.380   2.508  10.279 -0.4803  0.7466 -0.1633
19160TIP3    H278972   1.523   2.514  10.230 -0.8939  1.0470 -1.3628
19161TIP3   OH278973   0.972   5.885   4.600 -0.2393  0.2284  0.6179
19161TIP3    H178974   1.029   5.887   4.523 -0.5689  0.0914  0.3641
19161TIP3    H278975   0.888   5.920   4.568 -2.3135 -4.9920 -0.7288
19162TIP3   OH278976   3.643   4.901   3.611 -0.4534 -0.0138 -0.5189
19162TIP3    H178977   3.651   4.866   3.700 -0.3752 -1.6116 -1.1273
19162TIP3    H278978   3.704   4.974   3.609 -0.8480  0.3931  0.9035
19163TIP3   OH278979   2.205   5.407   3.293 -0.3504 -0.0282  0.0638
19163TIP3    H178980   2.214   5.499   3.269 -0.2193  0.0476  0.4000
19163TIP3    H278981   2.223   5.359   3.212 -1.5871  0.2748 -0.4035
19164TIP3   OH278982   0.544   3.563  15.339 -0.8637  0.2990  0.0962
19164TIP3    H178983   0.516   3.653  15.355 -0.7192  0.2190  0.8545
19164TIP3    H278984   0.613   3.548  15.403  1.6375  0.7898 -2.3167
19165TIP3   OH278985   5.223   6.461   1.677 -0.6440  0.0171  0.3059
19165TIP3    H178986   5.224   6.543   1.727  1.5886 -0.0265  0.4105
19165TIP3    H278987   5.269   6.399   1.733 -2.3278 -1.3686  0.2336
19166TIP3   OH278988   5.625   0.353   2.807 -0.0640  0.4300 -0.3281
19166TIP3    H178989   5.607   0.260   2.794  2.3508 -0.1733  0.3041
19166TIP3    H278990   5.555   0.382   2.866  0.6555 -1.6614  1.7094
19167TIP3   OH278991   6.474   5.626  14.926 -0.0966 -0.0089 -0.4473
19167TIP3    H178992   6.454   5.717  14.947 -2.0459 -0.7132  1.0104
19167TIP3    H278993   6.389   5.582  14.925  0.9133 -2.1309  0.5733
19168TIP3   OH278994   6.736   4.445  13.165 -0.5108  0.3882 -0.5666
19168TIP3    H178995   6.778   4.529  13.149  1.6042 -0.5004 -0.0538
19168TIP3    H278996   6.722   4.408  13.078 -1.3549  1.1972 -0.7902
19169TIP3   OH278997   5.840   0.784  12.153 -0.1971  0.3300 -0.0641
19169TIP3    H178998   5.925   0.762  12.191 -0.5066  0.5608  0.7872
19169TIP3    H278999   5.850   0.766  12.060  1.1306  1.4216 -0.1608
19170TIP3   OH279000   0.332   1.121   4.221  0.4642 -0.0747  0.2548
19170TIP3    H179001   0.422   1.092   4.236 -0.0521 -1.2333  1.2673
19170TIP3    H279002   0.298   1.138   4.309  0.3100  2.4187 -0.2046
19171TIP3   OH279003   4.733   2.821   3.097 -0.1540  0.4656  0.2600
19171TIP3    H179004   4.791   2.814   3.173 -1.1444  0.3683  1.0194
19171TIP3    H279005   4.782   2.877   3.036  1.0144 -0.1323  0.6053
19172TIP3   OH279006   5.741   1.980  10.939  0.1843  0.1149 -0.0964
19172TIP3    H179007   5.762   2.068  10.907 -0.0502 -0.2908 -1.4474
19172TIP3    H279008   5.812   1.958  10.998 -0.7757  1.9936  1.8976
19173TIP3   OH279009   5.442   0.208  12.950  0.1516  0.0431 -0.4821
19173TIP3    H179010   5.533   0.227  12.929  0.1724 -0.1058 -0.5276
19173TIP3    H279011   5.430   0.242  13.038  0.6544 -1.2332  0.0932
19174TIP3   OH279012   6.662   5.923   0.842 -0.5661 -0.1078 -0.0638
19174TIP3    H179013   6.567   5.926   0.852 -0.6548 -0.0842 -0.8576
19174TIP3    H279014   6.676   5.891   0.753  0.1643  0.4267 -0.1551
19175TIP3   OH279015   2.546   0.176   5.335 -0.2164 -0.0369  0.2798
19175TIP3    H179016   2.533   0.117   5.409  2.1880 -1.0556 -0.0082
19175TIP3    H279017   2.637   0.204   5.342 -1.0894  3.3292  0.0931
19176TIP3   OH279018   1.229   5.419   1.451 -0.3729  0.5794  0.3310
19176TIP3    H179019   1.226   5.512   1.428  0.8852  0.7018  0.5899
19176TIP3    H279020   1.321   5.394   1.438 -0.7450 -0.6977  0.0082
19177TIP3   OH279021   2.181   0.101   5.191  0.3073 -0.3049  0.7193
19177TIP3    H179022   2.129   0.033   5.234 -2.5568  0.4751 -1.2625
19177TIP3    H279023   2.214   0.059   5.111 -1.1100  0.4302 -0.2919
19178TIP3   OH279024   4.111   4.595   0.213  0.4532  0.2889  0.2032
19178TIP3    H179025   4.050   4.522   0.208  0.4482  0.1990  1.3618
19178TIP3    H279026   4.194   4.559   0.181 -0.0014  0.3203 -1.0504
19179TIP3   OH279027   0.301   3.406  16.636 -0.6151  0.4113 -0.5067
19179TIP3    H179028   0.336   3.468  16.700  1.0456  1.6444 -2.5076
19179TIP3    H279029   0.247   3.459  16.578 -1.0881 -0.4722 -0.9005
19180TIP3   OH279030   3.501   5.217  12.174 -0.1588 -0.0596 -0.5616
19180TIP3    H179031   3.449   5.290  12.143 -0.8905 -0.5554 -0.5095
19180TIP3    H279032   3.454   5.139  12.145  0.9988 -0.5294 -1.2760
19181TIP3   OH279033   1.178   1.385  15.065 -0.1792  0.8524  0.6778
19181TIP3    H179034   1.228   1.441  15.006 -0.4748  0.5428  0.1222
19181TIP3    H279035   1.117   1.338  15.008  1.5843 -1.7315  0.7759
19182TIP3   OH279036   6.687   1.167  15.559  0.1322  0.1076 -0.0838
19182TIP3    H179037   6.683   1.083  15.604  0.5350  0.0866 -0.0796
19182TIP3    H279038   6.776   1.199  15.576  0.0384  0.4532 -0.2282
19183TIP3   OH279039   2.255   4.889   6.180  0.0029  0.3565 -0.0214
19183TIP3    H179040   2.204   4.822   6.225  0.2237 -0.1449 -0.5054
19183TIP3    H279041   2.284   4.847   6.099  4.3116 -0.7098  1.8059
19184TIP3   OH279042   0.121   0.246   2.383 -0.1587  0.3140 -0.2230
19184TIP3    H179043   0.179   0.239   2.307 -0.0466 -2.2230 -0.0035
19184TIP3    H279044   0.168   0.303   2.444  1.4945 -0.5768 -0.5982
19185TIP3   OH279045   6.375   2.717  14.113 -0.4530 -0.0418 -0.5376
19185TIP3    H179046   6.345   2.647  14.170  0.8340 -1.0433 -1.0230
19185TIP3    H279047   6.341   2.693  14.026  0.9763 -0.7631 -0.9379
19186TIP3   OH279048   3.598   2.919  13.716 -0.0163  0.1917  0.3231
19186TIP3    H179049   3.677   2.957  13.677  1.3310 -2.2093  0.5309
19186TIP3    H279050   3.593   2.831  13.679 -1.8907 -0.1600  1.3077
19187TIP3   OH279051   1.140   6.243   0.701 -0.4643  0.5772 -0.4531
19187TIP3    H179052   1.170   6.259   0.790 -0.7154 -0.4148 -0.1738
19187TIP3    H279053   1.076   6.172   0.709 -1.3640  1.2508 -1.2807
19188TIP3   OH279054   6.251   2.011  11.530 -0.4644 -0.2835  0.1449
19188TIP3    H179055   6.161   2.042  11.521  0.0460  0.9339 -1.0483
19188TIP3    H279056   6.296   2.078  11.581  0.4554  0.6658 -1.7977
19189TIP3   OH279057   1.507   1.794   4.835  0.0538 -0.3237  0.3537
19189TIP3    H179058   1.568   1.865   4.817  1.0087 -0.2938  3.1107
19189TIP3    H279059   1.562   1.715   4.838 -0.7268 -0.9571 -1.0176
19190TIP3   OH279060   2.432   4.311  13.068  0.0240 -0.6925 -0.1416
19190TIP3    H179061   2.355   4.312  13.010 -0.0516  0.0381 -0.0442
19190TIP3    H279062   2.500   4.356  13.017  0.1507 -0.6382  0.0757
19191TIP3   OH279063   0.232   6.789   0.795  0.0047 -0.0569 -0.1641
19191TIP3    H179064   0.269   6.868   0.835 -1.1317 -0.4546  1.7969
19191TIP3    H279065   0.309   6.737   0.771  0.7958  0.0549  1.9178
19192TIP3   OH279066   0.150   1.077  11.570 -0.0198  0.2670  0.2796
19192TIP3    H179067   0.092   1.069  11.645  0.7170  1.6418  1.0253
19192TIP3    H279068   0.176   1.169  11.569  3.1213 -0.4966  0.7443
19193TIP3   OH279069   2.924   1.967  10.954 -0.0985  0.1940 -0.9808
19193TIP3    H179070   2.912   1.875  10.929  1.2381 -0.5291  0.7824
19193TIP3    H279071   2.977   2.004  10.883  0.5406 -0.7976 -1.0459
19194TIP3   OH279072   0.080   2.572  13.293 -0.0924 -0.2662 -0.2535
19194TIP3    H179073   0.162   2.560  13.244 -0.1108  0.3402 -0.4434
19194TIP3    H279074   0.014   2.528  13.239  0.3128 -2.0046  0.5987
19195TIP3   OH279075   3.999   2.753  14.643 -0.1298 -0.0265  0.1067
19195TIP3    H179076   4.029   2.838  14.611 -0.7087  0.4909  0.9152
19195TIP3    H279077   4.006   2.695  14.567  1.4186  0.4434 -0.1475
19196TIP3   OH279078   5.912   5.403   6.167  0.5200 -0.7594  0.1831
19196TIP3    H179079   5.947   5.465   6.230 -1.9498  2.1125 -1.0055
19196TIP3    H279080   5.862   5.340   6.219 -2.4925  2.2346  1.2788
19197TIP3   OH279081   4.651   0.347   6.686 -0.3473 -0.1185  0.5848
19197TIP3    H179082   4.740   0.374   6.710 -0.2562  0.8317 -0.6768
19197TIP3    H279083   4.663   0.264   6.639  0.2584  1.3013 -1.9865
19198TIP3   OH279084   4.928   1.005  12.015  0.2491 -0.5482  0.0124
19198TIP3    H179085   4.971   1.081  11.976 -0.3955 -0.2089 -0.0517
19198TIP3    H279086   4.998   0.941  12.027  0.5046 -0.6430 -1.6522
19199TIP3   OH279087   3.747   4.314   2.171 -0.3955  0.1369 -0.3962
19199TIP3    H179088   3.676   4.258   2.204 -0.6808 -0.3361 -1.7284
19199TIP3    H279089   3.827   4.265   2.187 -0.2998  0.7992  1.3836
19200TIP3   OH279090   6.701   2.987   0.500  0.2936 -0.3768 -0.4442
19200TIP3    H179091   6.670   2.931   0.430  0.3914 -0.6333 -0.2835
19200TIP3    H279092   6.676   3.076   0.473 -1.3483 -0.6376  0.0725
19201TIP3   OH279093   5.608   1.944   4.609  0.0973 -0.3129 -0.1750
19201TIP3    H179094   5.522   1.947   4.650  0.2754  0.4359  0.1593
19201TIP3    H279095   5.591   1.961   4.516 -0.2091 -1.1172 -0.2721
19202TIP3   OH279096   3.927   3.215  15.419  0.1278 -0.1041  0.2595
19202TIP3    H179097   3.973   3.296  15.398 -2.8013  1.2154 -1.7089
19202TIP3    H279098   3.964   3.150  15.359  0.1993  0.6088 -0.4805
19203TIP3   OH279099   3.542   4.570   1.299  0.1581 -0.1062 -0.2758
19203TIP3    H179100   3.547   4.490   1.352 -2.2799 -0.1996 -0.0946
19203TIP3    H279101   3.543   4.539   1.209 -1.0811 -0.3974 -0.2050
19204TIP3   OH279102   0.866   2.959  16.958  0.4363  0.2297  0.2212
19204TIP3    H179103   0.793   2.899  16.975 -1.1071  1.8370 -0.4242
19204TIP3    H279104   0.848   2.993  16.871  1.5720  1.2153  0.3567
19205TIP3   OH279105   3.202   4.131   0.484 -0.2739 -0.4103  0.4695
19205TIP3    H179106   3.279   4.091   0.443 -0.6450 -0.7207  0.0734
19205TIP3    H279107   3.165   4.061   0.538 -0.7784 -0.5230 -0.0219
19206TIP3   OH279108   2.866   3.882   0.191  0.0042  0.1666  0.6454
19206TIP3    H179109   2.807   3.848   0.258 -0.7676 -3.5830 -1.5923
19206TIP3    H279110   2.811   3.937   0.136 -0.5855 -0.5997  0.4546
19207TIP3   OH279111   5.851   1.828   0.492  0.5154 -0.1633  0.7888
19207TIP3    H179112   5.863   1.754   0.551 -1.8339 -3.0445 -1.9266
19207TIP3    H279113   5.925   1.823   0.432 -1.4855 -3.1197 -1.7892
19208TIP3   OH279114   3.682   5.845   5.183  0.3364  1.1958  0.1704
19208TIP3    H179115   3.604   5.862   5.236 -0.3797  1.9409 -1.0862
19208TIP3    H279116   3.673   5.902   5.107  2.1386  1.3303  0.0045
19209TIP3   OH279117   4.856   4.050  15.351 -0.4836 -0.0615 -0.1202
19209TIP3    H179118   4.895   4.118  15.296  0.8044  0.7854  1.7284
19209TIP3    H279119   4.919   3.978  15.348  0.4381  0.6242  1.4691
19210TIP3   OH279120   0.844   3.525  15.935 -0.1394 -0.3059  0.3422
19210TIP3    H179121   0.825   3.591  16.002  0.3546  0.6378 -0.4223
19210TIP3    H279122   0.887   3.454  15.984 -1.3294 -0.4067  1.2926
19211TIP3   OH279123   5.250   4.836   6.810  0.3940  0.0359 -0.3114
19211TIP3    H179124   5.302   4.912   6.784  1.2766 -0.3800  0.2137
19211TIP3    H279125   5.296   4.799   6.884 -1.9804  1.0858  1.8439
19212TIP3   OH279126   0.845   6.815  16.549  0.3044 -0.0727 -0.3850
19212TIP3    H179127   0.881   6.851  16.468 -0.7298  0.7149 -0.5136
19212TIP3    H279128   0.900   6.739  16.568  3.3402  2.1387  0.5233
19213TIP3   OH279129   1.130   1.583   5.704  0.2220 -0.0463  1.1647
19213TIP3    H179130   1.154   1.500   5.746 -0.0890  0.1844  1.8077
19213TIP3    H279131   1.205   1.640   5.721 -0.8077  0.7754  3.4490
19214TIP3   OH279132   1.423   4.718  15.346 -0.1181 -0.6666 -0.0990
19214TIP3    H179133   1.510   4.745  15.317  0.1971 -0.4398  1.0327
19214TIP3    H279134   1.363   4.774  15.296  0.3461 -1.1698 -1.2560
19215TIP3   OH279135   0.499   3.120   1.869  0.2188  0.0612  0.2160
19215TIP3    H179136   0.501   3.166   1.953 -3.0888 -0.4535  0.7153
19215TIP3    H279137   0.584   3.075   1.864  1.2739  1.6502  2.3340
19216TIP3   OH279138   2.040   0.294   1.151 -0.3606  0.1427 -0.2002
19216TIP3    H179139   1.978   0.225   1.129 -0.2839 -1.0417  2.8195
19216TIP3    H279140   2.126   0.253   1.143 -0.3552 -0.7743  3.0467
19217TIP3   OH279141   6.467   1.808  16.424 -0.1541 -0.0259 -0.2290
19217TIP3    H179142   6.511   1.866  16.486  0.7125  1.0482 -1.7703
19217TIP3    H279143   6.378   1.843  16.417  0.3672  1.2053 -1.1655
19218TIP3   OH279144   1.688   5.723   2.233  0.2566 -0.0093 -0.4850
19218TIP3    H179145   1.637   5.711   2.152 -0.2323  0.0940 -0.1949
19218TIP3    H279146   1.776   5.745   2.202  0.2995 -0.8407 -0.9999
19219TIP3   OH279147   6.347   5.597   0.677 -0.0082  0.4893 -0.2734
19219TIP3    H179148   6.357   5.673   0.734 -1.4524 -1.0041  2.1926
19219TIP3    H279149   6.284   5.623   0.611 -1.0586  1.2488  0.9877
19220TIP3   OH279150   0.807   2.285   4.477 -0.2102  0.1411 -0.1721
19220TIP3    H179151   0.816   2.361   4.533 -0.6849  1.8646 -2.3135
19220TIP3    H279152   0.858   2.217   4.521  1.2864  2.0363  1.1846
19221TIP3   OH279153   2.664   0.716  16.178 -0.2844  0.5157 -0.3044
19221TIP3    H179154   2.598   0.662  16.223  0.4037  0.1217  0.2422
19221TIP3    H279155   2.616   0.755  16.105 -1.5377  1.5039  0.9896
19222TIP3   OH279156   6.819   0.538   2.552  0.7213  0.1686  0.6554
19222TIP3    H179157   6.911   0.515   2.561  0.7048 -0.0198  0.3608
19222TIP3    H279158   6.782   0.524   2.639  1.3430  1.9904  1.2734
19223TIP3   OH279159   6.796   4.173  11.457 -0.1560 -0.5247 -0.6276
19223TIP3    H179160   6.851   4.221  11.394  0.7242 -1.0094 -0.2409
19223TIP3    H279161   6.707   4.198  11.434  0.2741  1.2516 -0.4813
19224TIP3   OH279162   1.997   5.970   2.821 -0.1702  0.3935 -0.8032
19224TIP3    H179163   1.927   5.933   2.875 -1.0052  1.2933 -1.2385
19224TIP3    H279164   1.982   5.933   2.734  0.7933 -0.5540 -0.5938
19225TIP3   OH279165   4.425   2.179  11.515  0.1637 -0.2476 -0.0723
19225TIP3    H179166   4.388   2.249  11.461  0.3643  0.1021  0.2445
19225TIP3    H279167   4.391   2.196  11.603  0.7107 -0.1918  0.1279
19226TIP3   OH279168   1.013   5.669  10.787 -0.2056  0.5846  0.0856
19226TIP3    H179169   1.096   5.620  10.790  0.9725  2.3978 -1.0465
19226TIP3    H279170   0.981   5.656  10.698 -0.1474  1.4009 -0.0628
19227TIP3   OH279171   1.414   3.060  15.216  0.6910 -0.1494  0.6163
19227TIP3    H179172   1.408   3.062  15.311 -2.0989  0.7391  0.5071
19227TIP3    H279173   1.505   3.081  15.197  1.0185  0.9428  3.0660
19228TIP3   OH279174   4.594   5.064  11.936 -0.3573 -0.4676 -0.0380
19228TIP3    H179175   4.575   5.149  11.975 -1.4295  0.2658 -2.0566
19228TIP3    H279176   4.635   5.084  11.852  1.2654 -1.9966  0.2964
19229TIP3   OH279177   2.146   6.035   6.077 -0.1170  0.3236 -0.6385
19229TIP3    H179178   2.170   5.949   6.043  0.3659  0.6699 -1.1890
19229TIP3    H279179   2.213   6.054   6.143 -1.0341 -0.3338  0.5166
19230TIP3   OH279180   1.176   5.057  15.010  0.2341  0.2054  0.2619
19230TIP3    H179181   1.220   5.134  15.046  0.4396 -0.5360  1.6460
19230TIP3    H279182   1.178   5.071  14.915  0.6230  1.7057  0.4600
19231TIP3   OH279183   4.929   2.949  13.689 -0.3846  0.1848  0.3552
19231TIP3    H179184   4.971   3.005  13.623 -0.0347  0.2982  0.6688
19231TIP3    H279185   4.867   2.896  13.639  1.1507 -1.0247 -0.3421
19232TIP3   OH279186   5.699   5.494  11.067 -0.1690  0.0351  0.1949
19232TIP3    H179187   5.742   5.408  11.069  0.6921  0.4567  1.0394
19232TIP3    H279188   5.763   5.551  11.024 -0.3967  0.4134  0.3555
19233TIP3   OH279189   1.100   4.648  14.314  0.4050  0.1212  0.4153
19233TIP3    H179190   1.159   4.717  14.283 -2.7219  2.2531 -1.3303
19233TIP3    H279191   1.069   4.679  14.399 -0.2523  0.4095  0.0770
19234TIP3   OH279192   3.392   1.571  16.191  0.6333  0.4719  0.0527
19234TIP3    H179193   3.324   1.638  16.192 -1.1026 -0.9068 -3.7011
19234TIP3    H279194   3.444   1.591  16.113  1.7505 -1.0312  0.3503
19235TIP3   OH279195   2.062   1.201   1.481  0.0858  0.0111  0.2996
19235TIP3    H179196   2.054   1.197   1.576 -1.1390 -1.7625  0.1678
19235TIP3    H279197   2.154   1.181   1.463 -0.0654 -1.5177  1.0640
19236TIP3   OH279198   2.470   2.769  12.556  0.5921  0.0799 -0.5966
19236TIP3    H179199   2.530   2.834  12.594  0.2409  0.3113 -0.4253
19236TIP3    H279200   2.498   2.686  12.594  1.5176  0.0132 -1.3874
19237TIP3   OH279201   5.957   4.795   0.966 -0.2189  0.2579  0.4663
19237TIP3    H179202   5.958   4.704   0.998 -1.3102  0.6473  1.7455
19237TIP3    H279203   5.889   4.795   0.898  0.0000  0.0604  0.2437
19238TIP3   OH279204   6.579   0.949   3.798  0.2585 -0.0775  0.3506
19238TIP3    H179205   6.549   0.982   3.713  0.2104 -0.1225  0.3503
19238TIP3    H279206   6.514   0.982   3.860 -0.7096 -1.5388  0.1475
19239TIP3   OH279207   2.981   5.389   1.147 -0.0585  0.1053  0.0560
19239TIP3    H179208   2.978   5.442   1.227  0.8253  0.9191 -0.4339
19239TIP3    H279209   3.064   5.342   1.152 -1.5369 -2.6319  1.3049
19240TIP3   OH279210   2.803   2.728  13.105 -0.5205 -0.2312  0.3981
19240TIP3    H179211   2.835   2.746  13.016  0.7613  1.0547  1.0748
19240TIP3    H279212   2.803   2.814  13.148 -2.3902 -0.6211  1.2686
19241TIP3   OH279213   5.728   5.259  14.956 -0.2283 -0.0774  0.0721
19241TIP3    H179214   5.757   5.268  15.047 -0.9039  0.7111  0.2291
19241TIP3    H279215   5.651   5.202  14.962  0.3622 -0.9023 -0.1446
19242TIP3   OH279216   5.865   0.761   1.189 -0.1656  0.3630  0.1678
19242TIP3    H179217   5.797   0.791   1.129 -0.6594 -0.1926  0.4321
19242TIP3    H279218   5.817   0.710   1.255  0.4950  0.0692  0.4268
19243TIP3   OH279219   2.872   2.793  12.851 -0.1104  0.1470 -0.1488
19243TIP3    H179220   2.851   2.878  12.813 -0.3986 -0.1584 -0.6916
19243TIP3    H279221   2.958   2.771  12.815  0.2202  0.4578  0.4354
19244TIP3   OH279222   2.003   5.311  13.239 -0.0115  0.1929  0.3373
19244TIP3    H179223   2.052   5.231  13.257 -1.4968 -0.5177  1.4712
19244TIP3    H279224   1.935   5.283  13.177  0.0086  0.7948  0.0350
19245TIP3   OH279225   3.752   6.348  11.252 -0.1862 -0.5026  0.1856
19245TIP3    H179226   3.672   6.400  11.243  0.9715  1.4243  0.4098
19245TIP3    H279227   3.727   6.277  11.312 -1.6285  0.2470  0.5385
19246TIP3   OH279228   3.868   0.481   4.606  0.0367  0.1415  0.3223
19246TIP3    H179229   3.776   0.488   4.580 -0.4260 -2.4745  0.9707
19246TIP3    H279230   3.868   0.500   4.699  0.3341  1.1255  0.1285
19247TIP3   OH279231   6.717   6.711  12.921  0.1234  0.2165 -0.0646
19247TIP3    H179232   6.695   6.803  12.908 -0.2711  0.2091  0.5034
19247TIP3    H279233   6.650   6.679  12.981  1.3415  0.0672  1.2842
19248TIP3   OH279234   1.187   4.133  15.289 -0.3084 -0.0398 -0.1613
19248TIP3    H179235   1.193   4.112  15.196 -1.3855  0.0621 -0.2598
19248TIP3    H279236   1.096   4.157  15.303  0.1359  1.2388  0.6652
19249TIP3   OH279237   5.721   1.534   1.365  0.0091 -0.4304  0.1185
19249TIP3    H179238   5.669   1.549   1.444  2.4441  1.2885  1.5239
19249TIP3    H279239   5.793   1.478   1.393  1.1324  0.5180 -0.7311
19250TIP3   OH279240   6.037   6.552   1.575 -0.4547  0.5204  0.5586
19250TIP3    H179241   6.070   6.594   1.654  0.4373  1.7145 -0.4217
19250TIP3    H279242   5.949   6.589   1.563 -0.1626  1.1766  0.3961
19251TIP3   OH279243   5.189   0.838   1.583 -0.5544 -0.0949  0.1913
19251TIP3    H179244   5.231   0.922   1.602  1.8604 -1.2701  0.4201
19251TIP3    H279245   5.142   0.816   1.663 -0.6420  0.7058  0.3686
19252TIP3   OH279246   1.173   3.367   4.156 -0.6541  0.3023 -0.3163
19252TIP3    H179247   1.104   3.301   4.157 -0.5890  0.2336  0.3279
19252TIP3    H279248   1.149   3.427   4.086  0.3902 -1.5491 -2.3896
19253TIP3   OH279249   5.288   1.107  15.211  0.4816  0.1368 -0.2036
19253TIP3    H179250   5.254   1.103  15.122  1.9157 -0.3577 -0.7582
19253TIP3    H279251   5.250   1.031  15.255  0.8793 -0.4171 -0.8088
19254TIP3   OH279252   2.827   2.339   4.123  0.3002  0.0855  0.5200
19254TIP3    H179253   2.883   2.267   4.094  0.0840  0.3298 -0.5474
19254TIP3    H279254   2.858   2.415   4.073  1.3230  1.0538  2.4681
19255TIP3   OH279255   4.047   2.633  15.676  0.2202  0.3311 -0.9538
19255TIP3    H179256   4.022   2.585  15.597  0.5900 -1.4099 -0.0592
19255TIP3    H279257   3.967   2.681  15.701 -0.9958 -1.7846 -0.5244
19256TIP3   OH279258   1.660   6.132  17.037 -0.4147 -0.0395  0.2992
19256TIP3    H179259   1.631   6.210  17.084 -0.5476  0.0545  0.0615
19256TIP3    H279260   1.580   6.082  17.021 -0.2954 -0.3718  0.7104
19257TIP3   OH279261   5.653   5.778  15.543  0.3430  0.1658 -0.1194
19257TIP3    H179262   5.737   5.798  15.586  2.1640 -1.9127 -2.4032
19257TIP3    H279263   5.669   5.793  15.450 -2.5749  1.7818 -0.4760
19258TIP3   OH279264   3.635   4.979   5.766 -0.0698  0.5477 -0.2003
19258TIP3    H179265   3.725   4.957   5.739 -0.0738 -0.6293  0.6587
19258TIP3    H279266   3.579   4.934   5.704 -0.0858 -2.5034  1.8063
19259TIP3   OH279267   3.524   6.678  12.704 -0.2842 -0.5293 -0.5621
19259TIP3    H179268   3.596   6.638  12.655  0.0527 -0.3866 -0.1896
19259TIP3    H279269   3.496   6.751  12.649  1.0375  0.5231  0.0705
19260TIP3   OH279270   3.231   5.507   4.360  0.0657 -0.0732 -0.1173
19260TIP3    H179271   3.235   5.539   4.450 -0.1518  2.4094 -0.9161
19260TIP3    H279272   3.198   5.582   4.309 -1.6527 -1.9589 -2.0060
19261TIP3   OH279273   1.428   0.976   1.012 -0.1152  0.0496  0.4295
19261TIP3    H179274   1.333   0.965   1.016 -0.2118  0.7907  0.3331
19261TIP3    H279275   1.440   1.064   0.975  0.6077 -0.1157  0.2639
19262TIP3   OH279276   1.704   1.365   0.654 -0.1164 -0.0218 -0.2060
19262TIP3    H179277   1.761   1.314   0.595 -1.5925  0.1757 -1.8817
19262TIP3    H279278   1.684   1.305   0.725  0.3045 -0.8757 -0.7892
19263TIP3   OH279279   4.556   3.703   6.441 -0.0513 -0.1111  0.0491
19263TIP3    H179280   4.543   3.617   6.401  0.1135 -0.6907  1.2050
19263TIP3    H279281   4.626   3.689   6.505 -0.3709  0.7647  0.6060
19264TIP3   OH279282   0.806   4.115   0.928  0.0136 -0.1735 -1.1899
19264TIP3    H179283   0.802   4.019   0.926 -1.2794 -0.1630 -0.4506
19264TIP3    H279284   0.762   4.142   0.848  0.7966 -0.1857 -1.6356
19265TIP3   OH279285   5.344   1.014  13.988 -0.2788  0.2144 -0.3452
19265TIP3    H179286   5.432   1.042  13.963 -0.6226  0.8729 -0.8519
19265TIP3    H279287   5.336   1.039  14.080 -0.2649  1.0308 -0.5546
19266TIP3   OH279288   0.701   3.463   4.602  0.0865 -0.2310  0.3495
19266TIP3    H179289   0.694   3.422   4.516  0.7830 -0.7986  0.5486
19266TIP3    H279290   0.709   3.389   4.663  1.6036  0.1703  0.6895
19267TIP3   OH279291   5.332   5.938  17.138 -0.0266  0.5098 -0.3605
19267TIP3    H179292   5.419   5.978  17.126  0.7114 -1.3545 -1.7775
19267TIP3    H279293   5.273   6.012  17.151  1.1338  2.2226 -3.5629
19268TIP3   OH279294   6.427   4.895  11.024  0.3909 -0.1623 -0.1255
19268TIP3    H179295   6.438   4.830  10.955  0.4819  0.4703 -0.7185
19268TIP3    H279296   6.339   4.931  11.008 -1.0382 -2.3357  2.1154
19269TIP3   OH279297   6.163   0.890  16.861 -0.0406  0.5933  0.4206
19269TIP3    H179298   6.106   0.837  16.916 -0.5936  2.0525  1.3211
19269TIP3    H279299   6.134   0.873  16.772 -0.7874  0.0777  0.7592
19270TIP3   OH279300   0.134   1.084  12.137  0.0523 -0.1101 -0.5330
19270TIP3    H179301   0.065   1.124  12.190  1.0819  1.0898 -0.0307
19270TIP3    H279302   0.215   1.113  12.178  0.9645  1.9857 -3.4722
19271TIP3   OH279303   3.025   4.104  10.696  0.1416 -0.6153 -0.0382
19271TIP3    H179304   3.091   4.052  10.742 -0.3781 -0.4139  0.9794
19271TIP3    H279305   3.046   4.094  10.604  0.2927 -2.2995  0.1545
19272TIP3   OH279306   6.719   6.635   5.177  0.3460 -0.8247 -0.4491
19272TIP3    H179307   6.711   6.575   5.251  1.1671 -2.0138 -1.3033
19272TIP3    H279308   6.813   6.644   5.163  0.3385  2.0385  0.7229
19273TIP3   OH279309   0.478   4.571  11.623  0.0460  0.4202  0.2593
19273TIP3    H179310   0.555   4.522  11.652  0.9981  1.7033 -0.0048
19273TIP3    H279311   0.447   4.614  11.703  0.1449  0.6226  0.1877
19274TIP3   OH279312   5.449   6.708  16.538 -0.4039 -0.3516  0.0881
19274TIP3    H179313   5.497   6.656  16.602  0.2258 -0.3622 -0.3926
19274TIP3    H279314   5.412   6.645  16.477 -1.9187 -0.4274  1.0326
19275TIP3   OH279315   6.009   4.153  11.544  0.0840  0.3717 -0.7740
19275TIP3    H179316   5.969   4.191  11.466 -0.9591  2.4232  0.6846
19275TIP3    H279317   5.939   4.153  11.609  1.4086  0.4049  0.7038
19276TIP3   OH279318   6.284   1.620   2.877  0.1354  0.0527  0.4187
19276TIP3    H179319   6.221   1.576   2.819  1.8674 -1.6424 -0.2978
19276TIP3    H279320   6.234   1.692   2.916 -1.8624 -0.4009 -1.0969
19277TIP3   OH279321   1.791   2.458   6.426  0.3657 -0.0179 -0.0148
19277TIP3    H179322   1.784   2.457   6.522 -0.4207 -0.6928 -0.0641
19277TIP3    H279323   1.880   2.488   6.409  0.0708  1.4779  0.8954
19278TIP3   OH279324   6.037   6.488  14.465 -0.5193 -0.0976 -0.4069
19278TIP3    H179325   6.032   6.580  14.439 -0.7519  0.1172  0.3520
19278TIP3    H279326   6.036   6.439  14.383 -0.6592  0.5688 -0.8087
19279TIP3   OH279327   2.653   2.897   2.103  0.0352 -0.2113  0.1003
19279TIP3    H179328   2.686   2.872   2.189 -1.0842 -1.2271  0.2540
19279TIP3    H279329   2.731   2.901   2.048  0.5907 -1.1017  0.7885
19280TIP3   OH279330   6.074   1.447   2.472 -0.3667 -0.2856  0.1921
19280TIP3    H179331   6.051   1.361   2.436 -1.8164  0.1795 -0.0490
19280TIP3    H279332   6.088   1.502   2.394 -1.1382  0.1192  0.3309
19281TIP3   OH279333   0.044   6.535   3.040 -0.2696 -0.5688 -0.5870
19281TIP3    H179334   0.078   6.607   2.987 -0.3630 -1.6751 -2.2315
19281TIP3    H279335   0.095   6.459   3.011 -3.7995 -2.3021 -3.0254
19282TIP3   OH279336   5.072   2.917  12.052 -0.0526  0.0923 -0.2851
19282TIP3    H179337   5.043   2.826  12.041 -0.0704 -0.0012  0.4928
19282TIP3    H279338   4.998   2.960  12.095 -0.0182  0.4689 -0.5922
19283TIP3   OH279339   2.602   2.004  16.122  0.1969  0.0251 -0.0587
19283TIP3    H179340   2.566   2.090  16.100 -2.0799 -1.3410 -2.1126
19283TIP3    H279341   2.631   1.968  16.039  1.4051 -1.1141  0.8195
19284TIP3   OH279342   6.428   6.116   3.354 -0.0530 -0.0592 -0.2575
19284TIP3    H179343   6.409   6.030   3.318 -0.1738 -0.5759  0.9869
19284TIP3    H279344   6.387   6.177   3.293  0.4957 -0.8380 -1.4561
19285TIP3   OH279345   1.241   3.003  13.511 -0.4413 -0.6561 -0.0032
19285TIP3    H179346   1.279   2.938  13.569  2.2989  2.4103  1.9825
19285TIP3    H279347   1.219   3.077  13.567 -1.5484  0.9512 -2.3529
19286TIP3   OH279348   6.429   2.268  13.721 -1.2362  0.0645 -0.0358
19286TIP3    H179349   6.445   2.354  13.760 -2.5358 -0.2799  1.3735
19286TIP3    H279350   6.388   2.288  13.637  1.2166  0.8205 -1.1569
19287TIP3   OH279351   5.755   5.104   2.182  0.4789  0.6702 -0.2206
19287TIP3    H179352   5.674   5.149   2.204  0.3210  1.2117 -1.7766
19287TIP3    H279353   5.727   5.023   2.139  0.7752 -0.4284  1.5535
19288TIP3   OH279354   4.543   3.934   2.350  0.0082 -0.5260 -0.3617
19288TIP3    H179355   4.555   3.948   2.444 -1.1880 -0.5562 -0.1937
19288TIP3    H279356   4.618   3.977   2.310  0.6780 -0.7411  0.6187
19289TIP3   OH279357   2.852   3.337   0.714 -0.1535 -0.6710  0.2748
19289TIP3    H179358   2.930   3.316   0.766  0.1945 -0.6399 -0.2188
19289TIP3    H279359   2.791   3.377   0.776  0.1038 -0.9770  0.7325
19290TIP3   OH279360   5.194   0.691   0.289  0.0197  0.0021  0.5341
19290TIP3    H179361   5.288   0.702   0.305  0.3270 -0.1930 -1.0102
19290TIP3    H279362   5.164   0.638   0.362  0.8991  0.8893  1.5861
19291TIP3   OH279363   5.787   5.655  16.631  0.5345 -0.2060 -0.2613
19291TIP3    H179364   5.848   5.679  16.561  0.3468 -1.5739 -0.9280
19291TIP3    H279365   5.718   5.606  16.586 -0.4941  0.3682  0.6431
19292TIP3   OH279366   6.607   2.824   0.314 -0.2175 -0.2918  0.1892
19292TIP3    H179367   6.595   2.730   0.304  0.7050 -0.2680 -1.5127
19292TIP3    H279368   6.524   2.862   0.285 -0.2292 -0.5592 -0.1415
19293TIP3   OH279369   3.753   6.043   5.633  0.5487 -0.6722 -0.4964
19293TIP3    H179370   3.670   6.073   5.671  2.0072  1.7909  1.0184
19293TIP3    H279371   3.741   6.051   5.539 -0.3375  1.5933 -0.2498
19294TIP3   OH279372   2.462   3.152   3.901  0.2558  0.3588  0.4285
19294TIP3    H179373   2.552   3.174   3.924 -0.3731  0.1297  3.4803
19294TIP3    H279374   2.458   3.056   3.908 -0.5117  0.4591  1.7128
19295TIP3   OH279375   1.588   1.909  16.438 -0.3577 -0.3617 -0.4300
19295TIP3    H179376   1.519   1.884  16.377  2.1252 -2.7356 -2.5319
19295TIP3    H279377   1.559   1.875  16.523 -2.0914 -0.5600 -1.0599
19296TIP3   OH279378   0.200   0.952  16.944 -0.3086  0.5687 -0.1644
19296TIP3    H179379   0.136   0.935  16.875 -0.2252  1.7602 -0.5700
19296TIP3    H279380   0.213   1.047  16.941  1.5203  0.3528 -0.1417
19297TIP3   OH279381   5.881   5.666  11.701  0.1239  0.0724 -0.0621
19297TIP3    H179382   5.802   5.617  11.679 -0.0516 -0.4517  1.6336
19297TIP3    H279383   5.889   5.732  11.632 -1.1392 -0.6134 -0.8833
19298TIP3   OH279384   2.577   5.829   1.460 -0.1486 -0.4445  0.8018
19298TIP3    H179385   2.566   5.759   1.395  0.9693 -0.3080  0.4446
19298TIP3    H279386   2.671   5.841   1.467 -0.2943  1.7233  0.0865
19299TIP3   OH279387   6.204   5.716  14.862  0.1394  0.5210  0.2787
19299TIP3    H179388   6.210   5.763  14.946 -3.0055  0.3144  0.7680
19299TIP3    H279389   6.271   5.757  14.807  0.0771  3.0036  1.8569
19300TIP3   OH279390   4.186   5.647  13.649 -0.0320  0.3410 -0.2460
19300TIP3    H179391   4.121   5.701  13.606  0.3218  0.6124 -0.4425
19300TIP3    H279392   4.270   5.677  13.614  0.1309 -0.7364 -0.8211
19301TIP3   OH279393   4.210   0.961  17.188  0.0451 -0.6338  0.0151
19301TIP3    H179394   4.231   0.970  17.281 -4.2524  0.0956  1.1192
19301TIP3    H279395   4.247   1.040  17.148  1.7223 -0.8186  1.0827
19302TIP3   OH279396   1.271   5.478  10.366  0.4318 -0.3450  0.2186
19302TIP3    H179397   1.252   5.553  10.421  0.0605  1.3993 -2.1081
19302TIP3    H279398   1.192   5.424  10.371 -0.2655  0.6285  0.1385
19303TIP3   OH279399   2.708   5.980  16.958 -0.3881 -0.0313 -0.5944
19303TIP3    H179400   2.739   5.900  17.001  1.0263  0.7690 -0.0317
19303TIP3    H279401   2.618   5.991  16.989 -0.5859 -1.3783 -0.6547
19304TIP3   OH279402   2.727   6.346   4.835  0.0085  0.7127 -0.2567
19304TIP3    H179403   2.648   6.293   4.852  0.2013  0.2488 -0.7821
19304TIP3    H279404   2.769   6.354   4.921 -0.0331  0.0262 -0.1655
19305TIP3   OH279405   0.006   1.472  15.737 -0.0596  0.3640  0.4973
19305TIP3    H179406   0.098   1.458  15.758 -0.4716 -1.2364  1.4379
19305TIP3    H279407   0.004   1.485  15.642  1.1112  0.2841  0.4517
19306TIP3   OH279408   4.484   6.282  16.973  0.1768 -0.0402  0.3394
19306TIP3    H179409   4.471   6.372  17.004  0.5501  0.5951 -1.2231
19306TIP3    H279410   4.396   6.250  16.955 -0.0488 -0.4522  2.0796
19307TIP3   OH279411   1.238   0.067  14.065  0.0018 -0.2142 -0.5934
19307TIP3    H179412   1.219   0.037  13.976  0.9656 -0.0157 -0.8778
19307TIP3    H279413   1.332   0.085  14.065 -0.0057 -0.0940  0.4328
19308TIP3   OH279414   6.222   3.643  15.287  0.1007 -0.0541  0.1936
19308TIP3    H179415   6.301   3.674  15.243  0.5802  0.1327  1.1568
19308TIP3    H279416   6.186   3.721  15.329 -0.6316 -0.1299 -0.2709
19309TIP3   OH279417   5.687   2.882   3.520 -0.1452 -0.4799  0.1043
19309TIP3    H179418   5.654   2.838   3.599 -0.3335  0.2237  0.4264
19309TIP3    H279419   5.687   2.975   3.543 -0.1703 -0.2698 -0.7228
19310TIP3   OH279420   4.996   4.452  15.020 -0.2955  0.0741 -0.3606
19310TIP3    H179421   4.920   4.507  15.041  0.3902  1.0771 -0.4196
19310TIP3    H279422   5.053   4.460  15.096  0.6887  1.0327 -1.1665
19311TIP3   OH279423   4.883   4.765  12.946  0.2434  0.8941  0.5344
19311TIP3    H179424   4.898   4.695  13.010  0.5092  1.1712  0.7792
19311TIP3    H279425   4.954   4.754  12.882  0.0745  0.7210  0.3714
19312TIP3   OH279426   3.642   1.036   2.076 -0.1053  0.2655  0.1300
19312TIP3    H179427   3.579   1.091   2.121  0.2698  0.2803  0.6410
19312TIP3    H279428   3.603   1.021   1.990 -0.4724  0.8647  0.1820
19313TIP3   OH279429   2.421   3.710  14.575 -0.3287  0.2023  0.3591
19313TIP3    H179430   2.422   3.764  14.654  2.8561 -1.0246  1.2828
19313TIP3    H279431   2.482   3.753  14.515  1.0739 -1.4680  0.5147
19314TIP3   OH279432   3.176   6.470  16.648  0.0786 -0.0680  0.4836
19314TIP3    H179433   3.133   6.480  16.563  1.8168  0.8066 -0.3388
19314TIP3    H279434   3.156   6.550  16.695 -0.0471 -0.1165  0.5126
19315TIP3   OH279435   4.401   2.705  14.245  0.3020  0.4446  0.3490
19315TIP3    H179436   4.491   2.702  14.213  0.4475 -0.1103  0.7960
19315TIP3    H279437   4.370   2.792  14.221  0.5684  0.2273 -0.8468
19316TIP3   OH279438   5.033   3.917  16.189 -0.1875  0.2603 -0.0850
19316TIP3    H179439   4.957   3.858  16.186 -0.2645  0.3814 -0.8372
19316TIP3    H279440   4.995   4.004  16.198 -0.1123  0.2765  0.0759
19317TIP3   OH279441   0.391   3.562  16.832 -0.3072  0.3294 -0.8030
19317TIP3    H179442   0.407   3.636  16.773 -0.4839  0.9196 -0.1206
19317TIP3    H279443   0.434   3.586  16.914 -2.5144  0.8769  0.2736
19318TIP3   OH279444   1.636   6.191  11.874  0.1650  0.7222 -0.2437
19318TIP3    H179445   1.727   6.180  11.902  0.1875  0.4860 -0.4064
19318TIP3    H279446   1.608   6.272  11.916  0.6669  1.1690 -0.7431
19319TIP3   OH279447   4.523   0.291  11.614  0.2023 -0.3517 -0.3127
19319TIP3    H179448   4.507   0.385  11.622  2.1659  0.1824 -1.8029
19319TIP3    H279449   4.457   0.260  11.552  0.6190  0.4179 -1.1626
19320TIP3   OH279450   5.503   6.012   6.340  0.2678  0.0553  0.0438
19320TIP3    H179451   5.469   5.976   6.422  0.3139 -1.5873 -0.6105
19320TIP3    H279452   5.598   6.018   6.354  0.4334 -1.3619 -0.2480
19321TIP3   OH279453   5.619   0.011  15.210  0.0069 -0.2052 -0.3986
19321TIP3    H179454   5.715   0.020  15.211 -0.0837  0.8576 -0.2462
19321TIP3    H279455   5.603  -0.066  15.155  1.0009 -1.2922  0.7780
19322TIP3   OH279456   4.702   5.702  16.685  0.1676  0.5063  0.6199
19322TIP3    H179457   4.743   5.645  16.749 -0.3865  1.2270  1.6480
19322TIP3    H279458   4.609   5.678  16.688  0.2477 -0.0381 -0.5511
19323TIP3   OH279459   5.717   3.519   0.997  0.7125  0.2156 -0.1902
19323TIP3    H179460   5.795   3.546   1.045  1.3339  0.1224 -1.1217
19323TIP3    H279461   5.644   3.535   1.057  1.5011 -0.2040  0.8922
19324TIP3   OH279462   5.667   0.014  13.321  0.1466  1.2498  0.2363
19324TIP3    H179463   5.625   0.000  13.406 -0.4748 -0.1014 -0.2528
19324TIP3    H279464   5.761   0.010  13.340  0.0324 -0.5528  0.6884
19325TIP3   OH279465   3.367   4.182   2.541  0.1802 -0.6516 -0.2439
19325TIP3    H179466   3.406   4.258   2.499  1.4016 -1.4734 -0.6489
19325TIP3    H279467   3.275   4.186   2.516  0.1991  0.7178 -0.1912
19326TIP3   OH279468   3.371   1.451   1.483 -0.2248 -0.2801 -0.9272
19326TIP3    H179469   3.320   1.441   1.563  1.6413  1.4025  0.5681
19326TIP3    H279470   3.434   1.379   1.485  1.9104  1.5138  0.8714
19327TIP3   OH279471   0.580   1.428  12.650 -0.2158 -0.6343 -0.4242
19327TIP3    H179472   0.637   1.501  12.628 -0.0043 -0.1491  1.5675
19327TIP3    H279473   0.497   1.447  12.605 -0.5652  1.4710  1.0181
19328TIP3   OH279474   3.598   4.912   1.160  0.9589 -0.3354  0.3093
19328TIP3    H179475   3.600   5.005   1.183  1.6877  0.1547 -1.5707
19328TIP3    H279476   3.513   4.900   1.118  2.0814  0.2696 -2.2877
19329TIP3   OH279477   1.076   0.628  11.165 -0.0614 -0.7711 -0.5792
19329TIP3    H179478   1.019   0.563  11.125 -0.2057 -0.0940 -1.5120
19329TIP3    H279479   1.164   0.591  11.156 -0.1884 -1.0612 -0.6499
19330TIP3   OH279480   1.547   1.730   3.900 -0.9068  0.4950 -0.0377
19330TIP3    H179481   1.470   1.676   3.915  0.4537 -1.3126  0.8161
19330TIP3    H279482   1.528   1.812   3.947 -0.9835 -1.2038  3.1844
19331TIP3   OH279483   1.667   5.538  11.404  0.7413 -0.0614  0.5289
19331TIP3    H179484   1.712   5.454  11.411 -0.7589 -1.0147 -0.5169
19331TIP3    H279485   1.609   5.541  11.481 -0.4728 -0.8355 -0.3150
19332TIP3   OH279486   2.874   3.209   3.300  0.2122 -0.6062  0.0041
19332TIP3    H179487   2.915   3.288   3.267  0.2319 -0.3748  0.5626
19332TIP3    H279488   2.785   3.212   3.265  0.7533 -1.2738 -1.4699
19333TIP3   OH279489   5.339   4.593  16.308  0.7063 -0.4710  0.4571
19333TIP3    H179490   5.335   4.652  16.232  1.0076 -0.6852  0.2704
19333TIP3    H279491   5.376   4.512  16.273 -0.6942 -1.1450  0.4793
19334TIP3   OH279492   1.186   5.240   2.418  0.6049  0.3603 -0.2428
19334TIP3    H179493   1.128   5.189   2.362 -0.1503  1.4375 -0.4672
19334TIP3    H279494   1.166   5.331   2.397  1.0705  0.7701  1.0188
19335TIP3   OH279495   1.438   4.995   3.877 -0.4966  0.0929  0.0500
19335TIP3    H179496   1.358   5.047   3.866 -0.8739 -0.6185 -0.6349
19335TIP3    H279497   1.498   5.030   3.811 -0.5626  0.0016 -0.0570
19336TIP3   OH279498   1.247   5.141   3.757  0.1851 -0.1817  0.2589
19336TIP3    H179499   1.241   5.098   3.671 -0.6313  2.4232 -1.1115
19336TIP3    H279500   1.191   5.088   3.814  0.3998 -1.7363 -0.8849
19337TIP3   OH279501   3.347   4.729   5.771  0.1609 -0.1727  0.1941
19337TIP3    H179502   3.370   4.774   5.690 -1.3288  0.7200  0.2324
19337TIP3    H279503   3.293   4.792   5.819 -1.0063 -1.5622  0.7792
19338TIP3   OH279504   4.613   6.284   5.874 -0.3679 -0.1138 -0.4569
19338TIP3    H179505   4.528   6.247   5.897 -1.0698  0.9278 -1.2660
19338TIP3    H279506   4.609   6.296   5.779 -0.9171  3.6074 -0.1058
19339TIP3   OH279507   0.717   2.337  17.007 -0.2288 -0.3909 -0.3254
19339TIP3    H179508   0.771   2.264  17.039  1.2055  0.2172 -1.3117
19339TIP3    H279509   0.767   2.415  17.028 -0.0369  0.1227 -2.4764
19340TIP3   OH279510   3.469   5.480   4.978 -0.0574 -0.3708 -0.2288
19340TIP3    H179511   3.434   5.566   4.954 -1.0949 -0.4800  0.8275
19340TIP3    H279512   3.510   5.494   5.064  1.8954 -0.4201 -1.0866
19341TIP3   OH279513   2.176   1.010   0.223  0.2921 -0.0874 -0.1976
19341TIP3    H179514   2.132   1.017   0.138 -1.2819 -1.8942  0.3750
19341TIP3    H279515   2.182   0.915   0.238  0.2806  0.1866  1.8052
19342TIP3   OH279516   0.775   4.477  13.734  0.1786  0.0733  0.1816
19342TIP3    H179517   0.734   4.491  13.648  0.9142 -1.5434 -0.4825
19342TIP3    H279518   0.843   4.543  13.739  1.2723 -0.8712 -1.2959
19343TIP3   OH279519   3.928   4.793  13.613 -0.5860 -0.2578  0.1990
19343TIP3    H179520   4.002   4.820  13.559 -1.0495 -0.0277 -0.3327
19343TIP3    H279521   3.852   4.836  13.573 -0.9079  0.1382  1.1945
19344TIP3   OH279522   2.616   2.165   4.948 -0.5407  0.1827 -0.0326
19344TIP3    H179523   2.619   2.201   5.036 -1.2057 -0.4651  0.2701
19344TIP3    H279524   2.672   2.223   4.896  1.6279 -0.6707  1.2351
19345TIP3   OH279525   1.744   4.486   3.833 -0.4328 -0.1221 -0.2955
19345TIP3    H179526   1.793   4.542   3.773 -0.1800  0.5426  0.4963
19345TIP3    H279527   1.731   4.541   3.911  0.4495 -1.3899  0.8041
19346TIP3   OH279528   6.061   2.920  13.624  0.5457 -0.0591 -0.4534
19346TIP3    H179529   6.122   2.884  13.689 -0.8260 -2.0988 -0.1881
19346TIP3    H279530   5.980   2.871  13.638 -0.3123  0.6380 -2.6048
19347TIP3   OH279531   1.061   6.762  11.347 -0.4741 -0.3647  0.5351
19347TIP3    H179532   0.996   6.742  11.279 -0.8200 -1.1237  1.0784
19347TIP3    H279533   1.093   6.850  11.324  0.3131 -1.0778 -1.3057
19348TIP3   OH279534   1.053   1.788   3.799 -0.4146  0.1232  0.7610
19348TIP3    H179535   1.032   1.734   3.875  3.0165  0.2957  1.9887
19348TIP3    H279536   1.099   1.729   3.739 -0.1067  0.7805  0.3345
19349TIP3   OH279537   4.030   4.432   2.925 -0.2638 -0.3742  0.2727
19349TIP3    H179538   4.079   4.506   2.890  0.7892 -1.2176 -0.1126
19349TIP3    H279539   4.030   4.446   3.020  0.2783 -0.0781  0.2352
19350TIP3   OH279540   2.319   0.809   6.202 -0.0605 -0.0712  0.2647
19350TIP3    H179541   2.402   0.838   6.239  0.3253  0.0994 -0.6955
19350TIP3    H279542   2.343   0.742   6.138 -0.7838 -1.1035  1.0359
19351TIP3   OH279543   1.155   6.659   2.148  0.1920  0.1712 -0.4341
19351TIP3    H179544   1.186   6.665   2.239 -0.3170 -2.3244 -0.0369
19351TIP3    H279545   1.060   6.666   2.155  0.1497 -0.0379 -0.7753
19352TIP3   OH279546   3.987   4.341   4.475  0.1113 -0.4880  0.3141
19352TIP3    H179547   4.055   4.322   4.540  0.3585 -0.6534  0.0074
19352TIP3    H279548   3.939   4.259   4.465  1.6116 -1.2113 -1.5238
19353TIP3   OH279549   1.756   0.940  13.929  0.8909 -0.3259 -0.1029
19353TIP3    H179550   1.662   0.927  13.920  0.7882 -0.0093  0.4479
19353TIP3    H279551   1.774   0.921  14.021  1.3040 -0.0137 -0.1146
19354TIP3   OH279552   6.001   1.946   1.283 -0.3579  0.3839  0.2808
19354TIP3    H179553   6.050   2.025   1.259 -2.4464  1.0553 -2.0983
19354TIP3    H279554   5.915   1.957   1.243 -0.8544 -2.9731  0.1040
19355TIP3   OH279555   5.530   1.214  14.228 -0.0994  0.5274  0.5537
19355TIP3    H179556   5.486   1.140  14.268 -1.0946  1.8332  1.9773
19355TIP3    H279557   5.468   1.246  14.163  1.1298 -1.0117 -1.5066
19356TIP3   OH279558   4.705   5.105   0.489  0.6794  0.0019  0.4983
19356TIP3    H179559   4.662   5.174   0.540  0.4049 -1.4580  2.3741
19356TIP3    H279560   4.799   5.120   0.502  0.6182 -0.7842  2.1798
19357TIP3   OH279561   2.104   0.306  15.437 -0.4112  0.8203  0.0647
19357TIP3    H179562   2.072   0.339  15.521  2.0566  0.9047  1.0472
19357TIP3    H279563   2.124   0.385  15.386  1.4160  0.8635  0.7828
19358TIP3   OH279564   0.156   5.550  16.797  0.1925  0.0709  0.2819
19358TIP3    H179565   0.093   5.493  16.752 -0.8752  0.0921  1.7061
19358TIP3    H279566   0.159   5.628  16.742 -0.1153 -0.3970 -0.4313
19359TIP3   OH279567   1.562   6.583  11.443 -0.4416 -0.7144 -0.2192
19359TIP3    H179568   1.478   6.556  11.406 -0.0500 -1.3809 -0.6704
19359TIP3    H279569   1.626   6.563  11.374 -0.1342  1.7772 -0.7494
19360TIP3   OH279570   0.348   6.236  13.786 -0.2507 -0.5672  0.1147
19360TIP3    H179571   0.408   6.291  13.836 -0.8079 -0.6583  0.9033
19360TIP3    H279572   0.356   6.149  13.826 -0.4149 -0.7292 -0.2016
19361TIP3   OH279573   0.898   0.439   5.923 -0.2653  0.0422 -0.1447
19361TIP3    H179574   0.909   0.354   5.882  2.3987  0.3334 -0.2054
19361TIP3    H279575   0.915   0.502   5.853 -2.7660  0.7084 -0.2442
19362TIP3   OH279576   4.786   2.019  11.617 -0.0434  0.0736 -0.0072
19362TIP3    H179577   4.810   1.927  11.611 -1.0450 -0.1243 -1.6371
19362TIP3    H279578   4.867   2.066  11.601  0.0297 -0.5545 -1.6007
19363TIP3   OH279579   0.835   4.387   0.973 -0.3306 -0.4529 -0.2003
19363TIP3    H179580   0.817   4.294   0.963  0.0914 -0.6273  0.5847
19363TIP3    H279581   0.929   4.395   0.956 -0.4390 -0.0988 -0.6775
19364TIP3   OH279582   1.409   2.927   4.831 -0.3043  0.1557 -0.0052
19364TIP3    H179583   1.408   3.017   4.865 -1.8245  0.2112 -0.1110
19364TIP3    H279584   1.477   2.927   4.764  0.3433  0.9832  0.6433
19365TIP3   OH279585   3.031   1.907   3.640  0.0399 -0.2453 -0.2885
19365TIP3    H179586   3.073   1.854   3.572 -2.1393 -4.3409  1.1690
19365TIP3    H279587   3.073   1.879   3.721  0.7899  2.5926  0.3884
19366TIP3   OH279588   2.514   0.895  15.390 -0.4610 -0.3411 -0.4101
19366TIP3    H179589   2.488   0.876  15.300 -0.8864 -1.3167 -0.0951
19366TIP3    H279590   2.579   0.828  15.411 -1.7016 -1.2984  0.5916
19367TIP3   OH279591   0.126   5.272   3.433  0.3412  0.3327 -0.0490
19367TIP3    H179592   0.181   5.282   3.510 -0.4779  1.8624  0.3785
19367TIP3    H279593   0.111   5.361   3.402 -0.4529 -0.1699 -1.1816
19368TIP3   OH279594   0.149   3.861   1.538  0.3773 -0.4885 -0.2414
19368TIP3    H179595   0.085   3.913   1.586  2.3949  0.2650  1.7911
19368TIP3    H279596   0.135   3.771   1.568  1.2181 -0.1107  1.3883
19369TIP3   OH279597   4.495   2.026   2.548 -0.1743  0.1582 -0.2827
19369TIP3    H179598   4.440   2.032   2.626  0.5534  2.2459  0.1377
19369TIP3    H279599   4.554   1.952   2.567 -0.6407  0.0178  0.7158
19370TIP3   OH279600   5.560   0.346  15.847 -0.6419 -0.0803  0.2530
19370TIP3    H179601   5.478   0.381  15.881 -1.1043  0.3010 -1.1651
19370TIP3    H279602   5.535   0.267  15.800 -0.0508 -0.5148  0.6578
19371TIP3   OH279603   0.734   0.455  12.925 -0.1073  0.0538 -0.0104
19371TIP3    H179604   0.715   0.490  12.838  2.4302  0.9988 -0.2719
19371TIP3    H279605   0.678   0.505  12.984 -0.8027  0.4261 -0.9692
19372TIP3   OH279606   1.535   4.974  14.523 -0.2094 -0.2480 -0.2638
19372TIP3    H179607   1.512   4.956  14.615  1.2855  0.4687  0.2701
19372TIP3    H279608   1.525   4.889  14.480  0.4156 -0.9242  0.8656
19373TIP3   OH279609   0.566   5.051   5.112 -0.0541 -0.4743 -0.4086
19373TIP3    H179610   0.499   5.002   5.065 -0.8691 -1.2700  1.4621
19373TIP3    H279611   0.517   5.106   5.173  0.9530  0.5198 -0.4695
19374TIP3   OH279612   0.944   6.220  16.742 -0.0291  0.4012  0.0879
19374TIP3    H179613   0.989   6.139  16.767 -0.9515 -0.7323 -1.7003
19374TIP3    H279614   0.911   6.256  16.824 -0.9226 -1.8930  0.7992
19375TIP3   OH279615   2.118   1.208   4.907  0.0855 -0.4238 -0.1372
19375TIP3    H179616   2.093   1.300   4.898  0.4141 -0.4507 -1.6244
19375TIP3    H279617   2.043   1.159   4.873 -0.2797 -0.7468  1.0762
19376TIP3   OH279618   2.431   5.980   0.044  0.1433  0.4791 -0.2411
19376TIP3    H179619   2.339   5.980   0.071  0.1982 -1.5334  0.0715
19376TIP3    H279620   2.427   5.985  -0.052 -0.2865  0.4197 -0.2280
19377TIP3   OH279621   0.458   1.204  11.613  0.2653 -0.0309  0.0973
19377TIP3    H179622   0.417   1.141  11.673 -1.7190  1.8180  0.7974
19377TIP3    H279623   0.474   1.282  11.666  0.0963  1.0407 -1.3509
19378TIP3   OH279624   3.403   0.726   1.879  0.2704 -0.2505  0.4970
19378TIP3    H179625   3.397   0.810   1.925 -0.6240 -0.2974  0.4914
19378TIP3    H279626   3.396   0.660   1.947  0.4068 -0.3220  0.4424
19379TIP3   OH279627   5.600   3.992   4.318 -0.1448 -0.2253  0.2875
19379TIP3    H179628   5.662   4.063   4.305 -2.4363  1.4191 -2.7287
19379TIP3    H279629   5.631   3.922   4.261 -0.5258  0.2464 -0.5094
19380TIP3   OH279630   0.441   6.047  11.977 -0.0136 -0.3101 -0.4137
19380TIP3    H179631   0.509   6.110  11.955  1.0150 -0.8919  0.9668
19380TIP3    H279632   0.360   6.088  11.947  0.1765  3.1549  2.9946
19381TIP3   OH279633   5.990   3.596  10.759  0.0387 -0.4014  0.7329
19381TIP3    H179634   5.979   3.501  10.755 -0.2516 -0.3675  0.7323
19381TIP3    H279635   5.901   3.631  10.757  0.1675 -0.0545 -1.2447
19382TIP3   OH279636   4.510   3.014  14.998  0.1971 -0.5779 -0.0205
19382TIP3    H179637   4.530   2.926  14.966 -1.0298 -1.8717  2.4685
19382TIP3    H279638   4.446   3.000  15.069 -0.4004  2.3652  0.1525
19383TIP3   OH279639   6.714   2.738  13.370 -0.2579  0.2423 -0.0043
19383TIP3    H179640   6.647   2.717  13.305 -0.2476  2.3974 -0.8171
19383TIP3    H279641   6.794   2.696  13.337 -0.5930  0.0549 -0.5932
19384TIP3   OH279642   2.923   5.927   3.172 -0.1455 -0.0201  0.9208
19384TIP3    H179643   2.909   5.835   3.147  2.0148 -0.8993  2.5305
19384TIP3    H279644   2.862   5.942   3.244  0.2887 -0.6007  1.4245
19385TIP3   OH279645   0.233   0.881   0.515  0.6964 -0.0415 -0.2139
19385TIP3    H179646   0.286   0.951   0.552  3.3893 -1.5568 -0.9042
19385TIP3    H279647   0.295   0.809   0.500 -1.6515 -2.1237 -0.7466
19386TIP3   OH279648   3.322   4.362  13.104 -0.1876  0.0536  0.3333
19386TIP3    H179649   3.256   4.295  13.087 -0.4253  0.5268 -0.6914
19386TIP3    H279650   3.296   4.437  13.050  1.0372  0.3514  0.1087
19387TIP3   OH279651   3.384   1.532  17.170 -0.2431  0.0028 -0.3116
19387TIP3    H179652   3.347   1.527  17.082 -0.4226  0.1223 -0.2440
19387TIP3    H279653   3.344   1.459  17.217 -1.6766  1.0991  0.2315
19388TIP3   OH279654   3.127   1.558  16.363 -0.8855  0.1493 -0.0521
19388TIP3    H179655   3.122   1.499  16.288 -0.8147  1.1721 -0.8776
19388TIP3    H279656   3.120   1.646  16.326  0.6735  0.7485  0.9753
19389TIP3   OH279657   4.919   3.893   2.237 -1.3535 -0.1172 -0.6224
19389TIP3    H179658   4.979   3.874   2.309 -0.4899  0.4000 -1.1976
19389TIP3    H279659   4.954   3.844   2.163 -1.9450 -0.2362 -0.8257
19390TIP3   OH279660   0.388   0.870   1.697 -0.4059 -0.5537 -0.5403
19390TIP3    H179661   0.469   0.906   1.732 -0.1455 -0.7226 -0.9718
19390TIP3    H279662   0.397   0.776   1.707  0.2966 -0.7173 -2.3785
19391TIP3   OH279663   3.989   1.126  13.598 -0.3002  0.0969 -0.3803
19391TIP3    H179664   3.971   1.184  13.671  0.4856  0.7272 -0.6718
19391TIP3    H279665   4.004   1.040  13.638 -0.1777  0.3747  0.1691
19392TIP3   OH279666   3.675   6.602   0.432 -0.4212 -0.1482  0.3959
19392TIP3    H179667   3.616   6.545   0.382  0.5777 -0.2636 -0.6953
19392TIP3    H279668   3.761   6.560   0.424 -0.4738 -1.1808  3.7442
19393TIP3   OH279669   2.577   0.273  11.480  0.4208  0.0013 -0.2268
19393TIP3    H179670   2.549   0.352  11.527  0.2117 -1.1735  1.7199
19393TIP3    H279671   2.656   0.300  11.434  1.2621  0.9931  1.6477
19394TIP3   OH279672   6.441   3.602   5.376 -0.2979 -0.1094  0.3554
19394TIP3    H179673   6.479   3.547   5.445  0.2032 -1.4881 -0.9841
19394TIP3    H279674   6.382   3.661   5.423  4.2244  3.0987  2.8438
19395TIP3   OH279675   6.485   2.510  11.381  0.2985  0.3695 -0.5474
19395TIP3    H179676   6.542   2.438  11.408 -1.7176 -0.6714  1.2323
19395TIP3    H279677   6.530   2.549  11.306  2.5846 -1.2903 -0.1629
19396TIP3   OH279678   6.783   3.330  16.068  0.3281 -0.0870  0.0694
19396TIP3    H179679   6.738   3.379  16.137 -0.0644 -0.7938  0.3186
19396TIP3    H279680   6.864   3.299  16.109  0.9999  1.0496 -0.3316
19397TIP3   OH279681   6.218   2.690   4.932 -0.1847 -0.2448  0.2866
19397TIP3    H179682   6.289   2.731   4.981  0.5221 -1.2557  0.1417
19397TIP3    H279683   6.238   2.708   4.840 -1.2258  1.1988  0.3090
19398TIP3   OH279684   3.646   4.703  12.486  0.2411  0.0373  0.0913
19398TIP3    H179685   3.650   4.609  12.470 -1.5582 -0.1764  0.6043
19398TIP3    H279686   3.559   4.717  12.524 -0.4540  2.2131 -2.0639
19399TIP3   OH279687   0.484   5.760  12.506 -0.4131  0.6935  0.7248
19399TIP3    H179688   0.579   5.762  12.503 -0.3689 -0.2677  1.1619
19399TIP3    H279689   0.462   5.750  12.598 -0.8740 -0.9938  0.4652
19400TIP3   OH279690   2.590   4.615   5.049 -0.3853 -0.2915  0.2290
19400TIP3    H179691   2.540   4.667   4.986  0.3850  0.2161  0.0198
19400TIP3    H279692   2.524   4.563   5.095 -1.2285  1.0909  0.6391
19401TIP3   OH279693   0.781   6.137  15.410  0.2868 -0.0915  0.7486
19401TIP3    H179694   0.802   6.044  15.418 -2.7746 -1.0407 -0.6836
19401TIP3    H279695   0.727   6.156  15.487  2.4560  1.1206  2.0752
19402TIP3   OH279696   4.839   1.358  14.911  0.6620  0.2045  0.0028
19402TIP3    H179697   4.802   1.302  14.843  1.1423 -0.2148  0.0767
19402TIP3    H279698   4.902   1.414  14.865  1.8928 -0.9063  0.2480
19403TIP3   OH279699   1.674   3.868  14.013  0.3418  0.0097  0.0783
19403TIP3    H179700   1.604   3.902  13.957 -1.9115 -1.6310  1.7169
19403TIP3    H279701   1.737   3.830  13.952 -0.7047  0.6041 -1.4375
19404TIP3   OH279702   2.539   0.967   3.854 -0.1965 -0.8160 -0.1189
19404TIP3    H179703   2.554   1.049   3.807  0.0241 -0.9692 -0.3137
19404TIP3    H279704   2.443   0.956   3.852 -0.6583  1.2767  3.0116
19405TIP3   OH279705   3.557   6.268   4.235  0.1693 -0.5191 -0.3511
19405TIP3    H179706   3.633   6.279   4.177 -1.5898  0.7540 -2.5763
19405TIP3    H279707   3.536   6.356   4.264 -0.9386 -0.7363 -0.4400
19406TIP3   OH279708   5.897   3.754  12.618  0.2100 -0.8353 -0.3815
19406TIP3    H179709   5.913   3.794  12.533  0.0410  0.5380  0.1966
19406TIP3    H279710   5.965   3.687  12.627  1.9986  0.8928 -0.4317
19407TIP3   OH279711   0.536   4.735   0.393 -0.3986  0.3852  0.2095
19407TIP3    H179712   0.477   4.800   0.431 -2.3605  0.1050 -2.1393
19407TIP3    H279713   0.496   4.712   0.309  2.3183 -0.9314 -0.8528
19408TIP3   OH279714   5.181   0.202  14.698  0.2937 -0.4452 -0.1542
19408TIP3    H179715   5.111   0.267  14.694  1.2717  0.7441  0.9499
19408TIP3    H279716   5.184   0.175  14.790  0.9436 -0.8603 -0.2875
19409TIP3   OH279717   1.166   3.949   2.539  0.3946  0.0041 -0.0926
19409TIP3    H179718   1.136   4.007   2.610  1.8466  1.2946 -0.4881
19409TIP3    H279719   1.260   3.937   2.556  0.4519 -0.9222 -0.9655
19410TIP3   OH279720   4.193   0.412   2.033  0.0086  0.2507 -0.1152
19410TIP3    H179721   4.251   0.488   2.043  0.2881 -0.0069  0.2775
19410TIP3    H279722   4.160   0.396   2.122  1.3769 -1.2030  0.1683
19411TIP3   OH279723   0.145   3.888   1.267  0.0325 -0.3062 -0.2449
19411TIP3    H179724   0.068   3.846   1.228  0.7599 -2.1949  0.2098
19411TIP3    H279725   0.143   3.861   1.359  2.5795 -2.6918 -0.7419
19412TIP3   OH279726   4.017   1.676  13.199 -0.3534 -0.4792  0.0792
19412TIP3    H179727   4.077   1.601  13.205  0.4582  0.1743  0.4219
19412TIP3    H279728   3.981   1.671  13.110  2.3738  0.6541 -1.2394
19413TIP3   OH279729   5.441   4.299  16.429  0.0653  0.3474  0.4001
19413TIP3    H179730   5.370   4.313  16.492 -1.7182  2.6003 -1.8946
19413TIP3    H279731   5.517   4.340  16.470 -0.8738  1.1953  1.3696
19414TIP3   OH279732   2.070   5.785   4.462 -0.2728  0.0269 -0.2935
19414TIP3    H179733   2.019   5.707   4.442 -3.2817  1.8766 -0.5960
19414TIP3    H279734   2.091   5.823   4.377 -1.2711  0.9314 -0.1589
19415TIP3   OH279735   2.409   5.698   5.330  0.1075 -0.3852 -0.5371
19415TIP3    H179736   2.499   5.725   5.344  0.4232 -1.6044 -0.1504
19415TIP3    H279737   2.413   5.636   5.258 -0.6753  0.8558 -1.7139
19416TIP3   OH279738   0.202   0.187   2.692  0.3386 -0.1026  0.3905
19416TIP3    H179739   0.142   0.218   2.760  1.3624 -1.7532  2.1664
19416TIP3    H279740   0.154   0.116   2.649 -0.7118  1.6102 -1.4023
19417TIP3   OH279741   2.165   0.223   3.416  0.2245 -0.2397  0.0882
19417TIP3    H179742   2.189   0.130   3.423  0.0565 -0.2296  0.9570
19417TIP3    H279743   2.249   0.269   3.412  0.3584 -0.3343  1.2653
19418TIP3   OH279744   2.159   3.850   4.840 -0.2073 -0.3638 -0.4067
19418TIP3    H179745   2.108   3.929   4.826  1.2809  0.4220 -1.8207
19418TIP3    H279746   2.125   3.788   4.776 -1.8287 -1.1560  1.1542
19419TIP3   OH279747   0.887   5.431   3.904  0.3558 -0.1440  0.3791
19419TIP3    H179748   0.921   5.514   3.871  0.8202 -0.5074 -0.0650
19419TIP3    H279749   0.812   5.411   3.848 -0.3730  0.4662  1.1164
19420TIP3   OH279750   6.527   6.205  13.518  0.0043  0.2373 -0.0240
19420TIP3    H179751   6.438   6.225  13.545 -0.8644 -0.3673 -2.1732
19420TIP3    H279752   6.553   6.279  13.463  0.3116 -0.1933 -0.4770
19421TIP3   OH279753   3.596   5.207  11.533  0.0785  0.0753  0.1255
19421TIP3    H179754   3.521   5.226  11.589 -0.3604  1.2959 -0.8250
19421TIP3    H279755   3.579   5.119  11.499 -1.0677  0.4261 -0.2646
19422TIP3   OH279756   3.299   1.859  13.112  1.1741  0.1127 -0.0272
19422TIP3    H179757   3.311   1.927  13.177 -1.3776 -0.2011  0.8817
19422TIP3    H279758   3.223   1.809  13.142 -1.9707  1.5546 -4.4508
19423TIP3   OH279759   6.456   0.640   1.647  1.0689 -0.4789  0.0424
19423TIP3    H179760   6.513   0.699   1.695  0.2343 -0.1738  0.6919
19423TIP3    H279761   6.446   0.680   1.560 -0.3348  0.9456  0.8064
19424TIP3   OH279762   5.734   2.895  14.800 -0.3176  0.3043  0.8859
19424TIP3    H179763   5.730   2.988  14.823  0.8444  1.0546 -1.5697
19424TIP3    H279764   5.825   2.870  14.815  0.4033  0.7292 -2.0920
19425TIP3   OH279765   2.428   6.278   0.576 -0.8428 -0.6251  0.3729
19425TIP3    H179766   2.472   6.323   0.649 -2.5214  2.5035 -0.3485
19425TIP3    H279767   2.366   6.219   0.619 -0.4528 -0.2607  1.4770
19426TIP3   OH279768   0.778   0.733   0.712  0.1529 -0.0272 -0.4395
19426TIP3    H179769   0.812   0.820   0.735  1.3692 -0.7416  0.6260
19426TIP3    H279770   0.740   0.700   0.794 -0.0293 -0.6145 -0.7586
19427TIP3   OH279771   3.200   5.515  11.990  0.0512  0.7496  0.1859
19427TIP3    H179772   3.172   5.512  11.899 -1.0623  3.0747  0.3884
19427TIP3    H279773   3.261   5.589  11.994  2.2455 -0.9814  0.8351
19428TIP3   OH279774   1.857   0.714   3.330 -0.5490  0.3254  0.2430
19428TIP3    H179775   1.800   0.637   3.323  1.0943 -1.0155  0.7110
19428TIP3    H279776   1.803   0.781   3.369 -2.1426 -0.4846 -0.4795
19429TIP3   OH279777   1.967   2.081   6.163  0.3174 -0.3835 -0.0214
19429TIP3    H179778   2.015   2.157   6.195 -0.2577  0.0669 -0.2271
19429TIP3    H279779   2.026   2.007   6.180  1.0746  0.1567 -0.2583
19430TIP3   OH279780   3.181   3.823  16.969 -0.3290  0.1577 -0.8198
19430TIP3    H179781   3.223   3.866  16.895 -1.0622  0.0651 -1.3006
19430TIP3    H279782   3.137   3.894  17.016  0.8495  0.3485  0.0332
19431TIP3   OH279783   0.042   6.133   0.513  0.3682  0.4429  0.5881
19431TIP3    H179784   0.074   6.154   0.425 -0.4127 -1.2800 -0.1697
19431TIP3    H279785  -0.040   6.182   0.522  1.0434  1.5570  0.8606
19432TIP3   OH279786   1.004   6.786   0.101 -0.3262 -0.2880  0.1581
19432TIP3    H179787   1.046   6.725   0.161  0.0891  1.3289  1.6129
19432TIP3    H279788   1.066   6.859   0.095 -0.7861 -0.0100 -1.5376
19433TIP3   OH279789   1.712   4.333   0.254 -0.2972  0.2884  0.0494
19433TIP3    H179790   1.762   4.366   0.329  0.3878 -0.3040 -0.1386
19433TIP3    H279791   1.721   4.402   0.187  0.3919  0.1337 -0.0296
19434TIP3   OH279792   1.293   3.118  12.985 -0.3964 -0.0438 -0.1441
19434TIP3    H179793   1.275   3.080  13.071  0.7484 -0.3512 -0.0165
19434TIP3    H279794   1.389   3.119  12.979 -0.4460  0.8343 -1.0394
19435TIP3   OH279795   5.855   3.099   1.244  0.0426  0.3708 -0.2235
19435TIP3    H179796   5.768   3.131   1.269 -0.4506  0.1519 -1.5910
19435TIP3    H279797   5.861   3.013   1.286  0.5063  1.2657  1.6665
19436TIP3   OH279798   4.975   6.217  13.551  0.1278  0.6690  0.2577
19436TIP3    H179799   5.071   6.221  13.550  0.1885  0.0027  1.5446
19436TIP3    H279800   4.949   6.267  13.628 -0.5469  0.5769  0.0983
19437TIP3   OH279801   1.990   0.812  14.135  0.0022  0.0840  0.1075
19437TIP3    H179802   2.068   0.781  14.180  0.1385 -0.0734 -0.2272
19437TIP3    H279803   1.983   0.904  14.157  0.8213  0.3284 -0.6142
19438TIP3   OH279804   6.792   5.925  13.777  0.5199  0.5455 -0.1303
19438TIP3    H179805   6.712   5.974  13.797 -0.8980 -1.1839 -1.3241
19438TIP3    H279806   6.848   5.989  13.733 -0.2292  1.7648  0.6116
19439TIP3   OH279807   4.864   5.620   4.085 -0.4821 -0.4180 -0.1072
19439TIP3    H179808   4.810   5.649   4.012  0.7045  0.3302 -0.7224
19439TIP3    H279809   4.930   5.688   4.095 -0.2569 -0.7952  1.2939
19440TIP3   OH279810   5.436   2.779   5.924 -0.4571  0.4984  0.4534
19440TIP3    H179811   5.353   2.779   5.875 -1.1303 -1.4293  1.4718
19440TIP3    H279812   5.426   2.851   5.986  0.0160  2.3578 -1.5055
19441TIP3   OH279813   5.287   5.298  16.766  0.4674  0.2446  0.2681
19441TIP3    H179814   5.285   5.305  16.671  1.3581 -0.4900  0.1789
19441TIP3    H279815   5.306   5.205  16.783 -0.5605  0.1791  1.1807
19442TIP3   OH279816   3.425   5.451  15.661 -0.4536 -0.2644 -0.2243
19442TIP3    H179817   3.499   5.511  15.674 -0.5442  0.0739 -1.1582
19442TIP3    H279818   3.348   5.509  15.656 -1.1423 -0.7170  2.8212
19443TIP3   OH279819   5.520   4.285   6.020 -0.0488  0.6092  0.7181
19443TIP3    H179820   5.474   4.281   6.104  0.2516  0.7023  0.8877
19443TIP3    H279821   5.451   4.273   5.955  0.1000 -2.8445  1.0245
19444TIP3   OH279822   1.735   1.932   3.035 -0.4921  0.6469  0.9476
19444TIP3    H179823   1.778   1.876   3.100 -0.4714 -0.1562  0.2715
19444TIP3    H279824   1.807   1.977   2.991 -0.2096 -1.2082 -0.6465
19445TIP3   OH279825   2.314   2.885  14.268  0.3764  0.6325  0.3622
19445TIP3    H179826   2.346   2.795  14.261  2.1623  1.2207  0.5565
19445TIP3    H279827   2.271   2.902  14.184  0.8048 -0.0973 -0.0110
19446TIP3   OH279828   1.978   2.705  12.522  0.0683  0.2306 -0.1872
19446TIP3    H179829   2.024   2.630  12.558  0.4534  0.6874  0.2824
19446TIP3    H279830   2.043   2.749  12.466 -0.2604  0.0202 -0.7427
19447TIP3   OH279831   1.753   6.190  12.902  0.0381 -0.3609 -0.4532
19447TIP3    H179832   1.756   6.264  12.963 -0.6834 -1.4023  0.9159
19447TIP3    H279833   1.685   6.214  12.839 -1.8365 -0.7487  1.3033
19448TIP3   OH279834   2.757   2.155   5.222  0.0256  0.1030  0.0632
19448TIP3    H179835   2.736   2.211   5.297  1.1011  1.0669 -0.3334
19448TIP3    H279836   2.850   2.170   5.206  0.1845 -1.3006 -0.4889
19449TIP3   OH279837   1.843   3.044   3.576  0.2317  0.3279  0.1058
19449TIP3    H179838   1.778   3.074   3.640  0.5898  2.7667 -0.5546
19449TIP3    H279839   1.923   3.030   3.628  0.2101  1.1669  0.3884
19450TIP3   OH279840   2.436   0.387  13.744 -0.0557 -0.2835  0.2471
19450TIP3    H179841   2.453   0.353  13.831 -3.1768  1.0975  1.5491
19450TIP3    H279842   2.377   0.323  13.704 -0.2378  0.0588 -0.0494
19451TIP3   OH279843   0.394   4.960  12.864 -0.3386  0.2883 -0.2746
19451TIP3    H179844   0.416   4.919  12.780 -2.6828 -0.2657 -0.6998
19451TIP3    H279845   0.384   5.053  12.843  1.9257  0.6575  0.0487
19452TIP3   OH279846   5.057   0.905   4.450 -0.4561 -0.2301  0.5994
19452TIP3    H179847   4.988   0.850   4.488 -1.4401  1.4482  1.3769
19452TIP3    H279848   5.084   0.962   4.521 -0.9758  1.7051 -0.6580
19453TIP3   OH279849   2.181   5.392  10.674  0.4821  0.0425 -0.4759
19453TIP3    H179850   2.086   5.403  10.686  0.1349 -1.2714 -1.6874
19453TIP3    H279851   2.193   5.297  10.676  1.7663  0.1979 -0.4858
19454TIP3   OH279852   3.374   0.784  16.722 -0.0972  0.0490  0.3597
19454TIP3    H179853   3.385   0.870  16.763 -1.0144 -0.0584  0.8420
19454TIP3    H279854   3.406   0.722  16.787 -1.0678 -0.0867  0.7171
19455TIP3   OH279855   1.566   4.673  14.755 -0.5076 -0.0048  0.4571
19455TIP3    H179856   1.587   4.620  14.832 -0.1619  1.7203  1.5832
19455TIP3    H279857   1.640   4.658  14.695  0.2934  0.2789  1.3469
19456TIP3   OH279858   2.002   6.339  15.270  0.1346  0.2603 -0.1005
19456TIP3    H179859   2.092   6.368  15.286 -0.0182  0.8531 -0.2873
19456TIP3    H279860   2.002   6.246  15.290  0.8443  0.2151 -0.3189
19457TIP3   OH279861   1.474   2.094   2.292 -0.0386 -0.1003 -0.3659
19457TIP3    H179862   1.393   2.082   2.243 -0.0367 -0.9659 -0.1795
19457TIP3    H279863   1.512   2.006   2.299  0.2148  0.0730  0.7390
19458TIP3   OH279864   4.198   4.245   2.987  0.3930 -0.0078 -0.5419
19458TIP3    H179865   4.280   4.286   2.960  0.2111  0.5669 -0.2375
19458TIP3    H279866   4.130   4.303   2.953  0.1535  0.8326  1.2442
19459TIP3   OH279867   0.157   0.697   1.294  0.0745  0.4882 -0.3063
19459TIP3    H179868   0.212   0.759   1.340 -1.0555  1.4033 -0.1372
19459TIP3    H279869   0.146   0.624   1.354  0.1602  0.8206  0.1115
19460TIP3   OH279870   3.235   3.343   5.565  0.2312 -0.0861  0.7895
19460TIP3    H179871   3.295   3.416   5.556 -0.8814  0.6143 -2.5415
19460TIP3    H279872   3.149   3.384   5.578 -0.3440 -0.7166 -0.7184
19461TIP3   OH279873   6.508   1.971   1.076 -0.1622 -0.1597 -0.6287
19461TIP3    H179874   6.500   1.880   1.103 -0.0811 -0.0416 -0.1910
19461TIP3    H279875   6.418   2.003   1.068 -0.1957  0.0779  0.4828
19462TIP3   OH279876   5.708   2.777   0.886 -0.1598  0.1001  0.3400
19462TIP3    H179877   5.722   2.762   0.793  0.6431  1.9027  0.1190
19462TIP3    H279878   5.763   2.853   0.906 -2.7111  1.7322  1.5727
19463TIP3   OH279879   6.694   3.581   4.500  0.1988  0.0809  0.4942
19463TIP3    H179880   6.631   3.530   4.551 -0.8816  0.5434 -0.3359
19463TIP3    H279881   6.704   3.663   4.549  0.5067 -0.1717  0.8591
19464TIP3   OH279882   1.337   4.009  11.790 -0.1119  0.1730  0.0060
19464TIP3    H179883   1.251   3.968  11.796 -0.4054  0.7038 -0.4672
19464TIP3    H279884   1.346   4.060  11.871 -1.1966  1.9002 -0.8976
19465TIP3   OH279885   2.157   5.217   1.705  0.6763 -0.6155  0.0848
19465TIP3    H179886   2.173   5.247   1.795  0.0871  0.5332 -0.1689
19465TIP3    H279887   2.245   5.209   1.667  0.8851  0.2225  0.3621
19466TIP3   OH279888   5.593   5.487  16.530  0.4839 -0.1333  0.1878
19466TIP3    H179889   5.524   5.485  16.595  0.0618  0.7487 -0.2234
19466TIP3    H279890   5.648   5.411  16.551 -0.3662 -0.6002  0.7669
19467TIP3   OH279891   3.976   5.419  17.038  0.3433 -0.3195  0.2740
19467TIP3    H179892   3.915   5.471  17.091  0.1463  0.6587 -0.8578
19467TIP3    H279893   4.063   5.443  17.070  0.1849 -1.6110  1.7990
19468TIP3   OH279894   4.454   4.166   4.569 -0.3726  0.0713  0.2132
19468TIP3    H179895   4.489   4.090   4.615 -0.1595  0.1108  0.1192
19468TIP3    H279896   4.506   4.171   4.488 -1.5181 -0.6815 -0.5935
19469TIP3   OH279897   2.918   1.489  16.542  0.4489  0.1770 -0.0819
19469TIP3    H179898   2.854   1.474  16.472  0.5443 -1.1437  0.0898
19469TIP3    H279899   2.996   1.519  16.496  0.0133  0.8703 -0.3842
19470TIP3   OH279900   5.969   5.442   0.702 -0.1191 -0.2055  0.5209
19470TIP3    H179901   5.990   5.364   0.651 -0.8594 -2.1915  3.0334
19470TIP3    H279902   6.029   5.438   0.777 -1.4009  0.5995  1.6419
19471TIP3   OH279903   4.108   4.419   3.702 -0.2457 -0.2136  0.6284
19471TIP3    H179904   4.070   4.449   3.785 -0.1794 -0.0385  0.5957
19471TIP3    H279905   4.201   4.438   3.710  0.1274 -2.1304  1.3719
19472TIP3   OH279906   5.983   0.025   5.429  0.0986  0.1597 -0.1696
19472TIP3    H179907   5.909   0.048   5.372  0.3751  1.1818 -0.1324
19472TIP3    H279908   5.973  -0.069   5.444 -0.5589  0.0739 -1.0734
19473TIP3   OH279909   1.121   0.678  15.953  0.5235 -0.6865 -0.0999
19473TIP3    H179910   1.102   0.586  15.938  2.0047 -0.8177 -1.4779
19473TIP3    H279911   1.066   0.724  15.890  0.7556 -0.7311 -0.3398
19474TIP3   OH279912   3.675   1.744   3.651  0.9091 -0.7706  0.1808
19474TIP3    H179913   3.717   1.806   3.711  0.8329 -2.2665  1.8821
19474TIP3    H279914   3.583   1.745   3.676  0.8315 -1.2198 -0.0707
19475TIP3   OH279915   2.935   6.002   4.909  0.0243 -0.3834  0.1359
19475TIP3    H179916   3.025   6.028   4.890 -0.1042 -1.9907 -3.2833
19475TIP3    H279917   2.943   5.948   4.988  2.3089 -1.5984 -0.8240
19476TIP3   OH279918   6.465   1.711   2.154  0.3213 -0.2990 -0.1407
19476TIP3    H179919   6.555   1.681   2.136  0.1251  0.0691 -1.8672
19476TIP3    H279920   6.471   1.752   2.240  1.1711 -2.8534  1.1320
19477TIP3   OH279921   0.413   1.205   6.015  0.3002  1.6599  0.7078
19477TIP3    H179922   0.340   1.182   6.073  0.3171  0.2463  0.2009
19477TIP3    H279923   0.491   1.170   6.060  0.1305 -1.1636 -0.9571
19478TIP3   OH279924   5.999   0.352   0.349 -0.3521 -0.6124  0.0926
19478TIP3    H179925   5.957   0.404   0.281 -2.8997 -2.2903  0.2288
19478TIP3    H279926   6.069   0.305   0.303  0.4586  1.0924 -0.4987
19479TIP3   OH279927   5.040   3.996   1.077 -0.1147  0.0729  0.0366
19479TIP3    H179928   4.984   4.045   1.138  0.0898  0.1125  0.1908
19479TIP3    H279929   5.082   4.063   1.024  1.1323  0.1453  1.0696
19480TIP3   OH279930   0.834   2.575   6.659  0.6226 -0.0488 -0.0134
19480TIP3    H179931   0.845   2.517   6.734  1.4799 -1.1268 -0.9301
19480TIP3    H279932   0.921   2.613   6.644  0.3246  0.6262 -0.1021
19481TIP3   OH279933   3.199   1.427   1.853  0.0784 -0.0419  0.1934
19481TIP3    H179934   3.187   1.444   1.946 -1.2755  0.9626 -0.1351
19481TIP3    H279935   3.208   1.514   1.814 -0.6329 -0.3781 -0.7558
19482TIP3   OH279936   1.572   3.053  12.419 -0.2364 -0.3815  0.8335
19482TIP3    H179937   1.575   3.110  12.496  3.1575  2.4638 -1.1332
19482TIP3    H279938   1.632   2.982  12.440 -0.5803 -0.5262  1.3634
19483TIP3   OH279939   6.666   0.622   5.173 -0.0048 -0.4983  0.1486
19483TIP3    H179940   6.652   0.675   5.251 -2.0128 -1.1159  0.2434
19483TIP3    H279941   6.737   0.563   5.197  0.4836  0.3714  0.9320
19484TIP3   OH279942   5.988   4.533  12.036 -0.3853  0.4371 -0.5367
19484TIP3    H179943   6.041   4.464  12.075 -0.6562  0.1543 -0.6628
19484TIP3    H279944   6.047   4.578  11.975  0.0202  0.8448  0.1511
19485TIP3   OH279945   1.225   1.437  14.476 -0.2111 -0.0894  0.4584
19485TIP3    H179946   1.146   1.403  14.519 -1.1092  0.1516 -0.9284
19485TIP3    H279947   1.290   1.368  14.488 -0.1296  0.3383  2.9327
19486TIP3   OH279948   5.677   3.377   3.329 -0.0629 -0.3118 -0.0235
19486TIP3    H179949   5.746   3.429   3.371 -0.0632 -1.1076  1.0159
19486TIP3    H279950   5.715   3.349   3.246  0.5157  0.0551  0.1152
19487TIP3   OH279951   0.692   6.749   5.264  0.5875 -0.1712 -0.2109
19487TIP3    H179952   0.665   6.751   5.172  0.7545  0.9276 -0.2572
19487TIP3    H279953   0.610   6.756   5.313  0.4988 -0.7436 -0.2720
19488TIP3   OH279954   2.951   1.315   4.099  0.2222  0.4128 -0.6605
19488TIP3    H179955   2.877   1.295   4.155 -1.6286  0.7304 -2.8504
19488TIP3    H279956   2.967   1.408   4.113 -0.7368  0.6702 -1.1804
19489TIP3   OH279957   3.803   4.956   2.151  0.7087  0.0302 -0.5634
19489TIP3    H179958   3.725   4.987   2.196 -0.4119 -2.1391 -0.8457
19489TIP3    H279959   3.837   4.886   2.208  0.5151 -1.2723 -1.9659
19490TIP3   OH279960   2.131   1.274   4.551 -0.2709  0.4408  0.2858
19490TIP3    H179961   2.134   1.248   4.459 -0.5424 -2.6427  1.0345
19490TIP3    H279962   2.115   1.192   4.599 -0.3308  1.9502  3.0798
19491TIP3   OH279963   6.260   1.054   5.633 -0.8439 -0.3730 -0.1708
19491TIP3    H179964   6.348   1.074   5.601 -0.5574  0.5255  1.1225
19491TIP3    H279965   6.205   1.125   5.599 -0.8204 -0.2132  0.1278
19492TIP3   OH279966   2.238   5.579   5.002  0.4596  0.0652 -0.1634
19492TIP3    H179967   2.255   5.507   4.942 -0.6083  0.7489 -1.3515
19492TIP3    H279968   2.174   5.634   4.956  1.2133  1.7598  0.6896
19493TIP3   OH279969   3.108   4.878   0.681  0.0812  0.1566  0.0062
19493TIP3    H179970   3.126   4.866   0.588  1.4801 -0.5579  0.3326
19493TIP3    H279971   3.078   4.793   0.711 -0.6721  0.4682  0.1561
19494TIP3   OH279972   3.324   5.423   0.971  0.5443  0.4393  0.1141
19494TIP3    H179973   3.269   5.430   0.894 -0.8203  2.2350  1.1577
19494TIP3    H279974   3.281   5.357   1.026 -1.8181  3.0552  1.7196
19495TIP3   OH279975   2.500   4.732  11.303 -0.3873 -0.0403  0.2791
19495TIP3    H179976   2.588   4.762  11.281  0.0295  0.1064  2.0193
19495TIP3    H279977   2.463   4.703  11.220  1.3227 -0.1647 -0.4747
19496TIP3   OH279978   2.493   0.029  12.526 -0.3030 -0.6107  0.2120
19496TIP3    H179979   2.398   0.036  12.515 -0.1857  0.2943 -0.3692
19496TIP3    H279980   2.513  -0.064  12.515 -1.0416 -0.7055 -0.3779
19497TIP3   OH279981   3.651   6.029   0.118  0.2992 -0.4665 -1.3053
19497TIP3    H179982   3.709   6.042   0.042  3.1183 -0.9526  0.6278
19497TIP3    H279983   3.636   6.118   0.151  1.4097 -0.4444 -0.8239
19498TIP3   OH279984   3.004   1.312  11.532 -0.5453  0.8488 -0.3900
19498TIP3    H179985   2.942   1.372  11.574  0.0841  0.7071  0.7913
19498TIP3    H279986   3.066   1.370  11.487 -0.0496  1.1119  0.5882
19499TIP3   OH279987   0.091   5.958   4.074  0.3399  0.5507  0.1399
19499TIP3    H179988   0.135   5.924   3.996  0.2719  0.6433  0.0611
19499TIP3    H279989   0.067   5.880   4.124 -2.8933  0.2342 -1.6705
19500TIP3   OH279990   4.137   0.214  14.209 -0.0557 -0.3335  0.3155
19500TIP3    H179991   4.047   0.188  14.230 -0.8055  1.8608  0.0994
19500TIP3    H279992   4.178   0.228  14.295 -0.1584 -0.5516  0.4031
19501TIP3   OH279993   1.685   0.503  16.094  0.3101  0.4698  0.5474
19501TIP3    H179994   1.636   0.538  16.168 -1.2706  0.5006 -0.4556
19501TIP3    H279995   1.667   0.563  16.022  0.4701 -0.4344 -0.2762
19502TIP3   OH279996   4.485   6.529  14.895  0.2352  0.1928 -0.3490
19502TIP3    H179997   4.495   6.452  14.953  0.0326 -0.0158 -0.5905
19502TIP3    H279998   4.470   6.602  14.955  0.0316 -0.0219 -0.1364
19503TIP3   OH279999   3.012   2.422   2.323  0.0168 -0.1611 -0.2585
19503TIP3    H180000   2.957   2.494   2.293  0.2145  0.3304  0.5252
19503TIP3    H280001   2.987   2.408   2.414 -2.2922 -3.2258 -1.1812
19504TIP3   OH280002   4.918   5.153  11.725 -0.2218  0.2401 -0.2888
19504TIP3    H180003   4.936   5.227  11.667 -3.2140  1.6825  0.4003
19504TIP3    H280004   4.822   5.145  11.724 -0.2187 -1.3596  2.4085
19505TIP3   OH280005   4.144   3.825   0.760  0.2244  0.1408  0.1404
19505TIP3    H180006   4.204   3.899   0.765 -0.3495  0.6465 -0.2719
19505TIP3    H280007   4.057   3.865   0.752 -0.0004 -0.5518 -1.2545
19506TIP3   OH280008   0.844   5.746   5.232  0.0717  0.0569  0.4643
19506TIP3    H180009   0.821   5.748   5.139  0.5841  1.3960  0.3434
19506TIP3    H280010   0.811   5.829   5.267 -0.6060 -0.6676  1.6144
19507TIP3   OH280011   4.811   6.792   1.704  0.1467 -0.1898  0.0016
19507TIP3    H180012   4.726   6.763   1.736  0.0156  0.2310  0.0446
19507TIP3    H280013   4.794   6.820   1.614  0.1484  0.2969  0.1493
19508TIP3   OH280014   4.113   0.713   5.608  0.2128 -0.0234 -0.4420
19508TIP3    H180015   4.102   0.629   5.652  1.7430  0.2631  0.5883
19508TIP3    H280016   4.031   0.727   5.562 -0.8709 -1.0961  1.0547
19509TIP3   OH280017   5.179   4.400  16.527  0.1707 -0.2973  0.1311
19509TIP3    H180018   5.170   4.412  16.622  0.7705 -0.3001  0.1986
19509TIP3    H280019   5.126   4.323  16.507  1.9746 -1.8246  0.8897
19510TIP3   OH280020   3.276   3.610  15.533 -0.0495  0.0241  0.0627
19510TIP3    H180021   3.322   3.693  15.550  0.3959 -0.2338  0.1343
19510TIP3    H280022   3.302   3.587  15.443  1.8850 -1.3268  0.9090
19511TIP3   OH280023   1.198   6.636  16.943 -0.2945  0.0142 -0.2588
19511TIP3    H180024   1.200   6.556  16.995  1.7500 -1.2674 -2.1499
19511TIP3    H280025   1.290   6.661  16.932 -0.8247  1.9608 -0.7369
19512TIP3   OH280026   0.803   1.222   0.267 -0.0078 -0.5902  0.2502
19512TIP3    H180027   0.898   1.219   0.253 -0.1913 -3.9993 -1.2227
19512TIP3    H280028   0.774   1.299   0.218  1.7742 -0.8085 -1.2621
19513TIP3   OH280029   3.665   5.392   2.817  0.5743 -0.3127  0.2122
19513TIP3    H180030   3.669   5.465   2.756  0.9834 -0.3798  0.1577
19513TIP3    H280031   3.602   5.420   2.884  1.6646  0.6183  0.8824
19514TIP3   OH280032   3.087   1.225  11.822  1.3056 -0.1587  0.4112
19514TIP3    H180033   3.050   1.140  11.847  0.3197  0.5031  1.2623
19514TIP3    H280034   3.041   1.247  11.741  2.0560 -0.7389 -0.1848
19515TIP3   OH280035   2.686   3.202   1.391  0.5354  0.0724 -0.4333
19515TIP3    H180036   2.627   3.268   1.427  1.4747  0.0928  1.1533
19515TIP3    H280037   2.645   3.118   1.413  1.1291  0.0837  0.7875
19516TIP3   OH280038   3.570   0.269   4.907 -0.1809  0.2959 -0.4311
19516TIP3    H180039   3.641   0.333   4.912  0.7524 -0.5917 -1.7019
19516TIP3    H280040   3.497   0.317   4.868  0.1311  0.8731 -0.3172
19517TIP3   OH280041   5.756   6.410  14.000 -0.4517  0.4384  0.3042
19517TIP3    H180042   5.662   6.406  14.017 -0.4720 -0.0819  0.0957
19517TIP3    H280043   5.764   6.392  13.906 -0.2402  1.8162  0.0296
19518TIP3   OH280044   1.643   1.095  16.310 -0.1779  0.0240 -0.4229
19518TIP3    H180045   1.584   1.165  16.281 -2.2717 -1.2249  0.5789
19518TIP3    H280046   1.609   1.017  16.266  0.8073 -0.7283  0.1317
19519TIP3   OH280047   3.257   5.567  16.422  0.1105 -0.5057 -0.0518
19519TIP3    H180048   3.302   5.520  16.492  1.6773  0.5429 -0.3113
19519TIP3    H280049   3.322   5.628  16.388 -1.2807  0.5174 -0.9915
19520TIP3   OH280050   4.249   3.253   1.944  0.2646 -0.0366  0.4841
19520TIP3    H180051   4.233   3.198   1.867  1.0306 -1.4788  1.3231
19520TIP3    H280052   4.344   3.255   1.953  0.2048  0.6324  1.0417
19521TIP3   OH280053   3.229   6.757   5.935  0.0909  0.0141  0.2870
19521TIP3    H180054   3.252   6.664   5.927 -0.9519 -0.2620  0.2618
19521TIP3    H280055   3.276   6.787   6.012  1.6887 -0.1142 -0.5896
19522TIP3   OH280056   5.585   0.023   6.689  0.1369 -0.1978  0.2167
19522TIP3    H180057   5.498   0.025   6.729  0.1051  1.2663  0.1232
19522TIP3    H280058   5.629   0.101   6.723  1.2252 -0.6209 -0.1701
19523TIP3   OH280059   1.938   0.322   5.097 -0.1291  0.1373  0.4805
19523TIP3    H180060   2.027   0.319   5.134  0.7510  0.5298 -1.4788
19523TIP3    H280061   1.935   0.405   5.050 -0.6937 -0.9168 -1.4278
19524TIP3   OH280062   6.088   3.638  14.851 -0.0996  0.6558 -0.0745
19524TIP3    H180063   6.174   3.597  14.864  0.0193  1.2654  1.1710
19524TIP3    H280064   6.055   3.653  14.940 -2.4661 -1.5270 -0.4402
19525TIP3   OH280065   0.066   5.579   0.353  0.6125  0.5322  0.2959
19525TIP3    H180066   0.124   5.561   0.279 -0.3176 -1.4096 -0.0422
19525TIP3    H280067  -0.022   5.564   0.318 -0.0514  2.4210  1.0546
19526TIP3   OH280068   0.095   4.330  11.280 -0.2734  0.0113 -0.7241
19526TIP3    H180069   0.166   4.381  11.239 -1.0162  0.7765 -1.0985
19526TIP3    H280070   0.022   4.337  11.218 -0.0447 -2.5485 -1.3832
19527TIP3   OH280071   2.431   3.998   1.809 -0.2972 -0.2146  0.1963
19527TIP3    H180072   2.495   3.928   1.800 -0.3182 -0.1390 -0.6009
19527TIP3    H280073   2.450   4.057   1.736 -1.0704 -0.0256  0.1419
19528TIP3   OH280074   4.312   3.024  13.838  0.0750  0.1929  0.1860
19528TIP3    H180075   4.344   2.953  13.893  1.2257  0.3209 -0.2805
19528TIP3    H280076   4.247   3.069  13.892 -3.1380 -3.0528 -0.5859
19529TIP3   OH280077   6.064   0.141  15.828  0.1687  0.6425  0.1076
19529TIP3    H180078   6.126   0.192  15.776 -0.6850  0.8581 -0.7149
19529TIP3    H280079   6.107   0.131  15.913  0.3561  2.7253  0.3085
19530TIP3   OH280080   5.723   0.498   2.604  0.4274 -0.2280 -0.2624
19530TIP3    H180081   5.705   0.442   2.679  0.4216 -0.3541 -0.3586
19530TIP3    H280082   5.803   0.461   2.566  0.1491 -0.4668 -0.6153
19531TIP3   OH280083   4.504   6.388  15.127  0.2288 -0.2481 -0.6928
19531TIP3    H180084   4.447   6.312  15.120 -0.5780  0.3255 -0.4084
19531TIP3    H280085   4.503   6.410  15.220 -0.5300  0.8556 -0.9462
19532TIP3   OH280086   2.099   5.611  14.992  0.0097  0.3300 -0.9668
19532TIP3    H180087   2.135   5.671  14.926  1.4903  0.5207 -0.0474
19532TIP3    H280088   2.101   5.526  14.949 -1.2399  0.7681 -1.9626
19533TIP3   OH280089   0.933   3.275   4.955 -0.3498  0.0915  0.1231
19533TIP3    H180090   0.973   3.343   5.009  0.0362  0.5334 -0.7087
19533TIP3    H280091   0.840   3.278   4.979 -0.0642 -0.2516  1.3241
19534TIP3   OH280092   0.473   0.880  13.666  0.1215  0.3401  0.2038
19534TIP3    H180093   0.415   0.866  13.591  0.7172  1.0469 -0.3985
19534TIP3    H280094   0.524   0.800  13.672 -0.1327  0.1632  0.0474
19535TIP3   OH280095   1.711   6.388   5.073  0.2697 -0.0778 -0.1240
19535TIP3    H180096   1.748   6.474   5.054  0.4677 -0.2367 -0.4644
19535TIP3    H280097   1.782   6.326   5.057 -0.0893 -0.3730 -0.6205
19536TIP3   OH280098   2.084   3.579   5.443  0.3851  0.3308 -0.0213
19536TIP3    H180099   2.123   3.523   5.376  0.4148  0.8627 -0.4538
19536TIP3    H280100   2.029   3.519   5.495 -0.0068  0.0006 -0.8078
19537TIP3   OH280101   5.397   5.763  16.893 -0.7439  0.3481  0.4144
19537TIP3    H180102   5.363   5.777  16.981 -1.5289  2.3596 -0.1405
19537TIP3    H280103   5.483   5.804  16.893  0.1610 -1.4696  0.7794
19538TIP3   OH280104   1.092   3.721   1.729  0.0140 -0.0220 -0.5880
19538TIP3    H180105   1.159   3.737   1.796 -1.1384 -0.4445  0.6894
19538TIP3    H280106   1.020   3.680   1.776  0.0477 -2.4401 -2.4877
19539TIP3   OH280107   0.078   4.737  11.545  0.0880 -0.2065  0.0652
19539TIP3    H180108   0.074   4.829  11.518 -0.6027 -0.4013 -0.5555
19539TIP3    H280109   0.098   4.690  11.464 -2.5902 -0.8619 -0.3153
19540TIP3   OH280110   1.636   4.283   0.651 -0.3258  0.2816 -0.2463
19540TIP3    H180111   1.554   4.331   0.640 -0.8413 -0.8846 -1.9012
19540TIP3    H280112   1.704   4.349   0.633 -0.6633  1.8722  3.3675
19541TIP3   OH280113   2.874   1.739   5.427 -0.2786  0.5356  0.0111
19541TIP3    H180114   2.802   1.679   5.448 -0.5294  0.8061 -0.0737
19541TIP3    H280115   2.861   1.814   5.485  0.3300  0.2870  0.4795
19542TIP3   OH280116   4.639   1.676   0.443  0.3966 -0.0805 -0.3238
19542TIP3    H180117   4.637   1.644   0.353 -2.3984  0.6930 -0.6242
19542TIP3    H280118   4.641   1.772   0.434  0.7195 -0.0036  0.4710
19543TIP3   OH280119   5.935   0.372   2.066  0.1265  0.3362  0.2953
19543TIP3    H180120   5.994   0.338   1.999 -1.1263 -0.5682 -0.3818
19543TIP3    H280121   5.887   0.443   2.023 -0.9209 -0.4663  0.1001
19544TIP3   OH280122   0.242   2.208  14.999  0.1458  0.1073  0.1461
19544TIP3    H180123   0.257   2.121  14.963 -0.2385  0.1934 -0.2329
19544TIP3    H280124   0.150   2.226  14.980  0.2672  0.6635  0.0717
19545TIP3   OH280125   4.639   0.363  11.958 -0.3755  0.2615  0.4358
19545TIP3    H180126   4.584   0.284  11.957  0.5325 -0.3854  0.6556
19545TIP3    H280127   4.595   0.423  11.898 -1.6017 -0.0473  1.0044
19546TIP3   OH280128   2.669   3.672  15.768 -0.0546  0.0778 -0.1719
19546TIP3    H180129   2.723   3.718  15.832  1.8498 -1.6134 -0.4512
19546TIP3    H280130   2.678   3.579  15.791 -1.2955 -0.3917 -1.4258
19547TIP3   OH280131   2.889   3.216  13.708  0.0979  0.3485 -0.0280
19547TIP3    H180132   2.809   3.247  13.666  0.7621 -0.3656 -1.9382
19547TIP3    H280133   2.868   3.214  13.801 -2.4304 -0.6771 -0.5235
19548TIP3   OH280134   6.746   0.601   6.237 -0.8303 -0.1508 -0.7571
19548TIP3    H180135   6.736   0.675   6.297 -1.4633 -0.7292 -0.1396
19548TIP3    H280136   6.744   0.524   6.293 -0.9046 -0.6738 -1.4685
19549TIP3   OH280137   1.024   4.213  12.394 -0.3433  0.3660 -0.0320
19549TIP3    H180138   1.089   4.194  12.462 -2.5994 -4.5008  1.2059
19549TIP3    H280139   0.954   4.261  12.439  0.4369  1.8831 -0.3606
19550TIP3   OH280140   5.207   0.931  13.238  0.3089 -0.1182 -0.6505
19550TIP3    H180141   5.142   0.979  13.289  2.1251  1.9473 -0.1078
19550TIP3    H280142   5.213   0.846  13.281 -1.1859  0.0615 -0.0272
19551TIP3   OH280143   5.254   1.847  14.764  0.1357 -0.1259  0.0864
19551TIP3    H180144   5.336   1.889  14.790  0.7807 -1.3190  0.0362
19551TIP3    H280145   5.200   1.850  14.843 -1.0236  3.3802 -0.6464
19552TIP3   OH280146   3.237   1.107   4.372  0.3726 -0.1235 -0.2901
19552TIP3    H180147   3.149   1.142   4.381  1.2174  2.0402 -0.0038
19552TIP3    H280148   3.253   1.058   4.453 -1.1100 -1.9766 -1.0360
19553TIP3   OH280149   5.393   2.756  15.948 -0.7088 -0.0483 -0.6106
19553TIP3    H180150   5.392   2.766  15.853 -1.0202 -3.2058 -1.0624
19553TIP3    H280151   5.355   2.837  15.981 -0.4052  1.2342 -3.1496
19554TIP3   OH280152   5.596   3.789  16.032  0.1996 -0.6424  0.3062
19554TIP3    H180153   5.652   3.836  16.094  0.9326 -1.0809 -0.0186
19554TIP3    H280154   5.577   3.854  15.963  1.4357 -0.8707 -0.2835
19555TIP3   OH280155   5.314   0.003  12.488  0.0289 -0.0765  0.2862
19555TIP3    H180156   5.287   0.030  12.576 -1.9128  1.1593 -0.6157
19555TIP3    H280157   5.245  -0.057  12.460  0.1208  0.2749 -0.7271
19556TIP3   OH280158   2.609   5.280   3.225  0.1839  0.2369  0.0117
19556TIP3    H180159   2.658   5.199   3.241  1.2978  0.1767 -2.9892
19556TIP3    H280160   2.517   5.252   3.226  0.5646 -1.6134 -2.7080
19557TIP3   OH280161   3.737   6.817  16.660 -0.5338  0.3375  0.1951
19557TIP3    H180162   3.739   6.785  16.750  0.1179  0.5924  0.2806
19557TIP3    H280163   3.826   6.802  16.627 -0.5941  0.8212 -0.1981
19558TIP3   OH280164   3.661   1.832   2.116 -0.7651  0.0009 -0.3314
19558TIP3    H180165   3.612   1.913   2.102 -1.8786 -0.4244  0.8145
19558TIP3    H280166   3.594   1.763   2.110 -0.3328 -0.6092  1.2089
19559TIP3   OH280167   4.185   3.082   6.768 -0.0129  0.0279  0.2474
19559TIP3    H180168   4.271   3.105   6.734 -0.3516  0.8417 -0.0803
19559TIP3    H280169   4.173   2.990   6.743  1.4849 -0.6415  1.8292
19560TIP3   OH280170   4.240   0.158  11.052  0.0319 -0.4848 -0.1911
19560TIP3    H180171   4.217   0.117  10.969  2.0363  0.0975 -1.0964
19560TIP3    H280172   4.163   0.211  11.074 -0.2198  0.0554 -2.1488
19561TIP3   OH280173   1.965   5.718   1.652  0.5765 -0.1668 -0.0569
19561TIP3    H180174   1.998   5.644   1.702  0.6294  0.9489  1.6329
19561TIP3    H280175   1.957   5.789   1.715 -1.4634  0.7044 -1.1659
19562TIP3   OH280176   2.697   5.799  14.908  0.8063 -0.2035  0.2143
19562TIP3    H180177   2.720   5.781  14.999  0.1125 -1.0088  0.2433
19562TIP3    H280178   2.729   5.888  14.892  1.3907 -0.2415  1.0851
19563TIP3   OH280179   5.558   1.534   4.774 -0.3408 -0.3315  0.2195
19563TIP3    H180180   5.490   1.597   4.751 -0.6091 -0.3883  0.8385
19563TIP3    H280181   5.640   1.577   4.749 -0.4926  0.4499  1.0379
19564TIP3   OH280182   4.800   4.755   5.421  0.2552 -0.4977  0.5197
19564TIP3    H180183   4.753   4.838   5.428  1.6592  0.2855  1.0070
19564TIP3    H280184   4.880   4.776   5.373 -0.0568 -1.8854 -0.6638
19565TIP3   OH280185   6.073   1.504   4.161  0.2059 -0.3019 -0.4417
19565TIP3    H180186   6.028   1.465   4.236 -0.4307  1.0745 -0.0736
19565TIP3    H280187   6.116   1.581   4.197 -1.3658  1.2493 -1.7339
19566TIP3   OH280188   6.208   0.859   2.691 -0.2623  0.5244 -0.2361
19566TIP3    H180189   6.125   0.885   2.732  0.0266  1.4963 -0.2458
19566TIP3    H280190   6.269   0.928   2.715  0.9164 -0.8245  0.8550
19567TIP3   OH280191   3.467   3.588   4.445  0.0472  0.1955  0.1547
19567TIP3    H180192   3.412   3.542   4.382  1.9680 -0.2621 -1.2986
19567TIP3    H280193   3.503   3.662   4.397  1.2000  0.1042  0.8366
19568TIP3   OH280194   1.540   0.785  10.728  0.0216  0.0178  0.1912
19568TIP3    H180195   1.623   0.789  10.680 -0.1497  0.4076 -0.0666
19568TIP3    H280196   1.501   0.701  10.701  0.2844 -0.1238  0.2426
19569TIP3   OH280197   1.177   3.581  13.827 -0.2378  0.0262  0.1026
19569TIP3    H180198   1.144   3.492  13.822 -2.0597  0.4736  2.4301
19569TIP3    H280199   1.124   3.630  13.764 -0.3023 -0.2542 -0.0601
19570TIP3   OH280200   1.212   2.409  15.111  0.0800  0.0004  0.4722
19570TIP3    H180201   1.263   2.457  15.046  0.8856 -1.5946 -0.1289
19570TIP3    H280202   1.236   2.318  15.098 -1.1411 -0.5556  1.8000
19571TIP3   OH280203   1.916   5.759  15.862  0.0671 -1.0862  0.0910
19571TIP3    H180204   1.895   5.825  15.796  0.0662 -0.9483  0.2278
19571TIP3    H280205   1.936   5.680  15.812 -0.2113 -1.0593 -0.0617
19572TIP3   OH280206   6.609   5.227  13.770 -0.0128 -0.3484 -0.5705
19572TIP3    H180207   6.654   5.207  13.852 -1.9319 -3.1390 -0.0724
19572TIP3    H280208   6.526   5.266  13.798 -0.4810 -0.8909 -1.1814
19573TIP3   OH280209   4.295   3.835  13.582  0.3103  0.0795 -0.1024
19573TIP3    H180210   4.227   3.900  13.602 -0.2205 -0.5853  0.3155
19573TIP3    H280211   4.359   3.882  13.530 -0.1083  0.9187  0.1247
19574TIP3   OH280212   4.287   1.948  10.338  0.4504  0.3729  0.0298
19574TIP3    H180213   4.317   1.866  10.379  1.8917  1.3993  1.1242
19574TIP3    H280214   4.366   1.986  10.300 -0.0713  1.5627  0.0916
19575TIP3   OH280215   5.945   1.224  13.311 -0.1241 -0.0851 -0.1272
19575TIP3    H180216   5.872   1.162  13.316  0.9268 -1.2905  1.1575
19575TIP3    H280217   5.945   1.268  13.396  0.5651 -0.0223 -0.1537
19576TIP3   OH280218   0.166   4.347  11.899  0.1440  0.3869 -0.0076
19576TIP3    H180219   0.164   4.258  11.863 -1.8259  0.1902  0.5127
19576TIP3    H280220   0.099   4.394  11.850  0.5361  1.3397  0.3597
19577TIP3   OH280221   1.197   0.864   2.670 -0.6031  0.0158 -0.2460
19577TIP3    H180222   1.157   0.827   2.749 -0.5589 -0.5882 -0.5035
19577TIP3    H280223   1.146   0.828   2.598 -1.2448  1.2987 -0.4756
19578TIP3   OH280224   3.536   5.094   4.142  0.1935 -0.3477 -0.5178
19578TIP3    H180225   3.479   5.020   4.160 -0.2026  0.0855  0.0634
19578TIP3    H280226   3.623   5.056   4.132 -0.1322 -0.9744 -1.0326
19579TIP3   OH280227   2.375   4.791  14.676 -0.3656 -0.0107 -0.5812
19579TIP3    H180228   2.437   4.819  14.744 -0.7826  0.2400 -0.2934
19579TIP3    H280229   2.430   4.755  14.607 -0.0158 -2.1139  0.7077
19580TIP3   OH280230   6.028   3.896  11.045  0.2112 -0.1877 -0.1207
19580TIP3    H180231   6.088   3.825  11.023  0.8521 -1.2542  4.2059
19580TIP3    H280232   5.947   3.853  11.072 -0.7274  0.9938 -0.9093
19581TIP3   OH280233   4.863   1.413  11.387 -0.2909 -0.1829 -0.3909
19581TIP3    H180234   4.885   1.329  11.346 -2.1129 -1.1610  0.5113
19581TIP3    H280235   4.772   1.429  11.360 -0.8532  0.1489  1.5948
19582TIP3   OH280236   1.635   0.113   0.171  0.4784 -0.0617 -0.2179
19582TIP3    H180237   1.650   0.129   0.264  0.6933  1.2045 -0.4452
19582TIP3    H280238   1.661   0.195   0.128  0.1726 -0.5431 -1.3696
19583TIP3   OH280239   5.886   5.091  16.495  0.2628  0.2418 -0.0772
19583TIP3    H180240   5.967   5.056  16.458  0.3712 -1.0157  1.2675
19583TIP3    H280241   5.843   5.134  16.421  0.9830 -1.2132 -1.4016
19584TIP3   OH280242   1.213   3.349   3.521  0.1672  0.6206 -0.2355
19584TIP3    H180243   1.296   3.320   3.560 -0.0880 -0.6649 -0.5781
19584TIP3    H280244   1.231   3.437   3.488  0.8444  1.1037  1.3555
19585TIP3   OH280245   6.709   2.484  16.358  0.5980 -0.1590  0.0176
19585TIP3    H180246   6.788   2.534  16.380  0.9350 -0.3279 -0.7648
19585TIP3    H280247   6.711   2.477  16.262 -0.5005  0.0409 -0.0308
19586TIP3   OH280248   6.102   0.919  16.594 -0.0411  0.2657 -0.1009
19586TIP3    H180249   6.006   0.926  16.593 -0.0733  0.2137  0.9825
19586TIP3    H280250   6.133   1.002  16.558 -0.4993  0.5643  0.1747
19587TIP3   OH280251   1.844   6.036  12.638 -0.6864 -0.1050 -0.1877
19587TIP3    H180252   1.751   6.033  12.616 -0.9236  1.9329  0.3113
19587TIP3    H280253   1.856   6.121  12.681  1.1549 -0.8673  0.9491
19588TIP3   OH280254   0.665   4.937  15.900 -0.2876  0.4077  0.4287
19588TIP3    H180255   0.646   4.991  15.977  0.3921 -1.2505  1.8364
19588TIP3    H280256   0.671   4.848  15.935  2.1163 -0.1454 -1.2029
19589TIP3   OH280257   2.947   6.146  15.924  0.3664 -0.7493 -0.1946
19589TIP3    H180258   2.983   6.216  15.978 -0.0452  2.0263 -3.1956
19589TIP3    H280259   3.020   6.121  15.866  0.0913 -1.8480 -0.0905
19590TIP3   OH280260   0.747   1.558   5.789 -0.2446  0.5548 -0.2957
19590TIP3    H180261   0.832   1.595   5.765  0.3008  0.8410  1.8711
19590TIP3    H280262   0.684   1.624   5.763  0.0223 -0.0943 -2.8968
19591TIP3   OH280263   5.360   5.920   1.740  0.4120 -0.1765  0.4647
19591TIP3    H180264   5.271   5.886   1.750  0.7346 -0.8017  1.2567
19591TIP3    H280265   5.349   5.999   1.688 -0.7388  0.3676  1.4822
19592TIP3   OH280266   1.116   4.349   5.658 -0.0378 -0.4043  0.1574
19592TIP3    H180267   1.090   4.269   5.612 -1.2035 -0.4452  0.8661
19592TIP3    H280268   1.185   4.320   5.718  0.0391 -0.7407 -0.0874
19593TIP3   OH280269   0.453   4.033  15.984 -0.9525  0.3392  0.6564
19593TIP3    H180270   0.518   4.045  16.053 -0.0665  0.7503 -0.2321
19593TIP3    H280271   0.399   3.960  16.015 -0.7937  0.7320  1.9392
19594TIP3   OH280272   5.387   4.219   3.278  0.0646  0.0400  0.5066
19594TIP3    H180273   5.451   4.183   3.339 -0.0212 -0.5351  0.2624
19594TIP3    H280274   5.328   4.271   3.333 -0.0729 -0.5597  0.9324
19595TIP3   OH280275   4.448   3.816   5.381  0.3756  0.3115 -0.2003
19595TIP3    H180276   4.373   3.809   5.323  0.9125 -1.1882 -0.7508
19595TIP3    H280277   4.423   3.769   5.461  0.8651 -0.5823 -0.5573
19596TIP3   OH280278   3.448   0.754   2.709  0.5669  0.0871 -0.1990
19596TIP3    H180279   3.387   0.685   2.737 -0.5698  1.1030 -0.0462
19596TIP3    H280280   3.509   0.710   2.650  0.0926 -1.1160  0.1635
19597TIP3   OH280281   3.045   6.489   1.090 -0.0137 -0.0441  0.1900
19597TIP3    H180282   2.983   6.417   1.083  0.9444 -0.8041 -0.9182
19597TIP3    H280283   3.055   6.504   1.184 -0.3004 -1.2883  0.4290
19598TIP3   OH280284   5.926   4.597   4.102  0.2027 -0.0511 -0.0437
19598TIP3    H180285   5.979   4.520   4.120  0.8282 -0.0471 -1.6974
19598TIP3    H280286   5.914   4.597   4.007 -2.1552  0.3482  0.1755
19599TIP3   OH280287   0.867   2.925  15.947  0.5889 -0.3335  0.1339
19599TIP3    H180288   0.935   2.978  15.905 -0.5948  0.3067 -1.0608
19599TIP3    H280289   0.895   2.918  16.038  2.5728 -0.6507 -0.4451
19600TIP3   OH280290   3.968   0.070   1.574  0.4134  0.0898 -0.2445
19600TIP3    H180291   3.965   0.072   1.670 -0.4575 -0.2555 -0.2525
19600TIP3    H280292   4.047   0.119   1.551  1.2976 -0.8303  0.6854
19601TIP3   OH280293   0.353   5.337  16.786 -0.2490  0.4658  0.0341
19601TIP3    H180294   0.404   5.354  16.707  0.2002  1.1453  0.4543
19601TIP3    H280295   0.312   5.421  16.806  0.2315  0.5056  0.9276
19602TIP3   OH280296   6.568   6.478  13.413  0.2198  0.2682 -0.3168
19602TIP3    H180297   6.531   6.511  13.331 -1.0534  0.1405  0.1776
19602TIP3    H280298   6.506   6.507  13.480 -0.9512 -2.9099  0.1684
19603TIP3   OH280299   0.587   3.696   0.683  0.0615  0.4839 -0.5592
19603TIP3    H180300   0.527   3.623   0.697 -0.5488  0.9518 -0.6796
19603TIP3    H280301   0.557   3.763   0.744  2.2838 -0.3058  1.5424
19604TIP3   OH280302   6.460   3.651  13.846  0.1898 -0.1443 -0.2681
19604TIP3    H180303   6.482   3.607  13.763 -0.5810 -0.1233 -0.4946
19604TIP3    H280304   6.442   3.742  13.821 -1.0228 -0.3585 -0.2455
19605TIP3   OH280305   3.061   5.624  14.283 -0.2323 -0.5420  0.1947
19605TIP3    H180306   2.974   5.584  14.294 -1.1616  1.6402  1.4721
19605TIP3    H280307   3.108   5.601  14.364 -0.3931  0.0247  0.4548
19606TIP3   OH280308   3.839   2.451   0.269 -1.4064  0.4620  0.1207
19606TIP3    H180309   3.808   2.470   0.358  0.0824 -2.5602  1.4279
19606TIP3    H280310   3.933   2.438   0.278 -1.3243 -0.6168 -1.7414
19607TIP3   OH280311   6.703   1.055  16.626 -0.2673 -0.0073  0.2768
19607TIP3    H180312   6.722   1.143  16.592 -0.2182  0.3155  1.1388
19607TIP3    H280313   6.610   1.057  16.648 -0.3023 -0.2217  0.1505
19608TIP3   OH280314   2.630   2.474  14.529 -0.0227 -1.0470 -0.2118
19608TIP3    H180315   2.612   2.409  14.597  0.3997 -1.1534 -0.2007
19608TIP3    H280316   2.723   2.495  14.540  0.0832 -1.1705 -0.8481
19609TIP3   OH280317   2.957   1.619  12.469 -0.2682  0.1420  0.0649
19609TIP3    H180318   2.864   1.610  12.492 -0.2410 -0.3513 -0.0176
19609TIP3    H280319   3.002   1.561  12.530 -0.0336  0.1900 -0.0654
19610TIP3   OH280320   6.169   0.402  11.630 -0.2898 -0.1993 -0.1862
19610TIP3    H180321   6.226   0.408  11.707  0.3130 -0.4162 -0.6062
19610TIP3    H280322   6.200   0.472  11.571 -2.4204  1.7305  0.8088
19611TIP3   OH280323   5.952   0.166   1.755  0.2134  0.3359 -0.2782
19611TIP3    H180324   5.904   0.090   1.720  0.6373 -0.0039 -0.1234
19611TIP3    H280325   5.909   0.242   1.715 -0.1231  0.0078 -0.5444
19612TIP3   OH280326   6.474   3.325   3.678 -0.0383 -0.4079  0.4232
19612TIP3    H180327   6.525   3.405   3.665 -1.1433  0.0408 -1.6206
19612TIP3    H280328   6.383   3.355   3.679 -0.4775 -1.6264 -0.5640
19613TIP3   OH280329   5.702   5.786   5.091  0.1519 -0.4169  0.2811
19613TIP3    H180330   5.710   5.873   5.131 -0.0439 -0.5131  0.5259
19613TIP3    H280331   5.780   5.739   5.121  0.7175 -0.0509 -0.5473
19614TIP3   OH280332   4.558   1.016   1.424 -0.3662 -0.0575 -0.7016
19614TIP3    H180333   4.507   1.035   1.346 -1.5475  0.0426  0.0771
19614TIP3    H280334   4.555   1.096   1.476 -3.1059 -1.3315  1.3465
19615TIP3   OH280335   6.490   1.917  14.324  0.7353  0.3811  0.0849
19615TIP3    H180336   6.534   1.832  14.330  0.0661  0.1069  1.6197
19615TIP3    H280337   6.428   1.906  14.252  0.3185 -0.6064  0.5719
19616TIP3   OH280338   2.802   1.875  15.924 -0.4834 -0.3636 -0.5961
19616TIP3    H180339   2.793   1.780  15.912  0.4288 -0.3748 -1.3354
19616TIP3    H280340   2.761   1.912  15.846 -2.3842 -0.0526  0.4895
19617TIP3   OH280341   3.165   5.232  11.566 -0.3691 -0.5500 -0.3444
19617TIP3    H180342   3.200   5.178  11.495  0.1170  1.0473 -1.3698
19617TIP3    H280343   3.073   5.207  11.572 -0.2638 -1.1735 -1.0902
19618TIP3   OH280344   1.546   3.148  12.684 -0.2643 -0.4832  0.0487
19618TIP3    H180345   1.517   3.070  12.732 -0.0167  0.1015  1.1911
19618TIP3    H280346   1.608   3.190  12.744 -0.0766  0.3676 -0.7303
19619TIP3   OH280347   2.163   2.644  17.144  0.2001  1.0141 -0.2230
19619TIP3    H180348   2.163   2.671  17.235 -0.4322  0.9880 -0.2118
19619TIP3    H280349   2.071   2.644  17.118  0.2148 -0.5692 -0.3818
19620TIP3   OH280350   5.439   2.410   0.249 -0.0302  0.0094  0.3221
19620TIP3    H180351   5.470   2.320   0.260  0.2938  0.0083 -0.5394
19620TIP3    H280352   5.477   2.439   0.166  0.2738  1.1171  0.8353
19621TIP3   OH280353   4.692   5.059  13.466  0.8313  0.6946 -0.4316
19621TIP3    H180354   4.648   5.071  13.382  0.1844  0.7328 -0.0914
19621TIP3    H280355   4.649   4.983  13.505  0.4482  1.2713  0.2968
19622TIP3   OH280356   4.096   3.509   0.719 -0.9994 -0.4276 -0.3361
19622TIP3    H180357   4.087   3.599   0.751  0.1556 -0.5211  0.2998
19622TIP3    H280358   4.040   3.506   0.641 -0.4123  1.0949 -0.8629
19623TIP3   OH280359   4.336   5.378   0.372 -0.4641  0.3468  0.3550
19623TIP3    H180360   4.318   5.452   0.314  0.5786  0.1101 -0.3004
19623TIP3    H280361   4.390   5.415   0.442  1.2334 -0.0203 -0.7027
19624TIP3   OH280362   3.435   4.261   5.023  0.3375 -0.0183 -0.2272
19624TIP3    H180363   3.524   4.287   5.000  0.1391 -1.1085 -2.5283
19624TIP3    H280364   3.408   4.203   4.951 -1.7350 -0.8137  1.1054
19625TIP3   OH280365   2.569   5.110   0.031 -0.2173 -0.1347  0.0980
19625TIP3    H180366   2.656   5.069   0.023 -0.0682 -0.2442  1.8698
19625TIP3    H280367   2.565   5.172  -0.042  1.5526  0.2119  0.2466
19626TIP3   OH280368   6.250   3.461   5.603 -0.1687 -0.0958 -0.2184
19626TIP3    H180369   6.242   3.550   5.569  0.0431 -0.4394 -1.2165
19626TIP3    H280370   6.344   3.447   5.613 -0.2129 -0.1269  0.1850
19627TIP3   OH280371   1.226   3.016   6.303  0.6227 -0.2662  0.3379
19627TIP3    H180372   1.194   2.946   6.246 -0.1590 -0.3719  0.8815
19627TIP3    H280373   1.299   3.056   6.254 -0.1575 -0.2077 -0.8272
19628TIP3   OH280374   5.224   5.402  15.703 -0.4384 -0.1707 -0.2521
19628TIP3    H180375   5.276   5.324  15.685  0.2501  0.4030 -0.7975
19628TIP3    H280376   5.168   5.377  15.777  1.0212 -0.6124  0.7450
19629TIP3   OH280377   4.083   3.318  12.828 -0.6706  0.7688  0.0640
19629TIP3    H180378   4.124   3.381  12.769 -1.9156 -1.0098 -2.8812
19629TIP3    H280379   4.014   3.367  12.872 -0.9309  1.7503 -1.3842
19630TIP3   OH280380   2.591   1.053   5.730  0.5291 -0.6239  0.6614
19630TIP3    H180381   2.534   0.989   5.687  0.4928 -1.8305  2.4090
19630TIP3    H280382   2.644   1.001   5.790  1.3829  0.8531  1.2216
19631TIP3   OH280383   4.752   5.019   4.335  0.0713 -0.0791  0.2973
19631TIP3    H180384   4.763   5.024   4.240  2.7845  0.5918  0.5544
19631TIP3    H280385   4.699   5.096   4.356 -1.3229 -0.7085 -0.6948
19632TIP3   OH280386   5.515   2.426   1.458  0.2947 -0.0715 -0.2881
19632TIP3    H180387   5.474   2.397   1.539  0.5472 -0.1407 -0.1831
19632TIP3    H280388   5.516   2.522   1.463  0.0746 -0.0667 -0.3287
19633TIP3   OH280389   5.425   1.165   0.137  0.1646  0.5065  0.2324
19633TIP3    H180390   5.413   1.114   0.057  0.1510  0.1709  0.4455
19633TIP3    H280391   5.512   1.141   0.167 -0.7371 -1.2624  1.6345
19634TIP3   OH280392   6.683   3.112   5.776 -0.2001 -0.6560  0.0918
19634TIP3    H180393   6.701   3.179   5.710 -0.9082 -1.1497 -0.6208
19634TIP3    H280394   6.746   3.130   5.846 -0.9764  1.3217  0.3469
19635TIP3   OH280395   0.784   5.086   4.508 -0.3591  0.2945 -0.2774
19635TIP3    H180396   0.834   5.008   4.529  1.5893  1.5394 -0.0077
19635TIP3    H280397   0.713   5.055   4.452 -0.1333 -1.7528  0.4817
19636TIP3   OH280398   3.876   3.146  10.568  0.2955  0.5124 -0.0318
19636TIP3    H180399   3.939   3.214  10.589  1.1897  0.4342 -2.1480
19636TIP3    H280400   3.923   3.064  10.584  0.2304  0.4422 -0.1941
19637TIP3   OH280401   3.137   4.776   2.332 -0.1175 -0.2821 -0.2776
19637TIP3    H180402   3.166   4.783   2.423 -0.8888  1.8672 -0.1316
19637TIP3    H280403   3.217   4.760   2.282  0.4209 -0.7085  0.6995
19638TIP3   OH280404   5.838   6.412  14.269  0.3859 -0.1949  0.4400
19638TIP3    H180405   5.802   6.443  14.186 -1.2494  0.5560  1.3775
19638TIP3    H280406   5.791   6.463  14.336 -0.4185 -2.7390  1.9433
19639TIP3   OH280407   2.158   5.480  10.388  0.2964  0.3386 -0.2922
19639TIP3    H180408   2.073   5.457  10.350  0.3212  0.4973 -0.4421
19639TIP3    H280409   2.147   5.464  10.482  0.1738  0.1369 -0.3404
19640TIP3   OH280410   3.301   1.943  13.389 -0.1749 -0.6823  0.0653
19640TIP3    H180411   3.253   1.998  13.451  2.5676 -0.3749  2.1212
19640TIP3    H280412   3.350   1.882  13.445  1.5822 -1.1436 -1.8650
19641TIP3   OH280413   6.028   3.174  15.183  0.3731 -0.1953 -0.4871
19641TIP3    H180414   6.060   3.101  15.236  0.8495 -0.1296 -0.6716
19641TIP3    H280415   6.087   3.246  15.204 -0.2443  0.2065 -0.1285
19642TIP3   OH280416   5.377   6.745   0.435 -0.4806 -0.0930 -0.2203
19642TIP3    H180417   5.330   6.823   0.405 -0.4844  0.7012  1.6571
19642TIP3    H280418   5.309   6.678   0.443 -1.1829  0.7413  1.4356
19643TIP3   OH280419   4.505   4.137  12.026  0.2413 -0.0321  0.0402
19643TIP3    H180420   4.535   4.114  11.938  0.0818  0.5176 -0.1612
19643TIP3    H280421   4.413   4.161  12.015 -0.5839 -2.5697  0.7935
19644TIP3   OH280422   0.481   3.078  16.639 -0.5143  0.3462  0.1011
19644TIP3    H180423   0.466   3.165  16.601 -3.4638  0.2377  0.7398
19644TIP3    H280424   0.501   3.096  16.731 -2.4417  0.3861  0.5557
19645TIP3   OH280425   2.270   4.773  13.466 -0.1363 -0.1833  0.1138
19645TIP3    H180426   2.327   4.849  13.461 -0.7593  0.2934  0.1692
19645TIP3    H280427   2.316   4.705  13.415  0.3167  0.2910 -0.1204
19646TIP3   OH280428   4.459   6.532   4.166  0.0322 -0.2204 -0.2587
19646TIP3    H180429   4.409   6.536   4.084  0.2696  0.4449 -0.3745
19646TIP3    H280430   4.473   6.624   4.190 -0.9169 -0.3920  1.0721
19647TIP3   OH280431   3.564   4.744   2.802  0.4019 -0.5782 -0.0702
19647TIP3    H180432   3.630   4.704   2.745  0.3915 -0.5764 -0.0837
19647TIP3    H280433   3.614   4.777   2.877  0.3096 -1.3217  0.3240
19648TIP3   OH280434   3.646   2.750   5.519 -0.4852  0.1426  0.3642
19648TIP3    H180435   3.659   2.811   5.591 -0.5491  4.1614 -2.6527
19648TIP3    H280436   3.552   2.753   5.501 -1.1786 -3.8440  2.2601
19649TIP3   OH280437   0.166   6.264   1.043  0.3156  0.0739 -0.0879
19649TIP3    H180438   0.140   6.172   1.049 -0.2085  0.2148 -0.1022
19649TIP3    H280439   0.182   6.278   0.950  0.4499 -0.0182 -0.0787
19650TIP3   OH280440   5.767   4.229   3.490  0.8182  0.2764  0.5701
19650TIP3    H180441   5.765   4.266   3.402  1.0165 -1.1896 -0.0752
19650TIP3    H280442   5.682   4.186   3.500  0.2423  1.5699  1.6428
19651TIP3   OH280443   5.317   2.261  11.048 -0.0866  0.8035  0.8388
19651TIP3    H180444   5.265   2.182  11.035 -0.6977  1.2318  0.5988
19651TIP3    H280445   5.381   2.260  10.977  0.2727  0.2443  1.1648
19652TIP3   OH280446   5.439   3.558   3.135  0.1163  0.3904  0.1133
19652TIP3    H180447   5.524   3.579   3.172  0.0196  1.7814 -0.3697
19652TIP3    H280448   5.377   3.574   3.206  0.0587  1.7418 -0.2057
19653TIP3   OH280449   3.884   2.445   4.407 -0.2987  0.1465  0.4630
19653TIP3    H180450   3.846   2.367   4.367  0.0662 -0.7333  1.7792
19653TIP3    H280451   3.808   2.501   4.427 -0.6177 -0.1432  0.0801
19654TIP3   OH280452   6.531   4.151  12.178  0.1428 -0.2317  0.0173
19654TIP3    H180453   6.527   4.057  12.197  0.5941 -0.1875  0.3692
19654TIP3    H280454   6.609   4.162  12.124 -0.3042 -0.1480 -0.6240
19655TIP3   OH280455   3.249   3.330  13.476 -0.0221  0.2640  0.0933
19655TIP3    H180456   3.246   3.360  13.385  1.2295  0.6514  0.1639
19655TIP3    H280457   3.238   3.409  13.528 -1.2843 -0.0251  0.2999
19656TIP3   OH280458   5.444   1.244   3.089 -0.5473  0.4523 -0.0464
19656TIP3    H180459   5.457   1.329   3.049 -0.1081 -0.1415 -1.2080
19656TIP3    H280460   5.469   1.181   3.021  0.4734 -0.5883  1.2426
19657TIP3   OH280461   0.650   2.987  16.359 -0.0841  0.2403 -0.2484
19657TIP3    H180462   0.685   3.069  16.393  0.4517  0.2836 -0.8893
19657TIP3    H280463   0.556   2.992  16.378  0.1101  0.5026  0.7050
19658TIP3   OH280464   5.144   6.778  14.622  0.3837 -0.1880  0.2787
19658TIP3    H180465   5.158   6.867  14.654  0.3743 -0.6851  1.7367
19658TIP3    H280466   5.190   6.776  14.538 -0.4282  1.4677 -0.2550
19659TIP3   OH280467   1.212   5.129   1.019  0.4936 -0.7284  0.5862
19659TIP3    H180468   1.211   5.173   0.934  0.9306 -0.1279  0.8860
19659TIP3    H280469   1.303   5.100   1.029  0.1497 -2.0096  0.2468
19660TIP3   OH280470   0.076   6.765  14.426 -0.6172  0.4779  0.1193
19660TIP3    H180471   0.056   6.773  14.519 -0.3253  2.0512  0.0662
19660TIP3    H280472  -0.009   6.765  14.382 -0.7285  0.5459  0.3365
19661TIP3   OH280473   2.725   5.581   5.845  0.6771 -0.0576 -0.3191
19661TIP3    H180474   2.780   5.551   5.917  0.2964 -0.0781 -0.0321
19661TIP3    H280475   2.645   5.527   5.852  1.5535 -1.7435 -2.1636
19662TIP3   OH280476   4.017   6.061   0.583 -0.1704  0.5150 -0.0150
19662TIP3    H180477   4.011   6.138   0.640 -0.6683  0.3690  0.1425
19662TIP3    H280478   4.037   6.096   0.497  0.7044  0.7295  0.2668
19663TIP3   OH280479   0.693   6.109   1.877  0.5352  0.4179  0.3694
19663TIP3    H180480   0.740   6.067   1.805 -0.6962  0.2382 -0.3504
19663TIP3    H280481   0.670   6.038   1.937 -0.6234  0.1792 -0.3251
19664TIP3   OH280482   3.945   0.328  14.554 -0.0555 -0.0005  0.1854
19664TIP3    H180483   4.037   0.305  14.543 -0.5703 -1.8365 -0.8200
19664TIP3    H280484   3.939   0.419  14.526  1.3963  0.0366 -0.0794
19665TIP3   OH280485   0.097   6.644   2.240 -0.8855 -0.2081 -0.2345
19665TIP3    H180486   0.063   6.666   2.154  2.2003  0.5967 -1.3862
19665TIP3    H280487   0.044   6.570   2.269 -2.3217 -0.2034 -2.6125
19666TIP3   OH280488   0.392   1.697   4.784 -0.6510  0.5194 -0.1767
19666TIP3    H180489   0.470   1.751   4.775  0.0356 -0.3327  0.4129
19666TIP3    H280490   0.408   1.621   4.728  0.4126 -1.2099  2.2455
19667TIP3   OH280491   5.524   4.771   5.552 -0.1916  0.3359 -0.5512
19667TIP3    H180492   5.465   4.841   5.580  1.1937  0.7957  1.3689
19667TIP3    H280493   5.545   4.793   5.461 -1.1723  1.4099 -0.5396
19668TIP3   OH280494   5.720   4.859  13.724  0.1963  0.0238 -0.3046
19668TIP3    H180495   5.780   4.871  13.797  1.4926  0.4176 -1.3836
19668TIP3    H280496   5.772   4.814  13.657 -0.5092  0.8892 -1.4841
19669TIP3   OH280497   0.060   3.708  16.797 -0.5148 -0.1745 -0.2833
19669TIP3    H180498   0.029   3.766  16.866 -1.0411 -3.8592  2.8934
19669TIP3    H280499   0.153   3.695  16.816 -0.3804 -0.3086 -1.0001
19670TIP3   OH280500   1.386   3.866  13.050 -0.3262 -0.5425  0.0055
19670TIP3    H180501   1.350   3.942  13.096  0.5668  0.2325 -0.5340
19670TIP3    H280502   1.314   3.835  12.995 -0.3565  0.6829 -0.6825
19671TIP3   OH280503   0.432   4.067   5.465 -0.1106  0.0292  0.1069
19671TIP3    H180504   0.448   4.161   5.477  0.2402 -0.2727  2.4767
19671TIP3    H280505   0.440   4.030   5.553  0.8724 -2.3982 -0.9171
19672TIP3   OH280506   3.999   3.440   2.384  0.8797 -0.3458  0.2511
19672TIP3    H180507   4.029   3.443   2.293  0.9880 -0.8389  0.2677
19672TIP3    H280508   4.014   3.350   2.411  0.3414 -0.3407  0.5847
19673TIP3   OH280509   2.529   4.612  11.974 -0.0770 -0.0996 -0.9117
19673TIP3    H180510   2.624   4.625  11.970 -0.0925  0.0938 -0.6347
19673TIP3    H280511   2.493   4.685  11.923 -0.1908  1.3274  1.1093
19674TIP3   OH280512   5.791   6.165   3.678 -0.3273  0.2568 -0.2543
19674TIP3    H180513   5.698   6.165   3.703 -0.1014 -0.9330  0.6401
19674TIP3    H280514   5.819   6.255   3.693 -0.9171  0.2285  1.1408
19675TIP3   OH280515   2.440   6.442   3.469 -0.5303  0.2271 -0.2269
19675TIP3    H180516   2.387   6.418   3.545 -0.5297  0.6711 -0.0822
19675TIP3    H280517   2.529   6.449   3.503 -0.3036 -0.8984 -0.5484
19676TIP3   OH280518   1.469   3.656   4.909 -0.3712  0.3766 -0.0770
19676TIP3    H180519   1.381   3.662   4.872 -1.0668 -0.0611  1.4223
19676TIP3    H280520   1.493   3.564   4.897 -0.3607  0.3626  0.0537
19677TIP3   OH280521   0.965   6.081   0.159  0.5758  0.7933  0.4670
19677TIP3    H180522   0.959   6.129   0.241 -0.6550 -1.4611  1.8033
19677TIP3    H280523   1.016   6.002   0.182  0.5790  0.3338 -1.0337
19678TIP3   OH280524   6.647   1.209   0.081  0.4913 -0.0098  0.0860
19678TIP3    H180525   6.665   1.300   0.106  1.2908  0.1282 -0.9373
19678TIP3    H280526   6.552   1.200   0.093  0.6865  0.2590  2.3505
19679TIP3   OH280527   2.310   6.167  15.729  0.7502 -0.4208 -0.6154
19679TIP3    H180528   2.325   6.130  15.816  0.0923 -0.2949 -0.4415
19679TIP3    H280529   2.242   6.233  15.742  3.8674  3.1268 -0.3311
19680TIP3   OH280530   3.525   4.073  14.862 -0.6932  0.3590 -0.2586
19680TIP3    H180531   3.551   4.133  14.792 -1.7640 -0.4024 -1.3412
19680TIP3    H280532   3.449   4.027  14.827  0.8563 -2.5760  0.0090
19681TIP3   OH280533   0.990   3.589  15.135 -0.0124  0.0504 -0.2736
19681TIP3    H180534   1.073   3.626  15.164 -0.3335  1.2077 -0.7632
19681TIP3    H280535   1.014   3.509  15.089  0.9251  0.8383 -1.2006
19682TIP3   OH280536   5.566   2.143  16.884 -0.2203 -0.2834 -0.4019
19682TIP3    H180537   5.553   2.155  16.790  1.0768 -0.2277 -0.5918
19682TIP3    H280538   5.647   2.092  16.890 -1.2157 -1.8362  0.6410
19683TIP3   OH280539   5.341   1.629  14.377 -0.0204  0.0401  0.2786
19683TIP3    H180540   5.407   1.561  14.365  0.7152  0.5701  1.2219
19683TIP3    H280541   5.261   1.592  14.338  1.0299 -0.2157 -1.7504
19684TIP3   OH280542   0.740   4.980   0.061 -0.5378  0.1987 -0.5576
19684TIP3    H180543   0.782   4.964  -0.023 -0.5664  0.2596 -0.5836
19684TIP3    H280544   0.745   4.896   0.107 -0.4845  0.1773 -0.6029
19685TIP3   OH280545   5.948   6.373   3.236  0.2659  0.6233  0.0454
19685TIP3    H180546   6.001   6.392   3.159  1.3503 -0.3213  0.5297
19685TIP3    H280547   5.977   6.437   3.301  1.9476 -0.8181  0.7920
19686TIP3   OH280548   1.709   3.409  16.026  0.4514 -0.2612 -0.0217
19686TIP3    H180549   1.774   3.342  16.048  0.2928 -0.0467  1.1764
19686TIP3    H280550   1.678   3.441  16.111  0.3843  1.2013 -0.5672
19687TIP3   OH280551   0.700   2.059   4.885 -0.7907 -0.5563 -0.6015
19687TIP3    H180552   0.621   2.026   4.843 -0.6662  0.9323 -2.1656
19687TIP3    H280553   0.772   2.017   4.837 -0.6540  0.5744 -1.4522
19688TIP3   OH280554   3.949   6.522  11.315  0.1354  0.2514 -0.1953
19688TIP3    H180555   3.957   6.575  11.236 -0.1565  0.0884 -0.3324
19688TIP3    H280556   3.861   6.485  11.311 -0.4985  1.5504  1.0111
19689TIP3   OH280557   4.361   2.351  16.668 -0.4939  0.1450  0.2372
19689TIP3    H180558   4.388   2.264  16.639 -0.9751 -0.9610  2.7838
19689TIP3    H280559   4.425   2.375  16.735 -1.4692  0.8851  0.9347
19690TIP3   OH280560   1.510   6.684  16.206 -0.0940  0.1325  0.0184
19690TIP3    H180561   1.473   6.651  16.288 -0.9155 -0.5938 -0.6263
19690TIP3    H280562   1.435   6.690  16.147  0.6977 -0.7064 -1.1123
19691TIP3   OH280563   1.784   6.357  12.683  0.4264  0.0563  0.0992
19691TIP3    H180564   1.811   6.373  12.592  2.0375 -0.8415  0.3876
19691TIP3    H280565   1.820   6.431  12.732 -0.4938  0.5718  0.0136
19692TIP3   OH280566   6.146   4.668  13.891 -0.5999  0.1763 -0.4275
19692TIP3    H180567   6.149   4.653  13.797  1.9729  2.4379 -0.8391
19692TIP3    H280568   6.192   4.593  13.929 -0.7534 -0.2457 -1.0734
19693TIP3   OH280569   2.501   0.223  10.486  0.1510 -0.1599 -0.5993
19693TIP3    H180570   2.540   0.178  10.561  1.2676 -0.5404 -1.3914
19693TIP3    H280571   2.432   0.163  10.456 -0.7474  0.2978  0.5114
19694TIP3   OH280572   3.206   6.632   4.732 -0.2331  0.8452 -0.5607
19694TIP3    H180573   3.214   6.556   4.790 -1.1150 -0.5554 -2.1924
19694TIP3    H280574   3.231   6.707   4.787  1.0634 -0.6446  0.9833
19695TIP3   OH280575   4.539   2.172   6.228 -0.2461 -0.0121  0.2582
19695TIP3    H180576   4.510   2.248   6.177 -2.0559 -1.2290 -0.6383
19695TIP3    H280577   4.493   2.098   6.189 -1.4104 -1.0958  3.3627
19696TIP3   OH280578   3.727   4.303   6.270 -0.0464  0.0554 -0.3056
19696TIP3    H180579   3.664   4.302   6.199  1.2273  1.6410 -1.5500
19696TIP3    H280580   3.752   4.211   6.282 -0.6823 -0.2974 -1.5489
19697TIP3   OH280581   3.095   1.820   0.510 -0.0422  0.6923 -0.4586
19697TIP3    H180582   3.095   1.772   0.593 -0.6777 -0.4805 -1.1040
19697TIP3    H280583   3.157   1.773   0.455 -0.9263  0.3776 -1.2209
19698TIP3   OH280584   5.522   3.624  16.267 -0.5409 -0.2249 -0.5454
19698TIP3    H180585   5.519   3.709  16.310  0.7703  0.7068 -2.1668
19698TIP3    H280586   5.565   3.641  16.183  0.6754 -2.6675 -0.5100
19699TIP3   OH280587   4.862   1.856   0.653 -0.0007 -0.4883 -0.2619
19699TIP3    H180588   4.910   1.820   0.578 -0.2311  0.0377 -0.6679
19699TIP3    H280589   4.770   1.849   0.628 -0.0352  1.3559 -0.8269
19700TIP3   OH280590   4.836   4.330  14.242  0.1966  0.3752 -0.1547
19700TIP3    H180591   4.875   4.360  14.159  1.1973  1.2264  0.5968
19700TIP3    H280592   4.873   4.242  14.254  0.6571  0.5514 -0.2376
19701TIP3   OH280593   1.242   3.493  15.917 -0.3811  0.1213  0.2533
19701TIP3    H180594   1.332   3.465  15.898 -0.3520 -0.8891  1.6781
19701TIP3    H280595   1.190   3.459  15.844  0.6213  2.5408 -1.7279
19702TIP3   OH280596   3.201   4.729   0.468  0.3712  0.1833  0.3759
19702TIP3    H180597   3.282   4.779   0.458  2.2883 -2.7606  0.0773
19702TIP3    H280598   3.169   4.718   0.379 -0.4346  1.3667  0.4959
19703TIP3   OH280599   0.677   5.428   2.347 -0.1425 -0.2362  0.8272
19703TIP3    H180600   0.761   5.400   2.309  0.3212  0.4079  1.3495
19703TIP3    H280601   0.627   5.462   2.273 -0.0653 -0.9007  0.4617
19704TIP3   OH280602   4.328   3.041   5.712 -0.0413  0.1101 -0.2030
19704TIP3    H180603   4.279   3.094   5.775  0.4120 -0.3802  0.5754
19704TIP3    H280604   4.262   2.984   5.673 -0.0389 -0.9304  1.2314
19705TIP3   OH280605   4.577   1.815   1.035 -0.4965  0.2926 -0.4523
19705TIP3    H180606   4.559   1.752   0.965 -1.7794 -1.1199  1.0439
19705TIP3    H280607   4.491   1.840   1.067  0.0677  0.6397  0.8519
19706TIP3   OH280608   5.725   1.235   5.648  0.2049  0.0493 -0.4013
19706TIP3    H180609   5.665   1.223   5.574 -2.5264  2.9165  1.1237
19706TIP3    H280610   5.780   1.308   5.623 -0.4616  0.7681  0.1797
19707TIP3   OH280611   3.302   5.712  17.048  0.2417  0.4448  0.0858
19707TIP3    H180612   3.350   5.741  16.970 -0.5388  1.0542 -0.1808
19707TIP3    H280613   3.333   5.769  17.118  0.6801  0.1347  0.1501
19708TIP3   OH280614   4.398   3.262   4.342  0.2145 -0.0137  0.0570
19708TIP3    H180615   4.363   3.215   4.266  0.0218  0.2427 -0.0139
19708TIP3    H280616   4.441   3.339   4.305  0.2920  0.0087  0.1932
19709TIP3   OH280617   5.211   4.767  13.047 -0.3225  0.2041  0.2399
19709TIP3    H180618   5.155   4.821  13.103 -0.4526 -0.9999  1.3017
19709TIP3    H280619   5.269   4.722  13.107  1.0395  0.5369 -0.7647
19710TIP3   OH280620   2.799   2.675  10.617  0.5316 -0.2287 -0.6401
19710TIP3    H180621   2.837   2.744  10.671 -0.0486  0.7506 -1.4347
19710TIP3    H280622   2.739   2.722  10.558 -0.5593 -1.5255 -0.5960
19711TIP3   OH280623   2.182   1.839  13.060  0.2847  0.3531 -0.2351
19711TIP3    H180624   2.210   1.919  13.105 -0.6399 -0.9082  2.8283
19711TIP3    H280625   2.087   1.848  13.052  0.3416  0.1816 -1.2477
19712TIP3   OH280626   6.269   4.855  13.069  0.5707 -0.4556 -0.3444
19712TIP3    H180627   6.229   4.883  12.987  0.0468 -0.2925 -0.0456
19712TIP3    H280628   6.309   4.771  13.050 -0.0073 -0.6725 -0.6413
19713TIP3   OH280629   0.284   3.771   1.014  0.3863 -0.2909 -0.1118
19713TIP3    H180630   0.234   3.795   1.092 -1.0526 -0.4401 -0.9470
19713TIP3    H280631   0.311   3.681   1.029  1.6164  0.2172  0.9323
19714TIP3   OH280632   0.363   3.649   4.523  0.5335 -0.0427  0.7080
19714TIP3    H180633   0.392   3.564   4.490 -0.3483  0.4779 -1.5743
19714TIP3    H280634   0.431   3.675   4.585  2.3518 -1.0757 -0.7482
19715TIP3   OH280635   3.565   3.834   5.372 -0.2395  0.6380  0.3502
19715TIP3    H180636   3.487   3.781   5.385  0.8125 -1.2717 -0.7134
19715TIP3    H280637   3.549   3.881   5.290 -0.0797 -0.1674 -0.1553
19716TIP3   OH280638   0.747   2.190  11.174  0.4843 -0.6168  0.0348
19716TIP3    H180639   0.800   2.131  11.120 -0.6822 -0.1956 -1.6664
19716TIP3    H280640   0.666   2.142  11.190 -0.7934  0.6898 -2.0011
19717TIP3   OH280641   5.403   0.889   3.799  0.1802  0.4692  0.1696
19717TIP3    H180642   5.317   0.931   3.788  0.8706  2.0365  0.4908
19717TIP3    H280643   5.447   0.906   3.716  0.4323  0.2833  0.2670
19718TIP3   OH280644   5.803   0.240   0.765  0.5015  0.0852 -0.1095
19718TIP3    H180645   5.793   0.202   0.677  1.2180  0.3767 -0.3199
19718TIP3    H280646   5.718   0.280   0.783  0.8537  1.5417 -1.4078
19719TIP3   OH280647   1.132   0.540  15.455 -0.4561 -0.0994 -0.4438
19719TIP3    H180648   1.138   0.618  15.510  0.7190  0.6721 -1.5883
19719TIP3    H280649   1.046   0.547  15.413 -0.0283  1.0871 -1.1970
19720TIP3   OH280650   0.110   2.731   3.711  0.0930  0.6639  0.3460
19720TIP3    H180651   0.142   2.652   3.755 -2.2021  0.0780  1.1247
19720TIP3    H280652   0.108   2.798   3.780 -1.4619  0.3322  0.6700
19721TIP3   OH280653   1.468   3.764  12.158 -0.7327 -0.0180  0.2335
19721TIP3    H180654   1.386   3.735  12.118 -0.4949  0.0350 -0.2955
19721TIP3    H280655   1.440   3.808  12.239 -1.0803 -2.1345  1.3523
19722TIP3   OH280656   4.171   5.300  16.522 -0.1343 -0.5841 -0.0931
19722TIP3    H180657   4.264   5.309  16.501  0.1544 -0.5788  1.0964
19722TIP3    H280658   4.151   5.378  16.575 -0.6612 -0.8891  0.1623
19723TIP3   OH280659   2.371   5.079  14.607  0.1522 -0.2194  0.0533
19723TIP3    H180660   2.325   5.001  14.639 -0.6238 -0.7246 -2.1228
19723TIP3    H280661   2.344   5.087  14.515  1.4968  1.6794 -0.2366
19724TIP3   OH280662   5.889   3.643   2.768  0.1732  0.4313  0.1738
19724TIP3    H180663   5.979   3.623   2.795  0.1989 -2.2122 -1.4986
19724TIP3    H280664   5.837   3.625   2.846  1.0830  2.4934  1.3217
19725TIP3   OH280665   0.033   4.609   4.085  0.0491 -0.3189  0.1122
19725TIP3    H180666   0.065   4.537   4.032  1.1509  0.0731  0.2277
19725TIP3    H280667  -0.008   4.669   4.022  0.7862 -0.1584 -0.2226
19726TIP3   OH280668   3.200   3.467  11.377  0.0045  0.2650 -0.1901
19726TIP3    H180669   3.110   3.471  11.410  0.8171  1.1098  2.1990
19726TIP3    H280670   3.213   3.550  11.331 -0.4483  0.1356 -0.5460
19727TIP3   OH280671   1.164   3.331  12.891  0.5133 -0.7145  0.3726
19727TIP3    H180672   1.210   3.343  12.808  0.8245  1.5492  0.8022
19727TIP3    H280673   1.213   3.262  12.935 -0.3954 -2.8544 -1.7721
19728TIP3   OH280674   3.335   1.662  14.172  0.2217 -0.4811 -0.9440
19728TIP3    H180675   3.322   1.686  14.264  0.0742 -0.3008 -1.0108
19728TIP3    H280676   3.413   1.710  14.146 -1.0680  1.4195 -1.5872
19729TIP3   OH280677   3.568   5.226   4.999  0.3165 -0.1581  0.2538
19729TIP3    H180678   3.527   5.306   4.967 -0.3010 -0.7980 -0.5814
19729TIP3    H280679   3.532   5.214   5.087 -0.5824 -0.2170 -0.1171
19730TIP3   OH280680   3.121   3.149   0.500  0.0804 -0.6083 -0.2069
19730TIP3    H180681   3.136   3.244   0.496  1.9428 -0.8498 -4.7921
19730TIP3    H280682   3.028   3.139   0.480 -0.0815  0.1929  0.0663
19731TIP3   OH280683   5.389   2.095   5.031 -0.2139  0.1966 -0.3372
19731TIP3    H180684   5.474   2.138   5.025  0.1035 -0.4626 -0.6318
19731TIP3    H280685   5.370   2.068   4.941  0.6174 -2.2357  0.1678
19732TIP3   OH280686   4.139   6.197   0.356 -0.0166  0.5490  0.0136
19732TIP3    H180687   4.119   6.283   0.394  0.2301 -0.0800  1.6551
19732TIP3    H280688   4.234   6.200   0.341  0.0334  0.4762  0.3092
19733TIP3   OH280689   4.859   3.899   5.185  0.1617  0.6537 -0.4690
19733TIP3    H180690   4.878   3.989   5.159 -0.3466  1.0896  0.6328
19733TIP3    H280691   4.812   3.862   5.110 -0.1038  1.4680 -0.7103
19734TIP3   OH280692   6.728   3.876  16.642  0.2500  0.0929 -0.1699
19734TIP3    H180693   6.771   3.917  16.567  1.1324  1.4173  1.0121
19734TIP3    H280694   6.790   3.810  16.672 -0.8134 -1.6252 -1.5602
19735TIP3   OH280695   0.857   4.629   6.560 -0.2388 -0.1820 -0.3806
19735TIP3    H180696   0.919   4.558   6.543  0.2045  0.3956 -1.2980
19735TIP3    H280697   0.866   4.687   6.484 -0.0663  1.2303  0.6809
19736TIP3   OH280698   0.313   4.764  14.961  0.3338  0.2972 -0.0477
19736TIP3    H180699   0.403   4.788  14.939  0.7989  0.2806  1.7397
19736TIP3    H280700   0.310   4.764  15.056 -1.5716  0.2954 -0.0647
19737TIP3   OH280701   3.275   0.728   6.687 -0.3962  0.1436  0.1479
19737TIP3    H180702   3.327   0.808   6.673 -0.5405  0.0950 -0.6952
19737TIP3    H280703   3.249   0.733   6.779  1.3863 -0.0023  0.6905
19738TIP3   OH280704   1.071   4.805  15.414  0.2402 -0.3199 -0.2811
19738TIP3    H180705   1.064   4.861  15.337  0.2659 -1.2596 -0.9782
19738TIP3    H280706   0.991   4.753  15.413  0.5943 -0.8759 -0.1032
19739TIP3   OH280707   4.228   2.252  13.011 -0.1945 -0.1752  1.0683
19739TIP3    H180708   4.272   2.182  13.058  1.3312  0.4657  0.6664
19739TIP3    H280709   4.190   2.210  12.933  0.6059 -0.5826  0.8919
19740TIP3   OH280710   2.957   2.165   0.459  0.6804  0.4530  0.8024
19740TIP3    H180711   2.914   2.141   0.377  0.2243  1.4971  0.7252
19740TIP3    H280712   3.030   2.103   0.467 -0.8201 -1.3843  0.9564
19741TIP3   OH280713   4.635   0.234  11.228  0.0120 -0.0213 -0.9408
19741TIP3    H180714   4.641   0.239  11.133 -0.1625  1.7840 -0.8815
19741TIP3    H280715   4.685   0.309  11.260 -0.9960  0.1336  0.3513
19742TIP3   OH280716   4.029   2.108   3.100 -0.0723 -0.2229  0.2278
19742TIP3    H180717   4.004   2.040   3.162  2.2353 -0.8476  0.5547
19742TIP3    H280718   3.972   2.182   3.122 -1.5809 -1.4976  0.8592
19743TIP3   OH280719   4.508   4.580  14.043  0.0056 -0.2237  0.7161
19743TIP3    H180720   4.482   4.581  14.135  2.8921  0.6708  1.6264
19743TIP3    H280721   4.506   4.672  14.017  1.1378 -0.2363  0.5331
19744TIP3   OH280722   0.642   0.605  11.131  0.0338  0.7001 -0.3253
19744TIP3    H180723   0.606   0.589  11.044 -1.4296  0.0597  0.3523
19744TIP3    H280724   0.719   0.549  11.136  1.0493  1.8794 -1.7177
19745TIP3   OH280725   3.081   3.907   5.769 -0.4423  0.4837 -0.4667
19745TIP3    H180726   3.040   3.821   5.775 -1.7207  1.1315  0.6376
19745TIP3    H280727   3.170   3.890   5.738 -0.5121 -1.2785  0.2108
19746TIP3   OH280728   4.781   6.487  14.802  0.1533 -0.4981  0.3013
19746TIP3    H180729   4.688   6.510  14.798  0.3215 -0.0361 -2.3349
19746TIP3    H280730   4.792   6.420  14.735  1.6418 -0.9568  0.9687
19747TIP3   OH280731   4.395   0.631   5.556  0.6794 -0.2723  0.1321
19747TIP3    H180732   4.419   0.695   5.623  1.8014  0.6371 -1.0858
19747TIP3    H280733   4.300   0.630   5.557  0.6576  0.9377  0.6244
19748TIP3   OH280734   1.711   3.297   2.757  0.0326 -0.2950 -0.8752
19748TIP3    H180735   1.738   3.210   2.786 -0.2150  0.2360  1.1376
19748TIP3    H280736   1.648   3.280   2.687 -0.3439 -1.7688 -0.2283
19749TIP3   OH280737   5.927   0.473   0.101  0.5581  0.2384  0.4012
19749TIP3    H180738   6.012   0.465   0.058  0.4838  0.4995  0.1989
19749TIP3    H280739   5.921   0.566   0.125 -0.2072  0.5175 -0.7312
19750TIP3   OH280740   1.098   4.053  14.062 -0.4043 -0.4179  0.0159
19750TIP3    H180741   1.128   3.972  14.021  0.2611  0.0099 -0.3667
19750TIP3    H280742   1.010   4.067  14.027  0.4968  0.4416 -2.0862
19751TIP3   OH280743   5.865   6.062  12.165  0.1005 -0.0338  0.4754
19751TIP3    H180744   5.773   6.044  12.186  0.9669 -3.3243  2.2671
19751TIP3    H280745   5.894   6.123  12.232 -0.6833  0.9160 -0.0199
19752TIP3   OH280746   5.103   0.248  13.570 -0.1833  0.0690  0.2429
19752TIP3    H180747   5.106   0.169  13.624 -0.5263  0.9798  1.6379
19752TIP3    H280748   5.191   0.255  13.533  0.1003 -0.5009  0.7929
19753TIP3   OH280749   6.514   3.518   6.047 -0.0194  0.2166 -0.1079
19753TIP3    H180750   6.478   3.432   6.069 -0.1786  0.1307 -0.6810
19753TIP3    H280751   6.508   3.522   5.951  0.7679  0.5176 -0.1504
19754TIP3   OH280752   4.513   4.042  15.843 -0.1560  0.0265  0.2873
19754TIP3    H180753   4.486   4.132  15.864  0.3264  0.5763 -1.2885
19754TIP3    H280754   4.455   4.016  15.772  0.0187 -0.7387  0.4219
19755TIP3   OH280755   1.607   1.345  11.497  0.7411 -0.1090 -0.1679
19755TIP3    H180756   1.654   1.420  11.534  0.1726  0.5668 -0.7911
19755TIP3    H280757   1.553   1.382  11.427  0.4537 -1.1023 -0.4925
19756TIP3   OH280758   5.911   0.259   2.301 -0.0136  0.1062  0.5141
19756TIP3    H180759   5.936   0.287   2.214  0.7105 -1.1375  0.2921
19756TIP3    H280760   5.842   0.194   2.287 -0.2833  0.3057  0.8979
19757TIP3   OH280761   5.591   3.397  14.438  0.0503 -0.5087  0.0426
19757TIP3    H180762   5.574   3.413  14.530 -0.4703 -2.7356  0.4056
19757TIP3    H280763   5.681   3.425  14.424  0.9212 -2.1750  1.8251
19758TIP3   OH280764   2.378   3.490   3.617 -0.2146 -0.5820 -0.2175
19758TIP3    H180765   2.312   3.552   3.650 -0.5698 -0.4246 -1.1993
19758TIP3    H280766   2.389   3.427   3.688 -0.5803  0.0465  0.4067
19759TIP3   OH280767   0.697   5.597  17.126  0.6554 -0.2236  0.1936
19759TIP3    H180768   0.695   5.589  17.031  0.0379  0.3791  0.1483
19759TIP3    H280769   0.624   5.543  17.156  0.6430 -0.1485  0.3003
19760TIP3   OH280770   6.294   1.449  15.338  0.3584  0.1000  0.0677
19760TIP3    H180771   6.335   1.536  15.343  0.9419 -0.2301  3.4147
19760TIP3    H280772   6.364   1.388  15.358 -0.4530 -0.9963 -0.3674
19761TIP3   OH280773   2.271   2.293   2.361 -0.4662 -0.0401  0.1146
19761TIP3    H180774   2.321   2.255   2.434  0.6983 -0.6524 -0.9588
19761TIP3    H280775   2.233   2.218   2.316  0.8529  0.0925 -1.3142
19762TIP3   OH280776   0.982   4.820  16.138 -0.2758  0.2390 -0.3903
19762TIP3    H180777   1.054   4.871  16.176  0.0859 -0.4932 -0.0700
19762TIP3    H280778   0.952   4.764  16.210 -0.6519 -0.0161 -0.7429
19763TIP3   OH280779   5.886   0.401  11.969  0.0053  0.2478 -0.6978
19763TIP3    H180780   5.909   0.388  11.877 -0.3805 -0.8228 -0.6640
19763TIP3    H280781   5.869   0.494  11.977  0.4458  0.4169 -1.6189
19764TIP3   OH280782   1.568   2.009   0.970 -0.4069  0.1833 -0.1586
19764TIP3    H180783   1.620   1.937   1.006 -0.4281  1.1560  1.9797
19764TIP3    H280784   1.479   1.993   1.002 -0.2661  1.5161  1.0174
19765TIP3   OH280785   3.027   3.241  16.701 -0.1697 -0.3344 -0.4348
19765TIP3    H180786   3.024   3.331  16.735  1.3300 -0.0735 -0.9049
19765TIP3    H280787   2.966   3.241  16.627 -0.4453  0.2074 -0.2089
19766TIP3   OH280788   6.822   1.723   6.113 -0.1027  0.0094  0.3963
19766TIP3    H180789   6.744   1.682   6.074 -0.4002  0.5310  0.4319
19766TIP3    H280790   6.843   1.667   6.187 -0.2700 -0.3022  0.2128
19767TIP3   OH280791   5.899   6.180  15.826  0.1553 -0.4076  0.1043
19767TIP3    H180792   5.898   6.094  15.783 -0.8507  0.1758 -1.1103
19767TIP3    H280793   5.901   6.242  15.753  0.1985  0.6123  0.9589
19768TIP3   OH280794   3.068   1.773  15.916  1.0517 -0.3670 -0.5523
19768TIP3    H180795   3.138   1.823  15.875  1.2684 -1.2945 -1.3587
19768TIP3    H280796   2.999   1.837  15.935  1.9085  0.4677 -0.2021
19769TIP3   OH280797   3.563   0.781   2.135 -0.2082 -0.2619  0.9114
19769TIP3    H180798   3.643   0.730   2.147 -0.1309  0.1062  2.0737
19769TIP3    H280799   3.592   0.866   2.104 -0.1060  0.0050  1.7208
19770TIP3   OH280800   5.940   5.965   6.203 -0.3753 -0.0483 -0.0962
19770TIP3    H180801   5.959   5.903   6.274  0.2574  0.3546  0.0962
19770TIP3    H280802   5.885   6.031   6.243 -0.8838 -0.3727 -0.2509
19771TIP3   OH280803   1.960   6.301   5.070  0.3594 -0.0911  0.2340
19771TIP3    H180804   2.055   6.311   5.082  0.2704  1.1273  0.1022
19771TIP3    H280805   1.951   6.260   4.984  0.7897 -1.2089  0.7133
19772TIP3   OH280806   3.454   4.293  15.566 -0.4665  0.4128  0.3287
19772TIP3    H180807   3.406   4.276  15.647 -1.0319 -1.5814 -0.3738
19772TIP3    H280808   3.411   4.239  15.500  1.0794  0.6181 -0.9136
19773TIP3   OH280809   1.061   1.956  13.751  0.4399 -0.0688 -0.5036
19773TIP3    H180810   0.968   1.970  13.772  0.5741 -0.1503  0.1666
19773TIP3    H280811   1.076   1.864  13.772 -0.0009 -0.8536 -3.2209
19774TIP3   OH280812   1.020   6.053  17.072  0.0482  0.7907 -0.0706
19774TIP3    H180813   1.105   6.078  17.109  0.3637  0.2182 -0.3903
19774TIP3    H280814   0.956   6.087  17.134  0.5935 -1.3618  1.8085
19775TIP3   OH280815   5.345   4.480   1.083  0.0585  0.0898  0.3465
19775TIP3    H180816   5.333   4.422   1.158 -1.0116 -1.2708 -0.8258
19775TIP3    H280817   5.440   4.488   1.074  0.2155  0.9228  2.2894
19776TIP3   OH280818   3.313   1.881   4.090  0.3102  0.1500  0.7235
19776TIP3    H180819   3.236   1.891   4.146  0.7762 -2.1238  1.9096
19776TIP3    H280820   3.336   1.970   4.064 -2.2298  0.9658  0.9618
19777TIP3   OH280821   4.792   3.059  11.736  0.2791  0.0179 -0.1941
19777TIP3    H180822   4.752   2.974  11.757 -1.6640  0.4539 -1.7761
19777TIP3    H280823   4.759   3.118  11.804 -0.7382  0.0857 -0.7259
19778TIP3   OH280824   0.967   4.391   5.279  0.7186 -0.4896  0.6700
19778TIP3    H180825   1.025   4.390   5.203 -0.4357  0.7901 -0.2789
19778TIP3    H280826   0.880   4.407   5.242 -0.0422 -0.9838  2.1720
19779TIP3   OH280827   4.435   1.126  13.220 -0.0069  0.6620  0.0796
19779TIP3    H180828   4.438   1.206  13.273 -0.2320  1.3815 -0.9496
19779TIP3    H280829   4.388   1.152  13.140 -0.1451 -0.5232 -0.2472
19780TIP3   OH280830   2.876   1.258  12.558  0.4605  0.1801 -0.4160
19780TIP3    H180831   2.865   1.175  12.606  0.1465 -0.0345 -0.8541
19780TIP3    H280832   2.925   1.314  12.619  0.9549 -0.4308 -0.2383
19781TIP3   OH280833   5.734   1.013   1.496  0.0787 -0.6432  0.2987
19781TIP3    H180834   5.689   0.995   1.579  0.8639 -2.2365  0.4196
19781TIP3    H280835   5.810   1.066   1.520  0.4407 -1.3106  0.6383
19782TIP3   OH280836   1.320   2.121  12.928  0.0683  0.2862 -0.8869
19782TIP3    H180837   1.255   2.178  12.969  0.4040 -0.0079  0.0839
19782TIP3    H280838   1.269   2.051  12.888 -0.2566  0.4222 -0.7115
19783TIP3   OH280839   2.508   3.537   5.686  0.0150  0.2093 -0.0645
19783TIP3    H180840   2.544   3.501   5.767  1.4295 -0.8572 -1.0980
19783TIP3    H280841   2.562   3.615   5.669  0.7457 -0.4098 -0.7109
19784TIP3   OH280842   3.619   2.436  16.936 -0.2132  0.3362 -0.0166
19784TIP3    H180843   3.582   2.524  16.929 -2.2451 -0.5235 -1.2113
19784TIP3    H280844   3.670   2.437  17.017  0.1813  2.7128 -0.2369
19785TIP3   OH280845   4.653   2.352  14.235 -0.0918 -0.1710 -0.0794
19785TIP3    H180846   4.648   2.385  14.325 -2.5279  0.6040 -0.4276
19785TIP3    H280847   4.634   2.429  14.181  0.2266 -0.8750 -1.2107
19786TIP3   OH280848   0.766   2.909  11.042  0.3148 -0.5966  0.1025
19786TIP3    H180849   0.812   2.825  11.038 -0.9605 -1.2682 -1.2118
19786TIP3    H280850   0.721   2.907  11.127  2.2715 -0.1176  1.2140
19787TIP3   OH280851   3.981   3.891  12.503  0.2554 -0.0206  0.0049
19787TIP3    H180852   3.945   3.819  12.453 -0.9061  1.1332 -0.8936
19787TIP3    H280853   4.049   3.929  12.446  1.0411 -0.5266  0.5754
19788TIP3   OH280854   5.358   5.729  12.917 -0.4506 -0.1518  0.0954
19788TIP3    H180855   5.338   5.712  13.009  0.8907 -0.3724  0.3771
19788TIP3    H280856   5.415   5.656  12.891  1.0823  1.0997 -0.2190
19789TIP3   OH280857   1.279   4.258  13.780  0.5882 -0.7382  0.0496
19789TIP3    H180858   1.359   4.278  13.732  0.9848 -0.6870  0.7363
19789TIP3    H280859   1.308   4.215  13.860 -0.0735 -0.7583  0.2858
19790TIP3   OH280860   1.568   6.273  15.070 -0.2981 -0.8422 -0.6077
19790TIP3    H180861   1.620   6.321  15.134 -0.4256  0.6992 -1.5795
19790TIP3    H280862   1.594   6.182  15.079  0.8211 -0.4288  0.5300
19791TIP3   OH280863   0.377   4.507  14.161  0.2240 -0.1061 -0.0467
19791TIP3    H180864   0.438   4.573  14.194  1.1410 -0.9072 -0.0953
19791TIP3    H280865   0.406   4.425  14.202  0.6645 -0.9217 -1.8895
19792TIP3   OH280866   5.712   4.756  12.951  0.1061  0.6585 -0.0674
19792TIP3    H180867   5.730   4.702  13.027  1.8241  1.5444  0.2180
19792TIP3    H280868   5.720   4.696  12.876 -5.0472 -1.0944  0.3884
19793TIP3   OH280869   6.375   4.202   6.396  0.2945  0.2513 -0.4343
19793TIP3    H180870   6.310   4.244   6.452  1.3408 -0.0378  1.0448
19793TIP3    H280871   6.416   4.274   6.348  1.2909  0.8449  1.2409
19794TIP3   OH280872   2.098   3.705   4.026  0.4288  0.3619  0.1589
19794TIP3    H180873   2.186   3.741   4.035  0.4606  1.4233 -3.1218
19794TIP3    H280874   2.050   3.771   3.975 -2.6936  0.3538  2.7478
19795TIP3   OH280875   1.470   0.310   6.147 -0.2938  0.7180  0.5041
19795TIP3    H180876   1.483   0.317   6.053 -0.8373  0.6188  0.4207
19795TIP3    H280877   1.436   0.222   6.160  1.1278  0.2120  0.9476
19796TIP3   OH280878   0.244   4.182   1.956 -0.4957 -0.5192 -0.4825
19796TIP3    H180879   0.166   4.216   1.998 -0.4936 -2.3761  1.1806
19796TIP3    H280880   0.252   4.092   1.989  0.9338 -1.2452 -2.5710
19797TIP3   OH280881   4.024   3.796  15.422  0.0105  0.4295 -0.2151
19797TIP3    H180882   4.037   3.714  15.471  0.8079  0.5939 -0.1375
19797TIP3    H280883   4.100   3.801  15.364  0.9086  1.9908  1.0251
19798TIP3   OH280884   1.941   1.640  16.810  0.3148  0.2051  0.5028
19798TIP3    H180885   2.001   1.696  16.858 -0.2489  1.5361 -0.2994
19798TIP3    H280886   1.857   1.648  16.856  0.6132 -1.3203  1.3748
19799TIP3   OH280887   4.986   0.732   2.840  0.2121 -0.3543 -0.3419
19799TIP3    H180888   4.949   0.792   2.777  0.5321 -0.1858 -0.3710
19799TIP3    H280889   5.022   0.788   2.909 -0.4732 -0.5480  0.1797
19800TIP3   OH280890   0.687   6.707  17.187 -0.0727  0.2747  0.1318
19800TIP3    H180891   0.675   6.639  17.254 -0.9243  0.5233  0.2456
19800TIP3    H280892   0.782   6.713  17.175  0.0925  0.2315  1.3298
19801TIP3   OH280893   4.249   5.220   2.972 -0.2093  0.1527 -0.5373
19801TIP3    H180894   4.301   5.226   2.892  1.1221 -0.6568  0.2179
19801TIP3    H280895   4.181   5.156   2.952  0.3050 -0.2755 -0.9513
19802TIP3   OH280896   0.574   0.577   2.293 -0.2656 -0.3895 -0.2520
19802TIP3    H180897   0.652   0.633   2.300 -1.0675  1.0269 -1.8315
19802TIP3    H280898   0.504   0.628   2.336 -0.7889 -0.6623 -0.7708
19803TIP3   OH280899   4.758   4.472  14.664  0.7578  0.3673 -0.2731
19803TIP3    H180900   4.675   4.514  14.686  2.3664  3.5539  0.2184
19803TIP3    H280901   4.747   4.381  14.693 -1.1448  1.6041  3.5619
19804TIP3   OH280902   6.745   2.840  11.577  0.3086  0.7942  0.7747
19804TIP3    H180903   6.840   2.828  11.570  0.4826  1.5909  1.5809
19804TIP3    H280904   6.731   2.931  11.552 -0.4979  0.1535 -1.2654
19805TIP3   OH280905   2.058   5.097   1.401  0.0436 -0.6516 -0.5754
19805TIP3    H180906   2.100   5.091   1.486 -0.6817 -0.0062 -0.1636
19805TIP3    H280907   2.093   5.023   1.352  2.8243  0.6600 -0.7833
19806TIP3   OH280908   6.775   1.347  11.779 -0.2960 -0.2468  0.0351
19806TIP3    H180909   6.812   1.262  11.804 -0.5564 -0.8183 -1.4022
19806TIP3    H280910   6.697   1.356  11.833  1.8361  1.0256  3.2250
19807TIP3   OH280911   5.544   0.459  14.891  0.1223  0.1725 -0.4449
19807TIP3    H180912   5.455   0.474  14.858  0.0156 -2.0399 -1.3116
19807TIP3    H280913   5.532   0.431  14.981 -0.0508 -0.0328 -0.5316
19808TIP3   OH280914   5.785   1.139  14.557 -0.5896  0.3946 -0.6172
19808TIP3    H180915   5.695   1.110  14.572 -0.5866  0.4005 -0.5898
19808TIP3    H280916   5.808   1.190  14.635 -0.4863  0.2120 -0.5291
19809TIP3   OH280917   5.048   3.484  14.967  0.2632  0.5023 -0.1425
19809TIP3    H180918   5.094   3.402  14.983 -1.1776 -0.1728  0.8004
19809TIP3    H280919   5.040   3.489  14.871  0.1804 -0.5687 -0.2036
19810TIP3   OH280920   3.590   6.563   2.773  0.2560 -0.1981  0.3370
19810TIP3    H180921   3.661   6.626   2.757 -0.1204 -0.2692 -1.8570
19810TIP3    H280922   3.598   6.499   2.703 -2.4670  0.2674 -0.5438
19811TIP3   OH280923   6.010   3.942  16.577  0.1941  0.1216  0.0039
19811TIP3    H180924   6.036   3.923  16.667  0.2936 -0.1173 -0.0751
19811TIP3    H280925   5.916   3.960  16.583 -0.2361 -1.7920 -0.1012
19812TIP3   OH280926   6.372   0.881   3.348 -0.2318 -0.3778  0.0670
19812TIP3    H180927   6.376   0.952   3.284 -1.5334  1.6874  2.1212
19812TIP3    H280928   6.420   0.914   3.424 -1.0350 -1.6050  1.1543
19813TIP3   OH280929   6.130   6.524  12.862 -0.1561 -0.4654  0.2014
19813TIP3    H180930   6.129   6.609  12.819  0.5613 -0.3665  0.3734
19813TIP3    H280931   6.163   6.541  12.950  0.6914 -1.0258  0.0020
19814TIP3   OH280932   4.242   1.862   1.753 -0.2195 -0.1843 -0.1043
19814TIP3    H180933   4.271   1.953   1.757 -2.0141  0.4937 -1.4152
19814TIP3    H280934   4.202   1.846   1.839  0.2489  0.1900  0.1893
19815TIP3   OH280935   5.158   1.501  12.339  0.4586  0.3108 -0.0311
19815TIP3    H180936   5.225   1.460  12.394 -0.0121 -1.1075 -0.4581
19815TIP3    H280937   5.130   1.431  12.280 -3.0584  0.1137  1.6262
19816TIP3   OH280938   5.991   3.129  13.438  0.2422  0.5611  0.5306
19816TIP3    H180939   5.997   3.089  13.351 -1.5724  2.2053 -0.4048
19816TIP3    H280940   5.992   3.054  13.498  0.3605 -0.6854 -0.9468
19817TIP3   OH280941   0.326   2.284  14.406 -0.1419  0.0652  0.0418
19817TIP3    H180942   0.394   2.224  14.375 -1.8842 -2.1377  0.2608
19817TIP3    H280943   0.248   2.230  14.415 -2.0286  2.5239 -0.4029
19818TIP3   OH280944   1.545   1.844  12.367 -0.3500  0.2206 -0.1393
19818TIP3    H180945   1.563   1.900  12.292  2.1757 -0.4090 -0.0996
19818TIP3    H280946   1.630   1.806  12.390 -1.4854 -1.5898  1.4535
19819TIP3   OH280947   3.930   1.073  15.293 -0.4540  0.0718 -0.2789
19819TIP3    H180948   3.948   1.167  15.291 -2.4299  0.4712 -0.7663
19819TIP3    H280949   3.934   1.049  15.385  1.9430  0.1960 -0.2844
19820TIP3   OH280950   3.970   3.835  13.339 -0.0387 -0.4117  0.1631
19820TIP3    H180951   3.911   3.768  13.304 -1.1812  1.1275 -1.0448
19820TIP3    H280952   4.036   3.847  13.271  1.1587 -1.4629  1.1068
19821TIP3   OH280953   3.553   3.583  15.451  0.2443 -0.5790 -0.3283
19821TIP3    H180954   3.608   3.547  15.382 -2.8710 -0.5622 -3.0671
19821TIP3    H280955   3.565   3.678  15.445  0.0572 -0.5830 -0.8051
19822TIP3   OH280956   6.823   0.837  13.522  0.1209  0.4513  0.1204
19822TIP3    H180957   6.779   0.757  13.494  1.4969 -0.5501  0.7183
19822TIP3    H280958   6.910   0.808  13.549  0.2693  1.9959  1.3971
19823TIP3   OH280959   1.158   1.422  11.444  0.1893 -0.3286 -0.4948
19823TIP3    H180960   1.108   1.364  11.501  0.1887 -0.7204 -0.8946
19823TIP3    H280961   1.093   1.459  11.384 -0.4024  2.4494  1.6026
19824TIP3   OH280962   6.665   5.045   2.779  0.0700  0.1646  0.2993
19824TIP3    H180963   6.599   5.055   2.711  0.6273 -2.0507 -0.6614
19824TIP3    H280964   6.744   5.086   2.742 -0.1667  0.8597  0.5389
19825TIP3   OH280965   3.891   0.483  13.344  0.2536 -0.3258  0.2271
19825TIP3    H180966   3.873   0.518  13.257  0.4330 -0.7213  0.0271
19825TIP3    H280967   3.898   0.560  13.400  1.0340 -0.0173 -0.2783
19826TIP3   OH280968   4.441   1.642   5.415  0.2240  0.2611  0.4324
19826TIP3    H180969   4.392   1.583   5.357  0.5803 -0.9578  1.3313
19826TIP3    H280970   4.525   1.655   5.372  0.3855 -0.4241  0.5291
19827TIP3   OH280971   1.017   5.369  14.761  0.1335  0.0829  0.0523
19827TIP3    H180972   1.031   5.456  14.723 -0.1509  0.5024  0.8662
19827TIP3    H280973   0.924   5.353  14.751  0.3325 -0.5622 -0.9524
19828TIP3   OH280974   5.110   3.036   6.383  0.5004  0.0958 -0.1175
19828TIP3    H180975   5.202   3.031   6.355  0.2843  1.1586 -1.0636
19828TIP3    H280976   5.116   3.058   6.476  1.2018 -1.0344  0.1297
19829TIP3   OH280977   0.396   5.713   0.472  0.0547 -0.0098  0.2461
19829TIP3    H180978   0.363   5.802   0.480  1.7275  0.7265 -0.5918
19829TIP3    H280979   0.328   5.658   0.512 -0.7763  1.6702  1.2374
19830TIP3   OH280980   2.410   5.121   5.499 -0.1374 -0.1463 -0.1189
19830TIP3    H180981   2.498   5.102   5.531 -0.6249 -0.5224  1.0631
19830TIP3    H280982   2.392   5.209   5.529 -0.6583 -0.5580  0.8108
19831TIP3   OH280983   5.882   4.124   3.708  0.1588  0.6417 -0.8572
19831TIP3    H180984   5.806   4.079   3.744  2.0925 -1.0487  1.4552
19831TIP3    H280985   5.854   4.154   3.622 -2.8644 -0.5007 -0.3802
19832TIP3   OH280986   1.130   4.226  16.750 -0.2051  0.0038  0.5682
19832TIP3    H180987   1.133   4.303  16.806 -0.4923  0.1680  0.3586
19832TIP3    H280988   1.039   4.221  16.721 -0.3224 -0.7280  1.0244
19833TIP3   OH280989   2.763   3.432  12.837  0.4501 -0.3064  0.6134
19833TIP3    H180990   2.714   3.406  12.759 -0.1024 -0.4226  0.9873
19833TIP3    H280991   2.729   3.374  12.906  0.6253  0.0800  1.0247
19834TIP3   OH280992   2.838   6.711  16.503 -0.0969  0.3105 -0.5038
19834TIP3    H180993   2.819   6.627  16.546 -0.3886  0.5231 -0.2110
19834TIP3    H280994   2.756   6.735  16.460  0.2982 -0.0768 -1.5023
19835TIP3   OH280995   5.344   0.864  15.991 -0.0490  0.2481  0.1419
19835TIP3    H180996   5.262   0.818  15.971  0.0682 -0.5493  1.3658
19835TIP3    H280997   5.339   0.881  16.085  1.6756 -0.8091  0.4553
19836TIP3   OH280998   5.028   0.408  13.967 -0.0704 -0.3512  0.0501
19836TIP3    H180999   4.962   0.424  14.035  0.1805  1.9623 -0.1773
19836TIP3    H281000   4.998   0.457  13.891  1.1096 -0.5645 -0.5864
19837TIP3   OH281001   0.512   5.025   1.529 -0.1737  0.4904 -0.4593
19837TIP3    H181002   0.569   5.083   1.580  0.2603  0.7412 -1.2088
19837TIP3    H281003   0.515   4.941   1.575  1.1701  0.3705 -0.7340
19838TIP3   OH281004   2.175   3.952   1.903 -0.0824 -0.5293 -0.5106
19838TIP3    H181005   2.201   3.950   1.995  1.2491 -0.7247 -0.8675
19838TIP3    H281006   2.255   3.978   1.856 -1.0218  0.6706 -1.5147
19839TIP3   OH281007   2.343   0.092  13.191  0.3912  0.0818  0.1259
19839TIP3    H181008   2.272   0.102  13.128  0.3197 -0.2994  0.1461
19839TIP3    H281009   2.423   0.111  13.141  0.4139 -1.1258 -0.3204
19840TIP3   OH281010   2.063   4.363   4.292 -0.7054  0.0408 -0.0184
19840TIP3    H181011   2.121   4.288   4.277  2.1386  2.2156 -0.7789
19840TIP3    H281012   2.008   4.367   4.213  0.2298 -0.3222 -0.7012
19841TIP3   OH281013   3.919   5.097  14.259  0.2657 -0.3553  0.5756
19841TIP3    H181014   3.972   5.024  14.292  0.2481 -0.7991 -0.3430
19841TIP3    H281015   3.838   5.056  14.229  0.2137  0.0470  0.1528
19842TIP3   OH281016   6.073   3.298   0.531  0.0599  0.0985 -0.1126
19842TIP3    H181017   6.064   3.390   0.509 -0.7849 -0.1343 -0.8401
19842TIP3    H281018   6.023   3.288   0.612  0.8464  0.4258  0.4263
19843TIP3   OH281019   6.211   1.154  13.346 -0.1122  0.3026  1.1761
19843TIP3    H181020   6.120   1.163  13.319  0.2137 -0.0760 -0.1165
19843TIP3    H281021   6.252   1.237  13.324  0.4235 -0.3991 -0.7091
19844TIP3   OH281022   5.157   2.890   3.883 -0.1584  0.1745 -0.0640
19844TIP3    H181023   5.139   2.823   3.949  0.1566 -0.7347 -0.8775
19844TIP3    H281024   5.102   2.866   3.809  1.5537 -0.4679 -1.1833
19845TIP3   OH281025   2.103   4.247  15.647 -0.3699 -0.4317  0.3279
19845TIP3    H181026   2.014   4.227  15.617 -1.7679 -1.6310  4.4948
19845TIP3    H281027   2.152   4.166  15.630 -0.2367 -0.0541 -1.2377
19846TIP3   OH281028   3.369   5.881  12.053 -0.0761 -0.1737  0.0137
19846TIP3    H181029   3.386   5.942  11.981 -1.1567  0.9461  0.6742
19846TIP3    H281030   3.364   5.795  12.011 -0.1047  0.3878 -1.1699
19847TIP3   OH281031   1.523   4.335   5.152  0.0542  0.3605  0.4951
19847TIP3    H181032   1.544   4.377   5.069  0.1262  1.6871  1.1503
19847TIP3    H281033   1.500   4.408   5.210  0.2189 -0.5171  1.6968
19848TIP3   OH281034   4.797   0.396   4.451 -0.1357 -0.3308 -0.1125
19848TIP3    H181035   4.843   0.406   4.368 -0.0135  0.3370  0.0334
19848TIP3    H281036   4.802   0.302   4.470 -1.1400 -0.6677 -1.4129
19849TIP3   OH281037   3.701   5.116  11.839 -0.0002  0.2807  0.3199
19849TIP3    H181038   3.613   5.103  11.804  0.3555  0.3350 -0.6143
19849TIP3    H281039   3.711   5.046  11.904 -1.6128  1.6859  2.2329
19850TIP3   OH281040   5.456   2.956  13.117 -0.3051 -0.1400 -0.3785
19850TIP3    H181041   5.422   3.043  13.095 -0.4183 -0.3080 -0.8863
19850TIP3    H281042   5.512   2.971  13.193  0.4378  0.5302 -1.0451
19851TIP3   OH281043   1.528   0.248  12.012 -0.0876 -0.3502 -0.3536
19851TIP3    H181044   1.470   0.205  12.074  0.7305 -0.6397  0.2343
19851TIP3    H281045   1.613   0.250  12.056 -0.3383  3.1886  0.3272
19852TIP3   OH281046   6.063   2.868  16.594 -0.3383 -0.8381 -0.4701
19852TIP3    H181047   6.020   2.937  16.544  1.4237 -0.3873 -1.4244
19852TIP3    H281048   5.991   2.815  16.628 -1.6528  0.1959 -1.5363
19853TIP3   OH281049   1.853   4.739   6.455 -1.0965  0.4579  0.4257
19853TIP3    H181050   1.844   4.827   6.418  0.0789  0.2740 -0.3284
19853TIP3    H281051   1.764   4.704   6.454 -1.5363  1.5237  0.4806
19854TIP3   OH281052   1.690   5.928  15.092 -0.3726 -0.5007  0.0329
19854TIP3    H181053   1.705   5.847  15.045 -1.1461  0.3240 -1.6912
19854TIP3    H281054   1.700   5.997  15.027 -1.9189  0.6679  0.9511
19855TIP3   OH281055   5.034   1.894   2.169  0.1115  0.6980  0.5183
19855TIP3    H181056   5.015   1.985   2.196  1.0676  0.2736  2.9027
19855TIP3    H281057   4.972   1.841   2.219 -0.2319 -0.0098 -0.6258
19856TIP3   OH281058   1.447   5.441  11.853  0.2905 -0.1361 -0.8432
19856TIP3    H181059   1.374   5.502  11.849  0.4298  0.1237  0.1641
19856TIP3    H281060   1.482   5.452  11.942  1.3151 -0.5209 -1.1815
19857TIP3   OH281061   3.177   1.782   3.855 -0.6229  0.2841  0.4738
19857TIP3    H181062   3.242   1.831   3.905  0.1987 -0.9299  0.6537
19857TIP3    H281063   3.128   1.733   3.921  1.7948 -2.9276  0.1167
19858TIP3   OH281064   2.323   3.376  15.831  0.5158 -0.3727 -0.2402
19858TIP3    H181065   2.398   3.360  15.887  0.2638  1.7028  0.8123
19858TIP3    H281066   2.358   3.425  15.757  0.0167  2.6474  1.3553
19859TIP3   OH281067   6.827   4.456  14.502  0.4556 -0.5394  0.0485
19859TIP3    H181068   6.813   4.551  14.511 -1.9289 -0.4448 -2.9256
19859TIP3    H281069   6.873   4.447  14.418  1.5125 -2.0109  0.7560
19860TIP3   OH281070   5.481   2.584   2.213 -0.0131  0.4543  0.3618
19860TIP3    H181071   5.450   2.612   2.299 -0.7757 -0.9190  0.5664
19860TIP3    H281072   5.571   2.557   2.228  0.4970  2.0281  0.3055
19861TIP3   OH281073   5.989   2.556   1.125  0.5329  0.4152 -0.1598
19861TIP3    H181074   5.898   2.581   1.106  0.6609 -0.9169 -3.0566
19861TIP3    H281075   6.032   2.639   1.146 -1.6449  0.8851  3.2922
19862TIP3   OH281076   6.517   5.526   4.400 -0.2683  0.5867 -0.4369
19862TIP3    H181077   6.521   5.445   4.349 -1.8735  0.4895 -0.4551
19862TIP3    H281078   6.502   5.497   4.490  0.0935  0.8341 -0.2955
19863TIP3   OH281079   2.210   1.183   3.442  0.7634 -0.3524  0.0318
19863TIP3    H181080   2.181   1.247   3.377 -0.2894 -0.0961  0.7213
19863TIP3    H281081   2.242   1.236   3.515 -0.0376 -0.5932  0.5721
19864TIP3   OH281082   4.796   5.941   5.921  0.2106  0.2351 -0.1556
19864TIP3    H181083   4.839   5.867   5.965  0.0637  0.7330  0.8454
19864TIP3    H281084   4.822   5.933   5.829  0.0007 -1.2043 -0.1122
19865TIP3   OH281085   6.012   6.230  14.328 -0.3057 -0.2999 -0.1329
19865TIP3    H181086   5.948   6.301  14.324  0.6883  0.6533  0.2957
19865TIP3    H281087   5.978   6.171  14.395 -1.1599 -0.2463 -0.5146
19866TIP3   OH281088   4.445   5.255   1.515 -0.2488 -0.2203  0.0707
19866TIP3    H181089   4.450   5.226   1.606  0.7714 -2.4467 -0.6229
19866TIP3    H281090   4.408   5.180   1.467 -1.7825  1.2782 -1.2334
19867TIP3   OH281091   4.008   6.553  12.550 -0.1949  0.0820  0.4384
19867TIP3    H181092   4.001   6.457  12.554 -0.9197  0.0993 -0.1843
19867TIP3    H281093   4.075   6.575  12.615 -0.5111 -0.7933  1.0796
19868TIP3   OH281094   1.209   1.535  16.653  0.0005  0.0246  0.5088
19868TIP3    H181095   1.154   1.552  16.577  0.3867 -0.5595  0.0833
19868TIP3    H281096   1.147   1.516  16.724 -0.3665 -1.3147 -0.1291
19869TIP3   OH281097   5.036   4.935  13.150  0.1126  0.0931 -0.4235
19869TIP3    H181098   5.077   5.020  13.132  0.1874 -0.0804 -1.1112
19869TIP3    H281099   4.973   4.923  13.079  0.5055 -0.6764 -0.6609
19870TIP3   OH281100   2.103   4.222  16.071  0.3514  0.1213  0.1533
19870TIP3    H181101   2.118   4.244  16.163  0.3254 -0.0497  0.1979
19870TIP3    H281102   2.085   4.306  16.029  0.2873  0.1908  0.3195
19871TIP3   OH281103   3.856   2.470  16.596  0.0371  0.4783 -0.3791
19871TIP3    H181104   3.944   2.461  16.633  0.4051  0.5967 -1.2138
19871TIP3    H281105   3.845   2.564  16.582 -1.2543  0.7996  2.1462
19872TIP3   OH281106   1.927   4.356   2.810 -0.1157  0.1032  0.5146
19872TIP3    H181107   1.946   4.334   2.901  1.6652  0.3386  0.2443
19872TIP3    H281108   1.857   4.297   2.784 -1.4545  0.7876  2.3480
19873TIP3   OH281109   3.846   6.497  12.086 -0.1967 -0.0186  0.2793
19873TIP3    H181110   3.849   6.526  11.994 -1.2052  0.2408  0.3181
19873TIP3    H281111   3.892   6.413  12.085  1.2237  0.7199 -0.1562
19874TIP3   OH281112   1.742   1.313   6.454  0.0601 -0.1137  0.0234
19874TIP3    H181113   1.800   1.237   6.445  0.0378 -0.1680  0.3293
19874TIP3    H281114   1.653   1.276   6.450  0.0454 -0.1783  0.7109
19875TIP3   OH281115   1.147   4.452   1.219 -0.6844  0.4729  0.1526
19875TIP3    H181116   1.229   4.498   1.238 -1.5920  1.9332  0.6799
19875TIP3    H281117   1.154   4.429   1.126  0.6428 -0.1411  0.3798
19876TIP3   OH281118   1.445   3.950   1.139  0.2354 -0.1179  0.7325
19876TIP3    H181119   1.418   3.881   1.199 -0.0256  0.8678  1.7845
19876TIP3    H281120   1.492   4.013   1.195 -0.1463  0.8952 -0.0656
19877TIP3   OH281121   3.969   2.847  12.383 -0.4490  0.3875  0.0035
19877TIP3    H181122   3.998   2.872  12.295 -1.1330 -0.7630 -0.5790
19877TIP3    H281123   3.884   2.805  12.369  0.0672 -1.0767  1.0313
19878TIP3   OH281124   1.402   0.381   5.321 -0.4305  0.8477  0.4281
19878TIP3    H181125   1.459   0.343   5.388 -1.0585  0.0772  0.5439
19878TIP3    H281126   1.430   0.472   5.314  0.4336  0.6278  0.8837
19879TIP3   OH281127   0.610   1.353   6.400  0.2922 -0.3643 -0.3005
19879TIP3    H181128   0.660   1.337   6.480 -0.8591 -2.5350  0.0454
19879TIP3    H281129   0.614   1.448   6.389 -0.3394  0.1480  2.8868
19880TIP3   OH281130   0.556   3.259  16.823 -0.3512  0.5125  0.1283
19880TIP3    H181131   0.596   3.251  16.909 -0.1882  0.1670  0.0237
19880TIP3    H281132   0.515   3.345  16.823 -0.7353  0.3396  0.7132
19881TIP3   OH281133   4.150   4.957  16.176 -0.4856  0.0719  0.2020
19881TIP3    H181134   4.092   5.016  16.224  0.8308  1.9657 -0.4073
19881TIP3    H281135   4.216   4.930  16.240 -0.5396  0.0477  0.2477
19882TIP3   OH281136   5.969   3.182  14.771  0.8019  0.0772 -0.3312
19882TIP3    H181137   6.016   3.147  14.847 -0.2730 -1.1750 -0.2096
19882TIP3    H281138   5.948   3.105  14.718 -2.1978  0.3723  0.2574
19883TIP3   OH281139   2.993   0.726   4.413  0.1709 -0.3059  0.5683
19883TIP3    H181140   2.970   0.758   4.326  1.8517  0.8420  0.5088
19883TIP3    H281141   3.083   0.694   4.405  0.0317 -1.0556  1.6778
19884TIP3   OH281142   3.934   1.458  17.071 -0.1522  0.1555 -0.0658
19884TIP3    H181143   3.951   1.552  17.079  1.5692 -0.2307  1.6934
19884TIP3    H281144   3.969   1.421  17.152 -0.3819 -2.0609 -0.9213
19885TIP3   OH281145   5.086   5.599  14.259  0.2941 -0.1931  0.1361
19885TIP3    H181146   5.138   5.679  14.249 -0.7642  0.6676  1.1215
19885TIP3    H281147   5.150   5.528  14.261  1.1656  0.4021 -2.5965
19886TIP3   OH281148   2.711   0.998  11.258 -0.0567 -0.2267  0.9636
19886TIP3    H181149   2.726   1.026  11.167 -1.6408  0.6102  0.9272
19886TIP3    H281150   2.735   1.075  11.311 -1.0862  0.0147  1.0988
19887TIP3   OH281151   5.412   0.465   4.384  0.1793 -0.0280  0.7258
19887TIP3    H181152   5.334   0.456   4.439 -1.0848  1.8415 -0.5867
19887TIP3    H281153   5.415   0.385   4.332 -0.8944 -0.1355  0.8129
19888TIP3   OH281154   0.543   5.203  11.713 -0.1898 -0.0949 -0.2390
19888TIP3    H181155   0.614   5.199  11.777 -0.0232 -1.8642 -0.4640
19888TIP3    H281156   0.470   5.244  11.759 -0.1242 -1.4648  1.1653
19889TIP3   OH281157   5.523   2.975   0.023  0.2429 -0.2373  0.0026
19889TIP3    H181158   5.612   2.948  -0.001 -0.3604 -3.5105  0.8798
19889TIP3    H281159   5.532   3.009   0.112  0.7968  0.9675 -0.4903
19890TIP3   OH281160   6.516   6.779   5.765  0.0801  0.1304 -0.0118
19890TIP3    H181161   6.605   6.745   5.756  1.0342  2.4987 -0.2698
19890TIP3    H281162   6.500   6.826   5.683 -0.7806  1.0652  0.6654
19891TIP3   OH281163   2.590   1.624   0.636 -0.0438 -0.1250  0.1797
19891TIP3    H181164   2.602   1.581   0.721 -0.4544  0.2328  0.4242
19891TIP3    H281165   2.675   1.616   0.593  1.5749  3.3586  2.2966
19892TIP3   OH281166   2.094   3.396   0.637 -0.4613 -0.2957 -0.3319
19892TIP3    H181167   2.138   3.425   0.717  0.2872 -1.9255 -0.1089
19892TIP3    H281168   2.147   3.323   0.606 -1.3145 -0.3411 -1.7752
19893TIP3   OH281169   0.427   1.332  13.680  0.3915  0.4672  0.0586
19893TIP3    H181170   0.388   1.251  13.711  0.2621  0.6816  0.4620
19893TIP3    H281171   0.521   1.319  13.692  0.2829  1.0442  1.7990
19894TIP3   OH281172   4.815   5.151   1.671  0.2471  0.2882  0.2585
19894TIP3    H181173   4.721   5.134   1.669  0.0190  1.2463  1.5286
19894TIP3    H281174   4.821   5.246   1.681  1.3243  0.1266  1.3521
19895TIP3   OH281175   5.269   0.990  12.815 -0.6719 -0.2862  0.4034
19895TIP3    H181176   5.329   1.025  12.882  0.4195 -0.3315 -0.5301
19895TIP3    H281177   5.195   1.050  12.818 -0.6040 -0.2193  1.5792
19896TIP3   OH281178   4.402   1.380   1.758  0.0933 -0.6611 -0.0247
19896TIP3    H181179   4.336   1.445   1.782  1.2961  0.2661  0.8346
19896TIP3    H281180   4.357   1.324   1.694 -1.5330 -0.0919  0.5671
19897TIP3   OH281181   2.409   1.589  10.228  0.0737  0.3871  0.2749
19897TIP3    H181182   2.490   1.640  10.216  0.6030 -0.9813 -2.9870
19897TIP3    H281183   2.339   1.654  10.223  0.8496  1.2033 -0.2677
19898TIP3   OH281184   4.543   2.664  11.124 -0.6398 -0.1146  0.2146
19898TIP3    H181185   4.588   2.594  11.171 -0.9146 -0.3219  0.1735
19898TIP3    H281186   4.504   2.621  11.048 -0.7568  0.0947  0.1548
19899TIP3   OH281187   3.616   6.141  14.094  0.6085 -0.2873  0.3116
19899TIP3    H181188   3.692   6.174  14.141  1.3100 -1.6416  0.1931
19899TIP3    H281189   3.563   6.098  14.161 -0.3381  1.0770  0.4819
19900TIP3   OH281190   6.378   2.006  13.146  0.4067  0.0574  0.1085
19900TIP3    H181191   6.410   2.077  13.090  0.9216 -0.7146 -0.5968
19900TIP3    H281192   6.452   1.986  13.204 -0.5382  1.7469  2.0462
19901TIP3   OH281193   2.195   6.624   2.082 -0.5902  0.1254 -0.2498
19901TIP3    H181194   2.190   6.718   2.068 -1.1310  0.0479 -0.6127
19901TIP3    H281195   2.288   6.606   2.093 -0.2924  0.4605 -1.9503
19902TIP3   OH281196   1.618   6.594  16.604  0.1358 -0.0731  0.5706
19902TIP3    H181197   1.537   6.600  16.654 -0.8702  1.7738 -1.1284
19902TIP3    H281198   1.649   6.685  16.598  0.2312 -0.2109 -1.9992
19903TIP3   OH281199   4.833   0.217   3.750  0.0540  0.3993  0.1949
19903TIP3    H181200   4.868   0.129   3.737  0.0964  0.3883  0.3864
19903TIP3    H281201   4.845   0.260   3.665 -1.1703 -0.1944 -0.2988
19904TIP3   OH281202   4.590   5.335  15.025 -0.4464 -0.6311  0.0571
19904TIP3    H181203   4.608   5.314  14.933  0.7105 -1.1844  0.3951
19904TIP3    H281204   4.569   5.428  15.024 -0.9410 -0.7424 -0.8358
19905TIP3   OH281205   6.021   3.383   3.510  0.5727  0.0583  0.3456
19905TIP3    H181206   5.988   3.292   3.508  1.5900 -0.3087 -0.3102
19905TIP3    H281207   5.941   3.436   3.511 -0.0649 -0.8382  1.9584
19906TIP3   OH281208   4.342   5.196  14.997  0.1466 -0.1045  0.0999
19906TIP3    H181209   4.410   5.263  14.983 -1.2121  1.4132  0.5378
19906TIP3    H281210   4.290   5.198  14.917  0.6935 -1.3920 -0.3075
19907TIP3   OH281211   0.914   1.410  10.390 -0.3743 -0.1597 -0.8659
19907TIP3    H181212   0.975   1.394  10.463 -0.7007 -1.6021 -0.8851
19907TIP3    H281213   0.967   1.455  10.324  0.1214  0.4838 -0.0491
19908TIP3   OH281214   4.264   1.889  16.940 -0.3014 -0.1170  0.2705
19908TIP3    H181215   4.347   1.938  16.938 -0.6722  0.4825 -1.1528
19908TIP3    H281216   4.196   1.956  16.933 -0.8333 -0.7806 -1.2481
19909TIP3   OH281217   2.646   4.048  15.250 -0.7235 -0.2642 -0.5933
19909TIP3    H181218   2.565   3.999  15.265 -0.9561 -0.3392 -1.9348
19909TIP3    H281219   2.696   3.994  15.189 -0.1728  0.3149 -0.6711
19910TIP3   OH281220   6.159   3.101   4.810  0.1233  0.7194 -0.2523
19910TIP3    H181221   6.106   3.029   4.777  0.5515 -0.5114  1.5829
19910TIP3    H281222   6.223   3.118   4.741  0.0704 -0.7094 -0.6755
19911TIP3   OH281223   3.311   0.943   4.578 -0.2925  0.0271 -0.5167
19911TIP3    H181224   3.338   0.990   4.657  0.5925  0.0634 -0.8266
19911TIP3    H281225   3.309   0.851   4.605 -2.2342  0.2336  0.1459
19912TIP3   OH281226   3.763   0.713   0.806 -0.0990 -0.1994 -0.4204
19912TIP3    H181227   3.669   0.731   0.818 -0.2274 -0.1949 -1.3738
19912TIP3    H281228   3.805   0.756   0.881 -0.7244  1.0806 -0.7766
19913TIP3   OH281229   0.994   4.936   2.544 -0.5764  0.4566  0.2889
19913TIP3    H181230   0.914   4.915   2.594 -0.4808  0.7391  0.5684
19913TIP3    H281231   1.060   4.952   2.612 -0.6837  1.8034  0.0994
19914TIP3   OH281232   2.092   2.892   3.156 -0.2891  0.0833  0.1735
19914TIP3    H181233   2.125   2.879   3.245 -0.2941 -1.5139 -0.0217
19914TIP3    H281234   2.009   2.939   3.168  0.8148  1.9436  0.8287
19915TIP3   OH281235   5.113   1.669  12.080 -0.0089 -0.5090 -0.2678
19915TIP3    H181236   5.083   1.758  12.096 -0.2119 -0.7443  0.6830
19915TIP3    H281237   5.179   1.654  12.147 -1.3059 -1.7269  0.7869
19916TIP3   OH281238   3.136   2.280   1.524  0.4679 -0.1434  0.2728
19916TIP3    H181239   3.131   2.245   1.613 -1.1329 -0.9830 -0.1145
19916TIP3    H281240   3.135   2.375   1.536  0.2076 -0.2486  1.1475
19917TIP3   OH281241   1.955   4.494  14.029 -0.2920 -0.4896 -0.3276
19917TIP3    H181242   2.042   4.497  13.990 -0.3065 -0.8410 -0.3934
19917TIP3    H281243   1.908   4.568  13.991 -0.2598 -0.7418 -0.8708
19918TIP3   OH281244   6.575   0.095  13.485 -0.3430  0.1758 -0.2533
19918TIP3    H181245   6.607   0.171  13.437 -1.1494  0.5922 -0.1323
19918TIP3    H281246   6.655   0.050  13.513  0.1572  1.3759  0.3185
19919TIP3   OH281247   0.144   2.802  17.037  0.6753 -0.5332  0.1751
19919TIP3    H181248   0.160   2.883  16.988 -0.7724 -0.9244 -1.0095
19919TIP3    H281249   0.207   2.740  17.003 -0.6269 -0.9434 -1.6228
19920TIP3   OH281250   5.074   5.768  12.791 -0.3541  0.5311 -0.2554
19920TIP3    H181251   5.089   5.700  12.724 -1.1622 -0.2311  0.3049
19920TIP3    H281252   5.131   5.840  12.765  1.6372 -0.9017 -0.0718
19921TIP3   OH281253   2.290   4.237   3.562 -0.2347 -0.5487 -0.0278
19921TIP3    H181254   2.297   4.317   3.510 -0.3066 -0.7735 -0.3868
19921TIP3    H281255   2.227   4.258   3.631  1.1547  0.3084  1.0189
19922TIP3   OH281256   5.213   1.003   0.457 -0.2039 -0.4095  0.0330
19922TIP3    H181257   5.267   1.081   0.464  0.3222 -0.8387  1.1708
19922TIP3    H281258   5.255   0.950   0.389 -0.7465  0.4222 -0.9622
19923TIP3   OH281259   4.445   2.242   4.936  0.0723 -0.0732 -0.5195
19923TIP3    H181260   4.449   2.284   4.850 -0.1728  1.3607  0.1332
19923TIP3    H281261   4.533   2.250   4.971 -0.4126  1.7128  0.3988
19924TIP3   OH281262   2.915   2.628  10.322 -0.1902  0.0766  0.2559
19924TIP3    H181263   2.856   2.639  10.246 -0.4566 -0.3347  0.3985
19924TIP3    H281264   2.887   2.546  10.362 -0.2562  0.4497  0.9910
19925TIP3   OH281265   4.626   0.588   3.630  0.1399  0.2948  0.4767
19925TIP3    H181266   4.574   0.554   3.703 -1.1307 -0.6081 -0.7868
19925TIP3    H281267   4.582   0.555   3.552  1.2016  1.5758 -0.7266
19926TIP3   OH281268   2.172   3.071  11.566  0.1708  0.1877 -0.8185
19926TIP3    H181269   2.150   3.135  11.498 -2.2783  1.7486  1.2513
19926TIP3    H281270   2.089   3.025  11.583  0.5670  0.1930  1.3998
19927TIP3   OH281271   1.613   5.601  15.767  0.1017  0.4449  0.2657
19927TIP3    H181272   1.599   5.618  15.861 -0.4305 -1.0836  0.4841
19927TIP3    H281273   1.647   5.684  15.733  1.9998  0.5081  2.1462
19928TIP3   OH281274   2.551   3.471   5.327  0.2858 -0.2062  0.6289
19928TIP3    H181275   2.575   3.398   5.385 -2.6657 -1.8468  0.0222
19928TIP3    H281276   2.583   3.445   5.241 -0.2303 -0.5412  0.5294
19929TIP3   OH281277   0.610   2.852  15.851 -0.3927 -0.2140  0.7949
19929TIP3    H181278   0.618   2.757  15.860  1.5760 -0.1436  0.2611
19929TIP3    H281279   0.667   2.887  15.920 -0.7789  0.5758  0.7192
19930TIP3   OH281280   3.869   3.907   0.150 -0.2220 -0.3064 -0.2087
19930TIP3    H181281   3.907   3.872   0.230  0.4529  0.6062 -0.1089
19930TIP3    H281282   3.799   3.846   0.127  0.0859 -0.9940  0.6459
19931TIP3   OH281283   1.838   6.377   1.868  0.5790 -0.0428  0.1118
19931TIP3    H181284   1.807   6.460   1.904 -0.2408 -0.7187  1.0318
19931TIP3    H281285   1.894   6.341   1.937  0.7036 -0.3820 -0.1666
19932TIP3   OH281286   4.344   6.788   1.733  0.2397  0.3966  0.8707
19932TIP3    H181287   4.316   6.833   1.653 -1.6021 -0.8166  0.7758
19932TIP3    H281288   4.436   6.768   1.718 -0.2992 -0.6730 -1.3978
19933TIP3   OH281289   1.437   1.299   2.407 -0.0006  0.8743 -0.4864
19933TIP3    H181290   1.432   1.236   2.478  0.0616  1.0398 -0.3327
19933TIP3    H281291   1.367   1.274   2.347  0.7261 -0.0073 -0.9800
19934TIP3   OH281292   0.468   5.480  14.817  0.0366 -0.2126 -0.8113
19934TIP3    H181293   0.398   5.422  14.787 -0.2907  0.5186 -1.5129
19934TIP3    H281294   0.454   5.488  14.911 -0.0440 -1.0887 -0.7406
19935TIP3   OH281295   6.534   5.667  15.651  0.0678  0.1999 -0.0320
19935TIP3    H181296   6.609   5.607  15.659 -0.3281 -0.5205 -1.4438
19935TIP3    H281297   6.468   5.629  15.709 -0.6138 -1.4989 -1.7919
19936TIP3   OH281298   0.584   0.132   5.668 -0.3053  0.0913 -0.3703
19936TIP3    H181299   0.633   0.072   5.724  1.4190  1.5051 -0.2917
19936TIP3    H281300   0.533   0.185   5.730 -2.0602 -1.4112 -0.4549
19937TIP3   OH281301   2.135   6.827  12.894  0.2327 -0.0669 -0.0170
19937TIP3    H181302   2.094   6.799  12.812 -0.6772 -0.1399  0.4576
19937TIP3    H281303   2.209   6.767  12.905  0.2097 -0.2196 -0.6502
19938TIP3   OH281304   4.916   1.292   2.440 -0.4338 -0.0892  0.1646
19938TIP3    H181305   4.987   1.352   2.414  0.0247 -0.2383  1.0180
19938TIP3    H281306   4.841   1.350   2.455 -0.7244 -0.0011 -1.4437
19939TIP3   OH281307   3.427   5.142  11.745  0.1223  0.5115  0.1098
19939TIP3    H181308   3.349   5.195  11.756  0.0230  0.3308  0.2763
19939TIP3    H281309   3.406   5.082  11.673 -1.1136 -1.7526  2.2371
19940TIP3   OH281310   2.847   4.686   2.828 -0.0579  0.1345  0.0334
19940TIP3    H181311   2.861   4.766   2.878  1.5630 -0.2549  0.2804
19940TIP3    H281312   2.827   4.620   2.895  0.4658 -0.0386  0.0279
19941TIP3   OH281313   1.831   4.275  12.922  0.2295 -0.0218 -0.0594
19941TIP3    H181314   1.885   4.292  12.845  0.7337  0.5036  0.4027
19941TIP3    H281315   1.878   4.206  12.970  0.3961  0.2986  0.2429
19942TIP3   OH281316   4.538   3.427   4.172 -0.1969  0.1824 -0.1042
19942TIP3    H181317   4.508   3.517   4.185 -1.2041 -0.1142 -0.2533
19942TIP3    H281318   4.500   3.401   4.088  1.0436 -0.0032 -0.6221
19943TIP3   OH281319   6.022   3.988  10.235  0.0079 -0.2534  0.1537
19943TIP3    H181320   6.095   3.937  10.272  0.0082 -1.5764 -1.5138
19943TIP3    H281321   5.964   3.922  10.198 -1.4030  0.8628  0.2925
19944TIP3   OH281322   2.719   5.887  11.449  0.6028  0.3168  0.1198
19944TIP3    H181323   2.675   5.858  11.529 -0.9375 -0.9798 -1.1362
19944TIP3    H281324   2.753   5.806  11.410 -0.1952  0.6749 -1.3904
19945TIP3   OH281325   3.457   5.236   1.357  0.0870  0.2761  0.1302
19945TIP3    H181326   3.402   5.300   1.401 -1.4287 -0.5659 -0.4456
19945TIP3    H281327   3.493   5.182   1.427  1.0114  1.4279  0.5842
19946TIP3   OH281328   0.858   2.819   0.308  0.2918 -0.4015 -0.2048
19946TIP3    H181329   0.851   2.868   0.390 -2.6460 -1.4232  0.2624
19946TIP3    H281330   0.922   2.750   0.326  0.7916  0.2980  0.7327
19947TIP3   OH281331   5.957   2.664   0.362 -0.4969  0.4045 -0.3891
19947TIP3    H181332   6.048   2.677   0.391  0.2615 -1.4033 -1.7635
19947TIP3    H281333   5.959   2.688   0.269 -0.7757 -1.9796 -1.0794
19948TIP3   OH281334   3.909   2.913  14.029 -0.6813  0.0784 -0.1704
19948TIP3    H181335   3.979   2.849  14.022  0.1495  0.8198  1.0045
19948TIP3    H281336   3.830   2.865  14.005  0.1237 -0.9435 -0.8891
19949TIP3   OH281337   5.889   2.290   2.452 -0.5853  0.4685 -0.3869
19949TIP3    H181338   5.913   2.241   2.531 -2.6208  0.6992  0.4520
19949TIP3    H281339   5.888   2.381   2.481 -1.8744  0.5074 -0.4882
19950TIP3   OH281340   4.623   0.189   5.418  0.3179  0.1592 -0.0006
19950TIP3    H181341   4.694   0.126   5.407 -1.2945 -1.8979  0.7290
19950TIP3    H281342   4.605   0.220   5.329 -0.1944 -2.0398 -0.7352
19951TIP3   OH281343   0.783   4.252  14.625  0.6237  0.3973  0.4701
19951TIP3    H181344   0.856   4.265  14.564 -0.8372 -0.8921 -1.6746
19951TIP3    H281345   0.817   4.191  14.690  1.2025 -1.0310 -1.0921
19952TIP3   OH281346   6.589   2.866   5.665 -0.7878  0.2268 -0.4267
19952TIP3    H181347   6.625   2.948   5.700 -1.5959 -0.1489  1.4069
19952TIP3    H281348   6.510   2.894   5.618  0.0775  0.6956 -1.6575
19953TIP3   OH281349   2.085   1.945  15.016 -0.5148 -0.5424 -0.2921
19953TIP3    H181350   2.051   2.029  15.047  0.9104  0.2300 -0.7396
19953TIP3    H281351   2.045   1.932  14.930  1.2020  0.9895 -1.3969
19954TIP3   OH281352   1.094   2.006  10.848  0.0365  0.3176  0.2033
19954TIP3    H181353   1.062   1.956  10.772  1.1055  1.9990 -1.4612
19954TIP3    H281354   1.141   1.943  10.901  1.7444 -0.4372 -2.0537
19955TIP3   OH281355   3.291   4.189  14.487  0.2927  0.1831  0.4704
19955TIP3    H181356   3.305   4.245  14.564  0.8694  0.9292 -0.1609
19955TIP3    H281357   3.226   4.236  14.435  0.4292  0.0288  0.1585
19956TIP3   OH281358   1.185   2.423   0.691 -0.4850  0.1755  0.0786
19956TIP3    H181359   1.210   2.496   0.747 -0.6775 -0.4105  0.9642
19956TIP3    H281360   1.109   2.454   0.643 -1.5814  0.0450  1.6448
19957TIP3   OH281361   6.170   0.149  12.849 -0.0816  0.0102 -0.3946
19957TIP3    H181362   6.246   0.158  12.907 -0.8345 -0.8456  0.7838
19957TIP3    H281363   6.164   0.233  12.804 -0.7264  1.6287  2.4392
19958TIP3   OH281364   6.684   2.581   0.608 -0.0333 -0.2759  0.1164
19958TIP3    H181365   6.664   2.663   0.652  2.0573  0.8298 -0.8706
19958TIP3    H281366   6.632   2.516   0.655 -1.7753  1.5745  0.9124
19959TIP3   OH281367   4.066   0.187  10.498  0.5565 -0.0103 -0.0519
19959TIP3    H181368   4.093   0.114  10.442 -0.5335  0.7419 -1.6193
19959TIP3    H281369   4.147   0.217  10.540  1.1541 -1.5180 -0.0777
19960TIP3   OH281370   1.953   4.845   4.457 -0.3225  0.0588 -0.5408
19960TIP3    H181371   1.889   4.800   4.513  1.6633  1.2870  3.0933
19960TIP3    H281372   1.999   4.774   4.412 -2.1308 -0.9935 -0.8449
19961TIP3   OH281373   1.234   4.766   2.200 -0.1572 -0.3495  0.1147
19961TIP3    H181374   1.216   4.855   2.229 -0.8664 -0.6139  0.5207
19961TIP3    H281375   1.229   4.713   2.280  1.6761 -0.5760  0.1228
19962TIP3   OH281376   5.443   4.514  15.124 -0.1074  0.2983 -0.3246
19962TIP3    H181377   5.388   4.584  15.089  0.5345  2.0573  1.9306
19962TIP3    H281378   5.426   4.515  15.219 -0.0005 -2.5834 -0.1893
19963TIP3   OH281379   6.666   2.809   3.921  0.0042 -0.3817 -0.8182
19963TIP3    H181380   6.740   2.855   3.961  1.3975 -0.5955 -3.0027
19963TIP3    H281381   6.659   2.846   3.833 -1.5629 -1.4114 -1.1747
19964TIP3   OH281382   2.985   3.841   3.502 -0.0182  0.0951  0.3367
19964TIP3    H181383   2.993   3.880   3.415  0.8980 -0.7750  0.0291
19964TIP3    H281384   2.892   3.820   3.509 -0.2911  1.0977 -0.0146
19965TIP3   OH281385   6.015   6.290   1.510  0.2071 -0.0128 -0.2818
19965TIP3    H181386   6.012   6.385   1.504 -1.6645 -0.0309 -0.1305
19965TIP3    H281387   6.080   6.272   1.578 -0.1445  1.1809  0.3904
19966TIP3   OH281388   1.161   5.044  13.063 -0.0202 -0.6183  0.5862
19966TIP3    H181389   1.244   5.035  13.108 -0.0049 -1.8255  0.3335
19966TIP3    H281390   1.136   5.136  13.077  1.0120 -0.4249  1.2277
19967TIP3   OH281391   6.328   2.730   1.860  0.0742  0.1475  0.2059
19967TIP3    H181392   6.236   2.704   1.850 -0.5068  2.4123 -0.8315
19967TIP3    H281393   6.325   2.821   1.888  2.0387 -0.5111  3.1175
19968TIP3   OH281394   0.092   5.460   6.604  0.3405 -0.0713 -0.5637
19968TIP3    H181395   0.016   5.437   6.550  0.2854  0.4765 -0.7262
19968TIP3    H281396   0.162   5.476   6.541  0.1791  0.9407 -0.5137
19969TIP3   OH281397   5.672   0.532  17.194  0.2079 -0.3421  0.0417
19969TIP3    H181398   5.618   0.457  17.219  0.0272 -0.7258 -1.4466
19969TIP3    H281399   5.756   0.517  17.239 -0.1926 -0.8396  0.6427
19970TIP3   OH281400   3.073   3.495   4.242 -0.6633  0.0037  0.0638
19970TIP3    H181401   3.092   3.456   4.156 -1.5772 -0.1868 -0.0542
19970TIP3    H281402   3.075   3.421   4.303  0.4488  0.2023  0.3005
19971TIP3   OH281403   2.757   1.198  14.603  0.1861 -0.0971  0.5680
19971TIP3    H181404   2.785   1.288  14.621 -0.8746  0.3499  0.1172
19971TIP3    H281405   2.784   1.182  14.512  0.8491 -0.4302  0.8222
19972TIP3   OH281406   0.481   0.754  13.245  0.4873 -0.0847 -0.3610
19972TIP3    H181407   0.569   0.722  13.224  0.5966  1.6574 -3.1429
19972TIP3    H281408   0.495   0.838  13.288  0.1466 -0.8274  1.2682
19973TIP3   OH281409   4.419   4.889   5.891 -0.3495  0.2088  0.0875
19973TIP3    H181410   4.401   4.913   5.982 -1.8041  0.9657 -0.3692
19973TIP3    H281411   4.413   4.794   5.889 -0.3305  0.1933  0.7762
19974TIP3   OH281412   3.233   1.127  16.095  0.3161 -0.4232 -0.1415
19974TIP3    H181413   3.200   1.067  16.028 -2.6519  1.6867 -0.7762
19974TIP3    H281414   3.272   1.199  16.046 -2.4955  1.4783  0.1901
19975TIP3   OH281415   3.634   2.170   4.842 -0.2994  0.1128  0.4078
19975TIP3    H181416   3.632   2.111   4.766 -1.0685 -0.4678  0.8601
19975TIP3    H281417   3.672   2.251   4.808 -0.6730 -0.1177 -0.6189
19976TIP3   OH281418   5.809   3.722  11.118  0.0394  0.9961 -0.1989
19976TIP3    H181419   5.753   3.746  11.191 -2.3532 -0.1796 -1.5402
19976TIP3    H281420   5.783   3.781  11.047  1.2159  1.0960 -0.5705
19977TIP3   OH281421   4.618   4.027  12.259  0.1201 -0.4937  0.1839
19977TIP3    H181422   4.710   4.006  12.243  0.1158  0.0123 -0.5532
19977TIP3    H281423   4.581   4.039  12.172 -0.1002  1.5519  0.5095
19978TIP3   OH281424   2.751   3.890  16.992 -0.1262 -0.4048  0.3211
19978TIP3    H181425   2.813   3.880  16.920  0.3080  0.0411  0.6263
19978TIP3    H281426   2.782   3.827  17.058 -0.3351 -0.5855  0.2488
19979TIP3   OH281427   4.848   4.114  16.085  0.1754  0.1333 -0.3188
19979TIP3    H181428   4.836   4.126  15.991  4.5862 -1.9049 -1.3456
19979TIP3    H281429   4.879   4.200  16.116 -0.2255  0.4957 -0.8932
19980TIP3   OH281430   2.131   2.150  12.810 -0.3372 -0.3333 -0.7798
19980TIP3    H181431   2.053   2.192  12.846 -1.5090 -2.5524 -0.6349
19980TIP3    H281432   2.099   2.096  12.738  1.3856  0.4367 -2.1970
19981TIP3   OH281433   2.293   4.327  14.041  0.0638  0.5469  0.4424
19981TIP3    H181434   2.260   4.238  14.029 -0.2620  0.7039  0.1478
19981TIP3    H281435   2.289   4.342  14.136  0.6823  0.0389  0.5522
19982TIP3   OH281436   2.783   4.655  16.921 -0.0579 -0.4671  0.7058
19982TIP3    H181437   2.800   4.727  16.982  1.6639  1.4098 -1.7767
19982TIP3    H281438   2.870   4.630  16.889 -0.8837 -1.3952 -0.9331
19983TIP3   OH281439   1.626   1.150   1.118 -0.0099  0.7091  0.2710
19983TIP3    H181440   1.592   1.060   1.120 -1.2685  1.1183 -1.1864
19983TIP3    H281441   1.589   1.191   1.196  0.7604 -0.0684  1.0772
19984TIP3   OH281442   4.561   4.374   1.440  0.3372  0.1140  0.4248
19984TIP3    H181443   4.585   4.447   1.496 -0.2243  0.8507 -0.2771
19984TIP3    H281444   4.468   4.359   1.460  0.4196 -0.3376  0.4820
19985TIP3   OH281445   2.214   3.507  12.114 -0.8906 -0.6286  0.3394
19985TIP3    H181446   2.188   3.576  12.175 -2.0941 -1.1377  0.4333
19985TIP3    H281447   2.137   3.451  12.108  0.5109 -2.8055  1.4138
19986TIP3   OH281448   5.667   2.660  12.970 -0.2388  0.3526 -0.4854
19986TIP3    H181449   5.641   2.675  13.061 -1.0626 -0.9215 -0.4791
19986TIP3    H281450   5.631   2.734  12.922 -0.8005  0.4417  0.0626
19987TIP3   OH281451   1.859   3.456  15.288 -0.5067  0.4086  0.3506
19987TIP3    H181452   1.945   3.419  15.271 -1.2242  0.2067 -3.9267
19987TIP3    H281453   1.873   3.551  15.287 -0.2083  0.3737  0.7815
19988TIP3   OH281454   0.137   1.142  15.629 -0.4155  0.3221 -0.1534
19988TIP3    H181455   0.099   1.089  15.699 -0.2798 -1.1719 -1.1611
19988TIP3    H281456   0.218   1.176  15.666 -0.9658  0.5887  0.8274
19989TIP3   OH281457   0.054   5.079   4.190  0.2902  0.3800 -0.5575
19989TIP3    H181458  -0.002   5.118   4.257 -0.8120 -1.1674 -0.5076
19989TIP3    H281459   0.016   5.107   4.107 -0.3753 -0.3582 -0.5207
19990TIP3   OH281460   1.107   5.874   3.960 -0.7850 -0.0100 -0.3088
19990TIP3    H181461   1.154   5.957   3.956 -1.0671  0.2143  0.7243
19990TIP3    H281462   1.162   5.813   3.912  0.9977  0.0382  1.5955
19991TIP3   OH281463   0.007   1.210  14.541  0.4042 -0.1380  0.3398
19991TIP3    H181464   0.027   1.169  14.456 -0.7126 -0.7307  0.3404
19991TIP3    H281465   0.090   1.208  14.588  1.5986  2.0417 -1.4450
19992TIP3   OH281466   1.284   5.185  14.161 -0.4069  0.6776  0.1610
19992TIP3    H181467   1.242   5.231  14.234  1.0895  3.2276 -0.4886
19992TIP3    H281468   1.227   5.201  14.086 -0.3168  0.7764  0.1128
19993TIP3   OH281469   0.516   2.736   4.942 -0.3805 -0.1605 -0.3140
19993TIP3    H181470   0.456   2.691   5.001 -0.7297 -1.4034 -1.5728
19993TIP3    H281471   0.487   2.712   4.854  0.2781  1.4313 -1.0217
19994TIP3   OH281472   2.475   1.620   1.632 -0.3243  0.0546 -0.0629
19994TIP3    H181473   2.486   1.671   1.712 -1.2762 -0.5123  0.4538
19994TIP3    H281474   2.396   1.568   1.648  0.1078 -0.9047 -0.9317
19995TIP3   OH281475   2.568   5.476  10.940  0.6512 -0.1042 -0.0776
19995TIP3    H181476   2.527   5.476  10.853 -0.3025 -2.8412  0.2519
19995TIP3    H281477   2.650   5.523  10.928  1.2132 -1.5590 -2.8549
19996TIP3   OH281478   3.773   4.899  14.057 -0.1287 -0.4274  0.2899
19996TIP3    H181479   3.722   4.970  14.018  1.4586  0.9389  0.5328
19996TIP3    H281480   3.805   4.848  13.983  0.5458  0.4660 -0.0535
19997TIP3   OH281481   5.196   2.711  15.414 -0.3087 -0.0018 -0.4952
19997TIP3    H181482   5.288   2.693  15.397  0.2218 -0.4523  2.2961
19997TIP3    H281483   5.181   2.797  15.375  1.5447  0.4442 -0.3332
19998TIP3   OH281484   6.510   6.227  12.999  0.7943  0.0255 -0.2284
19998TIP3    H181485   6.427   6.221  13.045  1.5821  0.2107  1.2606
19998TIP3    H281486   6.486   6.256  12.911 -0.6624  0.7277  0.3663
19999TIP3   OH281487   6.121   0.893   5.946 -0.2582  0.1688 -0.4574
19999TIP3    H181488   6.051   0.921   5.887  0.7964  3.6873 -0.2176
19999TIP3    H281489   6.075   0.853   6.020 -2.2384  3.5755  0.3303
20000TIP3   OH281490   1.366   0.863   2.281 -0.3727  0.1315  0.2757
20000TIP3    H181491   1.426   0.829   2.214  1.0468 -0.0578  1.5686
20000TIP3    H281492   1.410   0.941   2.315 -1.7824  1.0920 -0.0236
20001TIP3   OH281493   5.032   3.802   5.622  0.0254 -0.5336  0.4701
20001TIP3    H181494   4.965   3.734   5.620 -0.7271  0.1756  0.6217
20001TIP3    H281495   5.042   3.823   5.715 -0.1987 -0.0210  0.3846
20002TIP3   OH281496   3.489   2.643   3.844  0.0396  0.1335 -0.2095
20002TIP3    H181497   3.563   2.700   3.865  0.2101  0.1249 -0.7676
20002TIP3    H281498   3.412   2.699   3.857  0.1766  0.3257 -0.2132
20003TIP3   OH281499   2.227   4.157   0.717  0.1289 -0.1461 -0.2043
20003TIP3    H181500   2.199   4.119   0.633 -1.7325 -3.1980  1.5875
20003TIP3    H281501   2.147   4.162   0.769  1.7258 -2.9241  2.9279
20004TIP3   OH281502   0.974   5.429  15.829 -0.5078  0.1223  0.4817
20004TIP3    H181503   0.896   5.483  15.814 -1.2191 -1.3425 -1.5741
20004TIP3    H281504   1.042   5.471  15.776  0.2560  1.5114  2.4223
20005TIP3   OH281505   4.065   0.170  12.104 -0.4090  0.6282 -0.6669
20005TIP3    H181506   4.020   0.244  12.145 -0.4536  0.0466  0.3577
20005TIP3    H281507   3.997   0.123  12.056 -0.1550  1.9599 -2.4311
20006TIP3   OH281508   5.358   6.798   6.072 -0.4410  0.0561 -0.1734
20006TIP3    H181509   5.298   6.788   5.998 -0.3558  0.9930 -0.3854
20006TIP3    H281510   5.302   6.794   6.149 -1.2287  3.3586 -0.4157
20007TIP3   OH281511   0.716   1.544   3.409  0.1764 -0.2229 -0.3781
20007TIP3    H181512   0.786   1.584   3.356 -0.4306  0.5378 -0.6257
20007TIP3    H281513   0.639   1.597   3.390 -0.7647 -1.7766 -1.0217
20008TIP3   OH281514   4.182   6.038   5.228 -0.6370 -0.0315 -0.0437
20008TIP3    H181515   4.250   5.972   5.212  0.5052  0.8683  0.9106
20008TIP3    H281516   4.209   6.113   5.175 -0.6297  0.4906  0.6854
20009TIP3   OH281517   2.235   5.333   3.030 -0.6673  0.0057 -0.2116
20009TIP3    H181518   2.241   5.415   2.982 -1.0137  0.0087 -0.2515
20009TIP3    H281519   2.219   5.267   2.963 -0.6275 -0.0605 -0.1556
20010TIP3   OH281520   6.421   6.824   2.030 -0.0132  0.3580  1.0131
20010TIP3    H181521   6.364   6.849   1.956  0.8454 -2.0313 -0.5777
20010TIP3    H281522   6.503   6.871   2.014  0.8261 -1.5321 -0.7189
20011TIP3   OH281523   0.657   6.772  15.377  0.2743 -0.3659  0.7799
20011TIP3    H181524   0.575   6.730  15.404  0.5830 -1.3223  0.2925
20011TIP3    H281525   0.678   6.832  15.448 -0.9275  0.0142  0.8444
20012TIP3   OH281526   3.342   3.619   5.448 -0.2006 -0.3341 -0.2303
20012TIP3    H181527   3.409   3.555   5.473 -0.3695 -0.2335  0.4855
20012TIP3    H281528   3.347   3.622   5.352  1.1777  0.0476 -0.1695
20013TIP3   OH281529   3.132   4.370  15.434  0.6071  0.0894 -0.0275
20013TIP3    H181530   3.201   4.434  15.419  0.2450  0.5077  0.0918
20013TIP3    H281531   3.059   4.420  15.469  0.0171 -0.2406 -0.7423
20014TIP3   OH281532   0.763   4.779   1.542  0.5300 -0.4286  0.4924
20014TIP3    H181533   0.734   4.705   1.488 -0.7897 -0.4666  1.1989
20014TIP3    H281534   0.836   4.817   1.493 -0.7127 -0.3419 -1.4292
20015TIP3   OH281535   6.150   3.409   3.071 -0.1786  0.2066  0.5892
20015TIP3    H181536   6.241   3.391   3.093 -0.4200 -1.0879  0.5823
20015TIP3    H281537   6.121   3.333   3.021 -1.1520  0.7813  0.2473
20016TIP3   OH281538   5.252   5.695   2.900  0.5078 -0.2789  0.3676
20016TIP3    H181539   5.245   5.600   2.889 -0.4781 -0.1809 -0.0287
20016TIP3    H281540   5.249   5.709   2.994  0.6015 -0.6363  0.4257
20017TIP3   OH281541   4.836   1.467   4.451  0.3132  0.2120 -0.8061
20017TIP3    H181542   4.806   1.558   4.443  1.5050  0.7740  0.6315
20017TIP3    H281543   4.756   1.416   4.462 -0.3123  1.2388 -0.4463
20018TIP3   OH281544   0.087   2.073   5.711  0.1515  0.1824 -0.0222
20018TIP3    H181545   0.151   2.014   5.751 -0.5833 -0.4013  0.3026
20018TIP3    H281546   0.138   2.151   5.688  1.1926 -0.6781 -0.7270
20019TIP3   OH281547   3.114   4.117   1.107  0.0684  0.3478 -0.0701
20019TIP3    H181548   3.169   4.173   1.163  1.3024 -0.0832 -0.8051
20019TIP3    H281549   3.024   4.143   1.127  0.5592  1.4698  0.7641
20020TIP3   OH281550   4.003   0.787   0.308 -0.1605 -0.0015 -0.0059
20020TIP3    H181551   3.975   0.737   0.231 -0.3374 -1.0727  0.7302
20020TIP3    H281552   4.016   0.721   0.376 -0.0025  0.9218  0.8891
20021TIP3   OH281553   0.210   5.793  13.760 -0.1443  0.1341  0.1523
20021TIP3    H181554   0.126   5.823  13.794 -0.7353 -0.6908 -0.5164
20021TIP3    H281555   0.274   5.858  13.790 -0.8998  0.3487  1.3317
20022TIP3   OH281556   1.806   2.727   2.383  0.1318 -0.1835 -0.1334
20022TIP3    H181557   1.724   2.737   2.334 -0.1395  0.5483  0.4520
20022TIP3    H281558   1.850   2.653   2.341 -0.2451  0.2147 -1.2569
20023TIP3   OH281559   5.953   5.447  16.382  0.3896 -0.0619  0.7016
20023TIP3    H181560   5.898   5.525  16.391 -0.1252 -0.4474  0.9541
20023TIP3    H281561   5.902   5.387  16.329  0.1531 -0.7848  1.7114
20024TIP3   OH281562   2.467   4.701   0.531 -0.0941  0.0805  0.5872
20024TIP3    H181563   2.557   4.723   0.555 -0.0785  1.7555 -0.7936
20024TIP3    H281564   2.472   4.608   0.507  1.9164  0.7085 -1.9422
20025TIP3   OH281565   3.614   2.096  14.011 -0.1301  0.2498  0.0984
20025TIP3    H181566   3.527   2.122  14.043 -0.5813  0.4047 -1.2184
20025TIP3    H281567   3.675   2.147  14.064 -0.9282  2.2300 -0.8171
20026TIP3   OH281568   6.683   2.926  12.561 -0.1702 -0.1776 -0.2840
20026TIP3    H181569   6.760   2.868  12.561  0.3434  0.4897 -0.2515
20026TIP3    H281570   6.701   2.990  12.630 -0.9498 -0.2559 -0.0016
20027TIP3   OH281571   0.279   0.631   3.264  0.1528 -0.2214  0.4619
20027TIP3    H181572   0.351   0.595   3.212  1.1213  0.5256  1.2320
20027TIP3    H281573   0.310   0.718   3.291 -0.6737 -0.2328  1.5377
20028TIP3   OH281574   4.595   2.132  14.491  0.2680 -0.2023 -0.0968
20028TIP3    H181575   4.515   2.136  14.438 -1.2079  0.2498  2.0301
20028TIP3    H281576   4.602   2.219  14.531  0.7681 -0.7970  1.1743
20029TIP3   OH281577   6.699   0.258   5.166  0.1384 -0.0618  0.6557
20029TIP3    H181578   6.637   0.322   5.199  1.1308 -0.1152  2.7750
20029TIP3    H281579   6.769   0.256   5.231  1.3151 -1.5663 -0.5621
20030TIP3   OH281580   6.186   4.954   0.999  0.1371  0.1420  0.0796
20030TIP3    H181581   6.276   4.933   0.976 -0.1983 -1.5153  0.1947
20030TIP3    H281582   6.133   4.890   0.952 -0.8288 -0.5289  1.9813
20031TIP3   OH281583   1.466   6.322  13.549  0.3662 -0.1715 -0.1540
20031TIP3    H181584   1.438   6.413  13.547 -0.9209 -0.4930  1.3457
20031TIP3    H281585   1.548   6.323  13.599 -0.8290 -0.0584  1.9167
20032TIP3   OH281586   1.987   4.573  12.320 -0.2153  0.1087 -0.3620
20032TIP3    H181587   2.061   4.616  12.362  2.2098 -3.6435 -0.2775
20032TIP3    H281588   1.965   4.500  12.378 -1.1441 -1.3527 -2.4037
20033TIP3   OH281589   0.547   2.586   1.471  0.4849 -0.2491  0.0803
20033TIP3    H181590   0.641   2.587   1.488  0.5115 -1.5344  0.0789
20033TIP3    H281591   0.527   2.675   1.441  1.6767  0.0591  0.1671
20034TIP3   OH281592   0.096   1.568  12.180 -0.5123 -0.1234  0.5685
20034TIP3    H181593   0.086   1.645  12.235 -1.4195  0.8494 -0.8829
20034TIP3    H281594   0.011   1.524  12.184 -0.1614 -0.7704  0.9808
20035TIP3   OH281595   1.094   3.267   3.285  0.5329  0.0273 -0.0209
20035TIP3    H181596   1.022   3.329   3.296 -0.2799 -0.9771  0.5230
20035TIP3    H281597   1.141   3.270   3.369  1.5390  1.1593 -0.6018
20036TIP3   OH281598   1.466   0.528  15.018  0.1078 -0.3233  0.0233
20036TIP3    H181599   1.461   0.432  15.020 -1.0252 -0.3224 -1.2445
20036TIP3    H281600   1.396   0.557  15.076  0.1315 -0.2655  0.0229
20037TIP3   OH281601   1.069   2.925  12.144 -0.1605  0.0740  0.2061
20037TIP3    H181602   1.015   2.909  12.067  0.3838 -0.3409 -0.0892
20037TIP3    H281603   1.006   2.924  12.217 -0.6221  0.0886 -0.1842
20038TIP3   OH281604   1.381   5.573   0.307  0.0009 -0.3453  0.5563
20038TIP3    H181605   1.409   5.602   0.393 -1.6819 -0.3886  1.1538
20038TIP3    H281606   1.392   5.651   0.251  2.2043 -0.6442  0.4840
20039TIP3   OH281607   4.108   5.563   1.346 -0.2553  0.6920  0.1873
20039TIP3    H181608   4.074   5.591   1.261 -0.0977  1.0509  0.2416
20039TIP3    H281609   4.130   5.471   1.334 -0.1675  0.7606 -0.1817
20040TIP3   OH281610   0.731   1.254  11.471  0.4555  0.2216  0.1695
20040TIP3    H181611   0.719   1.340  11.511 -0.0963  0.1790  0.1020
20040TIP3    H281612   0.647   1.210  11.484  0.7862 -0.3685  0.3509
20041TIP3   OH281613   0.931   6.459   1.147 -0.0833  0.2884 -0.3694
20041TIP3    H181614   0.849   6.438   1.192  0.1375 -0.0347 -0.1161
20041TIP3    H281615   0.919   6.549   1.117 -1.3456 -0.4025 -2.1294
20042TIP3   OH281616   6.109   6.082   1.989 -0.3991  0.5606  0.3430
20042TIP3    H181617   6.113   5.992   1.958 -0.5021  0.3525  0.9157
20042TIP3    H281618   6.017   6.095   2.014 -0.8562  1.4724 -1.6031
20043TIP3   OH281619   1.290   5.400  15.462  0.3157  0.0171 -0.3753
20043TIP3    H181620   1.237   5.326  15.433 -0.9190  1.3005 -1.4978
20043TIP3    H281621   1.227   5.469  15.484  1.4525  0.9451  0.0949
20044TIP3   OH281622   6.674   5.438  16.903  0.2017  0.4692 -0.1569
20044TIP3    H181623   6.653   5.346  16.923  1.1265  0.0213 -1.1312
20044TIP3    H281624   6.592   5.485  16.919 -0.7693 -0.7848 -1.1589
20045TIP3   OH281625   3.318   1.797  12.828 -0.4230 -0.2944  0.2455
20045TIP3    H181626   3.369   1.871  12.795 -1.9374  0.5979 -0.2431
20045TIP3    H281627   3.321   1.805  12.923 -0.1053  0.0605  0.2060
20046TIP3   OH281628   6.176   1.774  12.286  0.6635 -0.2156 -0.2264
20046TIP3    H181629   6.243   1.839  12.303 -1.0605  1.2631  1.4107
20046TIP3    H281630   6.202   1.698  12.338  1.3003  0.1591  0.0156
20047TIP3   OH281631   6.711   2.063   5.359  0.2367  0.1794  0.1445
20047TIP3    H181632   6.738   2.008   5.285 -1.3660  0.6486 -0.8362
20047TIP3    H281633   6.732   2.011   5.436  0.6652 -0.9219 -0.6904
20048TIP3   OH281634   2.288   5.157   5.861 -0.8672 -0.4949 -0.0993
20048TIP3    H181635   2.328   5.074   5.836  2.0550  0.8880 -0.3929
20048TIP3    H281636   2.318   5.172   5.951  0.9756  1.4298 -0.9373
20049TIP3   OH281637   4.278   2.656   5.433 -0.3678  0.1813 -0.1693
20049TIP3    H181638   4.223   2.723   5.472  0.9202  0.2350  1.6459
20049TIP3    H281639   4.232   2.574   5.452  0.5491  0.1413  2.1353
20050TIP3   OH281640   4.131   5.292  12.120  0.0021 -0.0126  0.2360
20050TIP3    H181641   4.085   5.208  12.123 -1.2798  0.6832  0.8569
20050TIP3    H281642   4.195   5.287  12.191  0.8900 -0.9680 -0.5959
20051TIP3   OH281643   5.346   2.333   1.648 -0.0798  0.1515 -0.5423
20051TIP3    H181644   5.295   2.260   1.613 -0.9052  0.6184 -0.3335
20051TIP3    H281645   5.281   2.391   1.688  0.6148  0.7633 -0.2790
20052TIP3   OH281646   5.437   4.291   5.010  0.8813 -0.0960  0.1402
20052TIP3    H181647   5.447   4.310   5.103 -0.0443 -0.3565  0.3055
20052TIP3    H281648   5.446   4.196   5.004  0.2667 -0.1516  0.0609
20053TIP3   OH281649   3.022   0.582  17.173  0.3614 -0.0652 -0.5317
20053TIP3    H181650   3.103   0.629  17.153  0.7149 -1.0193 -1.4190
20053TIP3    H281651   2.978   0.573  17.089 -0.2860 -0.2695 -0.1759
20054TIP3   OH281652   5.633   4.868   3.972 -0.0926 -0.4542 -0.5132
20054TIP3    H181653   5.617   4.790   3.919 -0.8126 -0.6685 -0.0042
20054TIP3    H281654   5.725   4.861   3.998  0.6747  0.3512 -2.8190
20055TIP3   OH281655   0.989   5.071   2.314  0.2566  0.0187  0.0913
20055TIP3    H181656   0.920   5.015   2.278  0.0243  0.8557 -0.8077
20055TIP3    H281657   0.975   5.068   2.409 -1.1935  0.4026 -0.0919
20056TIP3   OH281658   3.519   6.150  11.049 -0.0514 -0.5797 -0.1444
20056TIP3    H181659   3.455   6.079  11.051  0.1459 -0.7459  0.3792
20056TIP3    H281660   3.471   6.227  11.081  0.0258 -0.7202  0.3138
20057TIP3   OH281661   5.167   3.904   4.544 -0.1608 -0.0005  0.0111
20057TIP3    H181662   5.175   3.812   4.517 -1.3353 -0.5991  1.5555
20057TIP3    H281663   5.245   3.946   4.508  0.0964 -1.4561 -1.2522
20058TIP3   OH281664   3.222   0.687   3.113 -0.0633 -0.2679 -0.3868
20058TIP3    H181665   3.184   0.643   3.189  0.1906  0.4765  0.1933
20058TIP3    H281666   3.147   0.723   3.066 -0.1997 -0.4516 -0.3115
20059TIP3   OH281667   4.710   3.830  14.520  0.2160 -0.0349  0.4573
20059TIP3    H181668   4.781   3.808  14.581  0.2404  3.3126  1.8517
20059TIP3    H281669   4.755   3.860  14.441  0.3141  0.1198  0.5710
20060TIP3   OH281670   1.973   1.874  10.548  0.2745  0.6158 -0.2155
20060TIP3    H181671   2.021   1.794  10.529 -0.2506  0.3889 -0.6211
20060TIP3    H281672   2.016   1.941  10.494 -0.2582  0.2814 -1.0734
20061TIP3   OH281673   6.042   0.701   4.630 -0.1935 -0.7173 -0.2548
20061TIP3    H181674   5.951   0.723   4.608  0.2640  0.1168 -1.3705
20061TIP3    H281675   6.071   0.646   4.558  0.3708 -0.4921 -0.1994
20062TIP3   OH281676   3.495   0.692  13.484 -0.3324 -0.2033  0.0872
20062TIP3    H181677   3.522   0.760  13.421 -0.9810 -0.4179 -0.4300
20062TIP3    H281678   3.464   0.741  13.560 -0.3345  0.0722 -0.0895
20063TIP3   OH281679   3.541   3.885   4.519 -0.0756 -0.0236  0.4561
20063TIP3    H181680   3.527   3.872   4.425 -2.3737 -1.4367  0.9014
20063TIP3    H281681   3.501   3.970   4.538  0.1512  0.1402  0.1964
20064TIP3   OH281682   6.460   3.383  13.946  0.0405 -0.7078  0.2836
20064TIP3    H181683   6.536   3.343  13.904  1.2849  0.5768  1.2338
20064TIP3    H281684   6.479   3.476  13.946 -2.0484 -0.2173 -0.4060
20065TIP3   OH281685   3.962   0.522  15.390 -0.5713 -0.4900  0.7196
20065TIP3    H181686   3.964   0.427  15.401  1.7669 -0.4079  1.6185
20065TIP3    H281687   3.878   0.549  15.428 -0.5495 -2.0492  1.9578
20066TIP3   OH281688   3.945   0.615  11.589  0.8181  0.0268 -0.2589
20066TIP3    H181689   4.010   0.685  11.599  0.7537 -0.0683  0.9793
20066TIP3    H281690   3.861   0.659  11.590  0.7564 -0.0856  0.9835
20067TIP3   OH281691   5.287   3.868   5.166 -0.7814 -0.0741  0.5405
20067TIP3    H181692   5.264   3.946   5.116 -1.1013 -1.6639 -1.9789
20067TIP3    H281693   5.208   3.848   5.217 -0.9188  0.8530  0.7100
20068TIP3   OH281694   0.207   6.767  16.816 -0.7811 -0.2739 -0.1075
20068TIP3    H181695   0.204   6.723  16.731 -1.5696  0.4245 -0.4550
20068TIP3    H281696   0.169   6.704  16.877 -0.7182 -0.5707 -0.3746
20069TIP3   OH281697   2.180   1.352  11.999  0.0713  0.3566 -0.4726
20069TIP3    H181698   2.176   1.306  11.915  0.7098  0.1226 -0.3767
20069TIP3    H281699   2.249   1.417  11.988 -0.2734  0.7504 -0.3355
20070TIP3   OH281700   3.534   3.280  14.524  0.4987  0.0048  0.4153
20070TIP3    H181701   3.483   3.345  14.572 -4.3236 -0.8444 -2.8701
20070TIP3    H281702   3.564   3.326  14.445 -1.0069 -1.0466 -0.8307
20071TIP3   OH281703   1.157   2.715   3.084 -0.0900 -0.0537  0.2631
20071TIP3    H181704   1.150   2.678   3.172 -0.2076 -0.7507 -0.0374
20071TIP3    H281705   1.090   2.783   3.082 -0.0581 -0.0035  0.7231
20072TIP3   OH281706   3.913   1.470  11.143 -0.6298 -0.3519  0.2848
20072TIP3    H181707   3.890   1.531  11.213 -1.0928  0.5648 -0.6325
20072TIP3    H281708   3.984   1.513  11.095  0.8187 -1.6965  1.1178
20073TIP3   OH281709   6.490   3.041  13.631  0.0971 -0.5784  0.8769
20073TIP3    H181710   6.407   3.061  13.588  0.1446 -0.1595  0.9668
20073TIP3    H281711   6.482   2.951  13.661 -0.3657 -0.4998  0.9856
20074TIP3   OH281712   2.286   1.740   3.833 -0.2813 -0.0204 -0.3687
20074TIP3    H181713   2.212   1.757   3.890 -0.9741  0.7875 -1.4529
20074TIP3    H281714   2.337   1.822   3.834 -1.1785  0.6117 -2.1091
20075TIP3   OH281715   1.417   4.785  16.723  0.2691 -0.5933 -0.1141
20075TIP3    H181716   1.346   4.835  16.765  0.2027 -1.3720  0.7337
20075TIP3    H281717   1.379   4.699  16.707  0.4729 -0.4797 -1.3193
20076TIP3   OH281718   3.080   4.379   1.678  0.1016  0.0279 -0.1517
20076TIP3    H181719   3.119   4.387   1.591 -0.4846 -0.6815 -0.4949
20076TIP3    H281720   2.986   4.373   1.662  0.0243 -0.6375  0.4878
20077TIP3   OH281721   5.719   0.440   3.918 -0.4211  0.2323  0.6409
20077TIP3    H181722   5.733   0.531   3.891 -1.6709  0.8654  2.0199
20077TIP3    H281723   5.685   0.446   4.007 -0.8353 -1.5902  0.6449
20078TIP3   OH281724   3.275   4.544   3.189 -0.0813  0.3642 -0.0284
20078TIP3    H181725   3.368   4.548   3.166 -0.5899  1.3100 -2.1854
20078TIP3    H281726   3.250   4.454   3.170  0.5251 -0.1059  1.2802
20079TIP3   OH281727   2.800   4.034   1.672  0.7003 -0.7128 -0.8230
20079TIP3    H181728   2.871   3.974   1.697  1.8238  0.7363 -0.4474
20079TIP3    H281729   2.735   4.023   1.742  1.1371 -1.0915 -0.4661
20080TIP3   OH281730   2.347   3.857  14.288 -0.1550 -0.1632 -0.2767
20080TIP3    H181731   2.412   3.811  14.342 -0.2002 -0.3336 -0.3688
20080TIP3    H281732   2.399   3.920  14.237 -0.0088 -0.6292 -0.6995
20081TIP3   OH281733   5.251   0.559  11.262 -0.2961 -0.3693  0.8169
20081TIP3    H181734   5.175   0.566  11.205  0.1547 -0.2400  0.2288
20081TIP3    H281735   5.243   0.472  11.302  0.5806 -1.4474 -1.1959
20082TIP3   OH281736   6.168   1.349  16.001 -0.6494  0.0162 -0.9021
20082TIP3    H181737   6.248   1.298  16.016 -0.9910  0.0178  1.2332
20082TIP3    H281738   6.101   1.283  15.981 -0.6278 -0.2263 -0.2251
20083TIP3   OH281739   1.942   4.576  15.377  0.6750  0.3372 -0.0093
20083TIP3    H181740   1.903   4.551  15.294 -0.7742 -0.1949  0.7931
20083TIP3    H281741   1.892   4.527  15.443  1.4202  1.1629  1.2155
20084TIP3   OH281742   0.492   3.565  10.826 -0.6709  0.1954 -0.3966
20084TIP3    H181743   0.577   3.595  10.859 -1.2240 -0.2506  1.5753
20084TIP3    H281744   0.442   3.645  10.812 -0.4499  0.4045 -0.0203
20085TIP3   OH281745   3.039   2.681  16.547  0.4591  0.5323 -0.6089
20085TIP3    H181746   3.081   2.764  16.527 -0.7413  1.6111  1.0541
20085TIP3    H281747   3.109   2.625  16.579  0.7342  2.3108  2.1922
20086TIP3   OH281748   3.454   1.326   4.828 -0.2176 -0.3271 -0.4518
20086TIP3    H181749   3.459   1.421   4.840 -1.2852  0.0791 -2.7461
20086TIP3    H281750   3.472   1.290   4.915  0.8737  1.9331  0.3321
20087TIP3   OH281751   1.577   1.617  16.739  0.1722 -0.1255  0.0151
20087TIP3    H181752   1.632   1.586  16.667  0.2554 -1.5963  0.6630
20087TIP3    H281753   1.511   1.673  16.697  2.2916  1.9574 -0.7432
20088TIP3   OH281754   2.411   1.811   0.764 -0.5706 -0.2212  0.1023
20088TIP3    H181755   2.342   1.745   0.771 -2.1867  0.6625 -4.5192
20088TIP3    H281756   2.472   1.775   0.700  0.7684  1.0866  0.5846
20089TIP3   OH281757   1.487   2.389   2.064  0.2670  0.4118  0.0242
20089TIP3    H181758   1.545   2.452   2.021 -0.2424  0.4304 -0.6454
20089TIP3    H281759   1.529   2.372   2.148  1.2213  0.4513 -0.4340
20090TIP3   OH281760   1.682   2.148   5.249  0.0809  0.3154  0.1639
20090TIP3    H181761   1.674   2.055   5.227 -0.7683  0.2201  0.7980
20090TIP3    H281762   1.753   2.151   5.314  1.2888  0.3549 -1.1111
20091TIP3   OH281763   5.620   1.298  13.119 -0.4198  0.2642  0.2371
20091TIP3    H181764   5.531   1.266  13.106  0.2619 -1.2211 -0.9572
20091TIP3    H281765   5.666   1.277  13.038  1.4190 -0.3808  1.3847
20092TIP3   OH281766   5.701   5.783   2.498 -0.5229 -0.1926  0.3397
20092TIP3    H181767   5.700   5.712   2.433 -1.3738  0.7508 -0.7118
20092TIP3    H281768   5.622   5.769   2.550 -0.4185 -0.3091  0.4682
20093TIP3   OH281769   2.737   1.283   4.933 -0.8641  0.0016  0.1936
20093TIP3    H181770   2.649   1.303   4.900 -1.2040  1.0950  1.6731
20093TIP3    H281771   2.740   1.187   4.936 -2.1905 -0.0575  0.5656
20094TIP3   OH281772   0.771   3.699  11.620  0.7851  0.1656 -0.0615
20094TIP3    H181773   0.690   3.689  11.571  1.1821  1.8830 -1.1747
20094TIP3    H281774   0.744   3.702  11.712 -0.6796  2.4602 -0.4739
20095TIP3   OH281775   6.764   4.969   5.261 -0.1847 -0.2966  1.0081
20095TIP3    H181776   6.759   4.918   5.341  0.4857  0.3271  1.4648
20095TIP3    H281777   6.689   5.028   5.264  0.3676  0.3868  1.6555
20096TIP3   OH281778   3.931   3.109  12.465 -0.1977 -0.2119  0.5572
20096TIP3    H181779   3.923   3.152  12.379  1.0105  1.3345  1.1606
20096TIP3    H281780   3.960   3.021  12.445 -0.0217  0.0921 -0.6314
20097TIP3   OH281781   3.303   3.782   5.680  0.3063  0.4777 -0.2547
20097TIP3    H181782   3.370   3.759   5.745 -0.4702  0.3231  0.4980
20097TIP3    H281783   3.320   3.722   5.607  0.8570  0.2953  0.0153
20098TIP3   OH281784   3.511   3.434  12.660 -0.4312 -0.4016  0.0007
20098TIP3    H181785   3.417   3.446  12.675 -0.4759  1.0018 -1.1545
20098TIP3    H281786   3.551   3.447  12.746 -1.2215 -0.1544  0.3421
20099TIP3   OH281787   3.051   4.925  10.936 -0.4556 -0.7418 -0.0690
20099TIP3    H181788   2.991   4.889  10.870 -0.1386 -1.6772  0.1460
20099TIP3    H281789   3.017   4.894  11.019  0.5633 -1.6578  0.0255
20100TIP3   OH281790   3.239   0.581  13.070  0.1237  0.5019  0.0259
20100TIP3    H181791   3.248   0.676  13.056  0.9451  0.1537 -2.3245
20100TIP3    H281792   3.145   0.568  13.082  0.0454  1.6530  0.8923
20101TIP3   OH281793   5.383   5.944  15.622  0.0594  0.1922  0.1619
20101TIP3    H181794   5.353   5.873  15.680 -0.0746 -1.3535 -1.6772
20101TIP3    H281795   5.457   5.983  15.668 -0.5834 -0.3845  1.7533
20102TIP3   OH281796   0.162   4.167   3.578  0.5902  0.2168 -0.3862
20102TIP3    H181797   0.184   4.085   3.622  1.0997  0.1985 -0.6602
20102TIP3    H281798   0.192   4.235   3.638  0.4182  0.2022 -0.2825
20103TIP3   OH281799   6.419   3.679  15.093  0.1873  0.1049  0.0643
20103TIP3    H181800   6.465   3.747  15.142 -0.2225  1.2291 -1.0472
20103TIP3    H281801   6.422   3.710  15.002 -1.5271 -0.5077 -0.2291
20104TIP3   OH281802   1.130   1.087  14.817 -0.3577 -0.1241 -0.1315
20104TIP3    H181803   1.170   1.033  14.885 -0.5302 -0.1749 -0.0677
20104TIP3    H281804   1.036   1.074  14.829 -0.4089  0.4182  0.0706
20105TIP3   OH281805   1.372   4.157  14.014  0.2155  0.0990 -0.0467
20105TIP3    H181806   1.439   4.102  13.973 -0.3731  0.0134 -0.9117
20105TIP3    H281807   1.317   4.096  14.063 -1.0535 -0.2723 -1.8327
20106TIP3   OH281808   6.610   5.991  15.308  0.4324  0.3878  0.2379
20106TIP3    H181809   6.523   6.029  15.322 -0.0774  0.2017 -1.9985
20106TIP3    H281810   6.669   6.066  15.306 -0.1205  0.8257 -1.0042
20107TIP3   OH281811   2.536   5.789   4.858 -0.5215  0.0254 -0.2891
20107TIP3    H181812   2.613   5.735   4.838  0.6308  1.3978  0.2466
20107TIP3    H281813   2.572   5.866   4.903 -2.0401  1.4459 -1.3717
20108TIP3   OH281814   4.719   4.485   0.768 -0.1947  0.1205 -0.5614
20108TIP3    H181815   4.763   4.552   0.716 -0.4790  1.4881  0.8811
20108TIP3    H281816   4.764   4.404   0.745  0.8883  0.9601 -1.5521
20109TIP3   OH281817   5.854   2.437   5.749 -0.2728  0.0097 -0.0054
20109TIP3    H181818   5.878   2.453   5.840  2.0661  1.5378 -0.7982
20109TIP3    H281819   5.868   2.521   5.705 -0.4182 -0.9237 -1.9468
20110TIP3   OH281820   1.959   4.493   5.184  0.0822 -0.3541 -0.1833
20110TIP3    H181821   2.007   4.488   5.267  1.6701  0.8495 -0.9756
20110TIP3    H281822   1.973   4.407   5.144 -0.0092 -0.6608  0.4188
20111TIP3   OH281823   3.434   5.612   4.055 -0.0904 -0.3266 -0.3290
20111TIP3    H181824   3.519   5.620   4.012  0.3070 -0.1200  0.4682
20111TIP3    H281825   3.402   5.525   4.030 -0.0907 -0.0178 -1.4170
20112TIP3   OH281826   2.217   0.499  17.075 -0.1848  0.2198 -0.4794
20112TIP3    H181827   2.173   0.581  17.052  1.0886  1.5745  1.6062
20112TIP3    H281828   2.169   0.467  17.152  0.0907 -0.3827 -0.5493
20113TIP3   OH281829   4.625   5.063   2.600  0.1352  0.4097 -0.0771
20113TIP3    H181830   4.671   4.981   2.620 -1.3452 -0.2980  0.5840
20113TIP3    H281831   4.600   5.054   2.508 -0.3493 -0.0628  0.0944
20114TIP3   OH281832   0.357   5.062  15.462 -0.2374 -0.1339  0.0678
20114TIP3    H181833   0.277   5.106  15.433 -0.3665  0.2292  0.9590
20114TIP3    H281834   0.427   5.104  15.411 -0.5589 -0.1255 -0.3703
20115TIP3   OH281835   6.673   2.783  16.437  0.1830  0.3432  0.7407
20115TIP3    H181836   6.606   2.728  16.397 -0.1580 -1.1724  3.1722
20115TIP3    H281837   6.755   2.756  16.395 -0.1881 -0.9531  0.8096
20116TIP3   OH281838   5.385   5.186   2.246 -0.2353  0.4415  0.1663
20116TIP3    H181839   5.325   5.259   2.230  0.8453  1.6060  1.1311
20116TIP3    H281840   5.376   5.130   2.170 -1.5691  1.2739 -0.3177
20117TIP3   OH281841   5.413   2.338  15.260 -0.1687  0.0364 -0.1861
20117TIP3    H181842   5.476   2.292  15.204 -0.4790 -0.5629 -0.0490
20117TIP3    H281843   5.333   2.342  15.209  0.1734  1.4939 -0.6778
20118TIP3   OH281844   0.614   5.043   0.909 -0.2802 -0.5062  0.8386
20118TIP3    H181845   0.548   4.976   0.922 -0.0100 -0.8412  0.4996
20118TIP3    H281846   0.637   5.037   0.816 -0.2897  0.0867  0.7935
20119TIP3   OH281847   4.434   0.767   0.772 -0.3935  0.9309 -0.1292
20119TIP3    H181848   4.387   0.696   0.728 -0.0205 -0.6087  1.8007
20119TIP3    H281849   4.527   0.745   0.759 -0.2508  1.7639 -0.5543
20120TIP3   OH281850   0.141   1.837  16.843  0.1675 -0.1135  0.5698
20120TIP3    H181851   0.168   1.748  16.822 -2.5309 -0.9731  0.3347
20120TIP3    H281852   0.204   1.867  16.908  3.8793 -0.4142 -2.5263
20121TIP3   OH281853   4.220   4.695  13.382 -0.2030 -0.2478  0.0591
20121TIP3    H181854   4.189   4.766  13.326  0.8275  0.7388  0.6972
20121TIP3    H281855   4.268   4.637  13.323 -0.8546 -0.3058 -0.4254
20122TIP3   OH281856   2.700   5.999   6.253  0.0418  0.8200 -0.0343
20122TIP3    H181857   2.649   5.918   6.257  1.0639  0.0116 -1.8819
20122TIP3    H281858   2.636   6.069   6.270 -1.4327 -0.2289 -0.9927
20123TIP3   OH281859   3.709   5.617  17.143 -0.2159 -0.3724 -0.0502
20123TIP3    H181860   3.643   5.686  17.140  0.0036 -0.0609  1.4421
20123TIP3    H281861   3.720   5.598  17.236  3.8263  1.6720  0.1494
20124TIP3   OH281862   5.025   3.086  13.482 -0.0780  1.0995  0.0170
20124TIP3    H181863   5.028   3.142  13.405  2.3587  0.5440 -0.3800
20124TIP3    H281864   5.004   2.999  13.449  1.0563  0.8428 -0.0828
20125TIP3   OH281865   0.825   5.534   1.931 -0.1196  0.7841 -0.1622
20125TIP3    H181866   0.753   5.499   1.984 -0.9674  1.3370 -0.9218
20125TIP3    H281867   0.809   5.502   1.843  0.8497  0.5187 -0.2602
20126TIP3   OH281868   0.480   0.522   3.120  0.0133  0.3267 -0.1795
20126TIP3    H181869   0.442   0.498   3.036  1.7660 -1.4334 -0.5358
20126TIP3    H281870   0.513   0.440   3.156 -0.9975  0.9642  2.4303
20127TIP3   OH281871   2.970   6.315  17.019  0.0315  0.2274  0.1788
20127TIP3    H181872   2.999   6.279  16.934 -1.0629 -0.8182  0.2362
20127TIP3    H281873   2.914   6.247  17.056 -1.2269  1.5587  0.7846
20128TIP3   OH281874   3.664   5.715   3.270 -0.0023 -0.4886  0.3245
20128TIP3    H181875   3.574   5.740   3.246  0.0972 -0.2948  0.1535
20128TIP3    H281876   3.718   5.747   3.198 -0.0482 -2.7576 -0.8102
20129TIP3   OH281877   1.393   3.022  13.992  0.8480  0.6794 -0.4368
20129TIP3    H181878   1.335   3.096  14.014  1.2908  0.7273  0.6824
20129TIP3    H281879   1.436   3.049  13.911  0.7741  1.5336 -0.2122
20130TIP3   OH281880   5.352   1.664  16.350  0.0155  0.3978 -0.2596
20130TIP3    H181881   5.375   1.579  16.312  2.0009 -0.3610  2.3360
20130TIP3    H281882   5.320   1.715  16.276  2.2153 -1.4019 -2.6668
20131TIP3   OH281883   4.378   4.716   2.357 -0.2907  0.1189 -0.3736
20131TIP3    H181884   4.420   4.736   2.441 -0.2173 -0.1525 -0.3472
20131TIP3    H281885   4.286   4.701   2.379 -0.3799  0.5880 -0.4151
20132TIP3   OH281886   4.343   0.213   5.478  0.4650  0.7475  0.8212
20132TIP3    H181887   4.345   0.266   5.558 -0.1507  1.4013  0.4142
20132TIP3    H281888   4.425   0.164   5.479  0.1875  0.2755  2.1674
20133TIP3   OH281889   2.025   3.525  16.059  0.2186 -0.1404  0.0793
20133TIP3    H181890   1.983   3.611  16.065  0.4103  0.3124 -3.2080
20133TIP3    H281891   2.117   3.542  16.078  0.7130  0.9674 -2.8295
20134TIP3   OH281892   6.516   2.449  14.648  0.3260  0.0330 -0.2721
20134TIP3    H181893   6.471   2.411  14.723  1.3750 -0.5777  0.0693
20134TIP3    H281894   6.557   2.374  14.604  0.1339  0.4428 -1.1792
20135TIP3   OH281895   3.929   2.077  13.164 -0.2020  0.6807  0.2280
20135TIP3    H181896   3.928   2.172  13.151 -0.6450  1.0846  2.7030
20135TIP3    H281897   3.995   2.063  13.232  0.8096 -0.9765 -1.0209
20136TIP3   OH281898   4.219   3.596  16.542  0.0891  0.2947 -0.7131
20136TIP3    H181899   4.153   3.607  16.611  1.5744  2.9399  0.4439
20136TIP3    H281900   4.172   3.612  16.461 -1.0592  0.2360 -0.0764
20137TIP3   OH281901   1.560   6.273   0.910  0.2519 -0.1879  0.2182
20137TIP3    H181902   1.651   6.266   0.880  0.5637 -0.3003  1.1688
20137TIP3    H281903   1.511   6.213   0.853  0.6087  0.5470 -0.9011
20138TIP3   OH281904   1.238   1.699   2.582  0.4531 -0.2441 -0.1050
20138TIP3    H181905   1.273   1.776   2.627 -0.5503  0.1841 -0.0260
20138TIP3    H281906   1.143   1.709   2.588  0.2806 -1.9894  0.7662
20139TIP3   OH281907   2.912   3.726  13.186 -0.4012  0.5820  0.0644
20139TIP3    H181908   2.874   3.646  13.147 -0.3683 -0.7368  2.5541
20139TIP3    H281909   2.986   3.695  13.238 -2.2517  1.7055  3.6725
20140TIP3   OH281910   2.416   1.489   1.259 -0.5939  1.0457  0.2889
20140TIP3    H181911   2.367   1.535   1.191  1.2998  0.7513 -1.3641
20140TIP3    H281912   2.495   1.541   1.271  0.2314 -0.2102  0.4814
20141TIP3   OH281913   3.574   3.767  12.583  0.5709 -0.5360  0.3125
20141TIP3    H181914   3.583   3.843  12.527 -1.2915 -0.0019  0.6607
20141TIP3    H281915   3.518   3.707  12.533  2.4272 -1.9416 -0.1806
20142TIP3   OH281916   5.327   2.867  10.424 -0.5417  0.7310 -0.1564
20142TIP3    H181917   5.314   2.944  10.480 -1.3534  1.7117 -1.6393
20142TIP3    H281918   5.240   2.850  10.386  0.2110  0.7647 -1.9515
20143TIP3   OH281919   5.750   5.843   5.500 -0.1450 -0.4663 -0.6861
20143TIP3    H181920   5.837   5.810   5.525 -0.1385 -0.4072 -0.6303
20143TIP3    H281921   5.701   5.765   5.475 -1.9442 -1.4788  4.5791
20144TIP3   OH281922   0.951   2.646  12.521  0.4258  0.3800  0.5468
20144TIP3    H181923   0.888   2.619  12.589 -0.8948  0.5953 -0.5446
20144TIP3    H281924   0.961   2.569  12.466 -0.3046  0.8841 -0.3164
20145TIP3   OH281925   0.979   4.896  14.676  0.3588 -0.0474 -0.0931
20145TIP3    H181926   1.073   4.906  14.689  0.3915  1.1464 -1.0935
20145TIP3    H281927   0.953   4.828  14.738  1.5930  0.7455  1.3444
20146TIP3   OH281928   0.480   0.353   1.990 -0.5049 -0.1760  0.4522
20146TIP3    H181929   0.441   0.381   1.907  0.8671  0.7010  0.0746
20146TIP3    H281930   0.417   0.382   2.056  0.0676  2.4403 -0.0460
20147TIP3   OH281931   1.665   3.124  15.132  0.3785 -0.6689 -0.2588
20147TIP3    H181932   1.666   3.211  15.092 -0.2881 -1.5270 -2.2406
20147TIP3    H281933   1.745   3.122  15.186  0.6055  1.0144 -0.4765
20148TIP3   OH281934   2.498   1.270  15.962  0.1506 -0.3060 -0.6974
20148TIP3    H181935   2.408   1.285  15.933  1.0042  0.2457 -3.4057
20148TIP3    H281936   2.504   1.315  16.046 -2.3656 -1.3318  0.1350
20149TIP3   OH281937   0.313   2.397   1.139 -0.1427 -0.6243  0.5837
20149TIP3    H181938   0.261   2.436   1.209  0.7393  0.1391  0.8355
20149TIP3    H281939   0.251   2.387   1.066  0.0512  3.9843 -0.5867
20150TIP3   OH281940   0.956   4.687   3.732  0.5588  0.2285 -0.0184
20150TIP3    H181941   0.903   4.766   3.744 -1.5394 -1.3620  1.8990
20150TIP3    H281942   1.014   4.684   3.808  0.3454 -0.2789  0.1289
20151TIP3   OH281943   4.223   2.174  15.063  0.0250 -0.9695 -0.0744
20151TIP3    H181944   4.254   2.084  15.070  1.1021 -0.6178 -0.2409
20151TIP3    H281945   4.269   2.211  14.988  0.4870  0.0694  0.6858
20152TIP3   OH281946   5.855   2.363   2.031  0.0681  0.5012  0.4065
20152TIP3    H181947   5.890   2.402   2.111 -2.1528  1.0797  1.1645
20152TIP3    H281948   5.828   2.275   2.057  0.9363  0.0295 -0.1939
20153TIP3   OH281949   4.919   1.918   2.557  0.2903  0.7982 -0.1191
20153TIP3    H181950   4.850   1.917   2.623  0.8777  2.2918  0.5560
20153TIP3    H281951   4.873   1.900   2.474 -0.3815 -1.6567  0.6949
20154TIP3   OH281952   0.025   0.869  10.952 -0.1007 -0.0077 -0.0943
20154TIP3    H181953   0.110   0.909  10.934  0.4239 -0.1478  1.7672
20154TIP3    H281954   0.016   0.801  10.887  0.3306  1.2284 -1.5079
20155TIP3   OH281955   5.283   4.761   0.314 -0.4671 -0.1061 -0.3856
20155TIP3    H181956   5.224   4.708   0.261 -1.2721 -0.2204  0.5994
20155TIP3    H281957   5.225   4.818   0.364  0.3447  1.0581 -0.7302
20156TIP3   OH281958   0.677   4.833   0.647  0.6340  0.7245 -0.3347
20156TIP3    H181959   0.632   4.794   0.573 -0.9963  0.3456  0.8003
20156TIP3    H281960   0.670   4.768   0.717 -1.6274  2.6638  1.4199
20157TIP3   OH281961   6.068   0.661  16.289 -0.5825  0.1364 -0.2104
20157TIP3    H181962   6.151   0.705  16.307 -0.5767  0.1157 -0.1875
20157TIP3    H281963   6.092   0.570  16.273 -0.6888 -0.0369  0.5994
20158TIP3   OH281964   4.811   2.725   6.145  0.2652  0.2275 -0.0598
20158TIP3    H181965   4.897   2.739   6.184  1.0682 -0.9603 -1.3037
20158TIP3    H281966   4.827   2.664   6.073 -1.4697  0.7657 -0.9546
20159TIP3   OH281967   5.380   4.651   2.793  0.2045  0.2211 -0.1899
20159TIP3    H181968   5.474   4.668   2.805  0.0252  0.5136  0.8413
20159TIP3    H281969   5.354   4.606   2.873 -0.5452  0.1288 -0.4821
20160TIP3   OH281970   5.321   2.518  13.191  0.0629  0.0044 -0.1582
20160TIP3    H181971   5.281   2.437  13.222  0.9550 -0.2831  0.2683
20160TIP3    H281972   5.374   2.492  13.115 -0.2189  0.3121 -0.4638
20161TIP3   OH281973   1.682   1.642  15.870  0.3749  0.3677 -0.2037
20161TIP3    H181974   1.713   1.697  15.799  1.1434  2.0497  1.3630
20161TIP3    H281975   1.667   1.702  15.943  0.2916 -1.3678  1.2905
20162TIP3   OH281976   3.501   6.709  16.415 -0.7054  0.2360  0.6437
20162TIP3    H181977   3.528   6.636  16.471  1.3988  0.1716 -0.3633
20162TIP3    H281978   3.442   6.670  16.351  0.5495 -0.6656  0.0011
20163TIP3   OH281979   2.659   2.678   0.215  0.1476  0.0642  0.0844
20163TIP3    H181980   2.689   2.587   0.204  0.3106  0.0030  0.9291
20163TIP3    H281981   2.565   2.674   0.198  0.3885  0.0096 -1.2953
20164TIP3   OH281982   5.799   5.383  13.736 -0.2397  0.0451  0.1097
20164TIP3    H181983   5.722   5.423  13.777  1.5507 -0.2445  4.2334
20164TIP3    H281984   5.772   5.294  13.715 -1.2419  0.1319  0.9320
20165TIP3   OH281985   2.995   5.111  12.782  0.2214  0.1067  0.0148
20165TIP3    H181986   2.932   5.073  12.843 -0.3927 -0.4660 -0.9612
20165TIP3    H281987   3.072   5.130  12.837 -0.7322  0.7243  1.1954
20166TIP3   OH281988   2.736   5.816  12.642 -0.4662  0.1853 -0.1865
20166TIP3    H181989   2.767   5.751  12.706 -2.6414 -0.9534 -0.1943
20166TIP3    H281990   2.708   5.890  12.696 -1.8857 -0.6004  0.2360
20167TIP3   OH281991   2.515   1.602  10.607 -0.1899 -0.2222 -0.0563
20167TIP3    H181992   2.602   1.638  10.595  0.4224 -2.2020 -2.4467
20167TIP3    H281993   2.455   1.672  10.580  0.8184 -0.0035 -1.8091
20168TIP3   OH281994   3.498   5.367  13.627  0.6727  1.0241  0.3887
20168TIP3    H181995   3.578   5.314  13.633 -0.3682 -0.5264  1.3328
20168TIP3    H281996   3.508   5.416  13.546  1.7498 -0.5412 -0.4745
20169TIP3   OH281997   5.638   4.445  16.556 -0.3185 -0.4327 -0.8621
20169TIP3    H181998   5.686   4.523  16.528  0.6557 -0.4432  0.6548
20169TIP3    H281999   5.641   4.449  16.652 -3.1145 -0.6041 -0.6979
20170TIP3   OH282000   2.818   1.126  14.313  0.1636  0.1688  0.2194
20170TIP3    H182001   2.801   1.185  14.239  0.4077  0.2798  0.2516
20170TIP3    H282002   2.874   1.057  14.277  1.0403  0.7131  0.5097
20171TIP3   OH282003   1.643   2.058  12.220  0.3978 -0.0016  0.1983
20171TIP3    H182004   1.620   2.090  12.307 -0.5736 -0.2937  0.0585
20171TIP3    H282005   1.739   2.061  12.218  0.3930  1.2700  0.7931
20172TIP3   OH282006   6.675   1.926   2.962  0.3891 -0.5211 -0.3887
20172TIP3    H182007   6.642   1.865   2.896 -0.5197 -0.3117 -0.1369
20172TIP3    H282008   6.609   1.925   3.031  1.0406 -0.2844  0.2489
20173TIP3   OH282009   0.232   5.411   2.367  0.2271  0.0137 -0.1775
20173TIP3    H182010   0.251   5.318   2.369 -0.9458 -0.2889 -1.8103
20173TIP3    H282011   0.262   5.443   2.452  0.5783 -1.8520  0.4399
20174TIP3   OH282012   0.830   3.592   2.481  1.0372 -0.0447  0.5133
20174TIP3    H182013   0.887   3.519   2.457  1.2786  0.7331 -1.4295
20174TIP3    H282014   0.875   3.670   2.447 -0.7251  0.6797 -0.2771
20175TIP3   OH282015   0.642   3.904  13.867 -0.0088  0.0209  0.0855
20175TIP3    H182016   0.657   3.836  13.802 -0.4947  2.4131 -2.7206
20175TIP3    H282017   0.721   3.902  13.922  1.5438 -0.6362 -2.0255
20176TIP3   OH282018   0.648   4.630  15.858 -0.0889 -0.4804  0.7384
20176TIP3    H182019   0.563   4.586  15.850  0.3056 -1.6174  2.2398
20176TIP3    H282020   0.697   4.575  15.919  1.7604  0.1318 -0.1466
20177TIP3   OH282021   0.114   0.226   4.360  0.9451 -0.3518 -0.2322
20177TIP3    H182022   0.073   0.307   4.393  0.7328 -0.2642 -0.7059
20177TIP3    H282023   0.197   0.256   4.322  0.8545 -0.3522 -0.4305
20178TIP3   OH282024   6.686   1.595  12.503  0.9409  0.3830 -0.3996
20178TIP3    H182025   6.761   1.536  12.511  0.9664  0.5434  0.6615
20178TIP3    H282026   6.624   1.546  12.449  0.5626 -1.0659  1.2507
20179TIP3   OH282027   2.323   2.428  15.551 -0.4758  0.3934 -0.0225
20179TIP3    H182028   2.329   2.373  15.629  3.4713  1.5929  0.7370
20179TIP3    H282029   2.297   2.514  15.584  0.1775  0.6473 -0.1556
20180TIP3   OH282030   5.374   6.387   3.009  0.2157 -0.4637 -0.5236
20180TIP3    H182031   5.371   6.312   3.069 -0.0176 -0.4170 -0.4729
20180TIP3    H282032   5.402   6.460   3.064 -0.9892 -0.2025 -0.2231
20181TIP3   OH282033   5.096   5.804  14.751 -0.7274 -0.1410  0.1434
20181TIP3    H182034   5.155   5.854  14.807 -1.3781 -0.7978  1.4429
20181TIP3    H282035   5.070   5.866  14.682 -0.2904  0.8220  0.8262
20182TIP3   OH282036   3.651   0.151  12.652 -1.0171  0.2458 -0.3662
20182TIP3    H182037   3.717   0.107  12.705 -2.9448 -1.1775  0.9796
20182TIP3    H282038   3.675   0.244  12.657  0.0899 -0.0829  1.2046
20183TIP3   OH282039   0.125   0.439  12.958  0.2667  0.0932  0.2396
20183TIP3    H182040   0.051   0.437  12.898 -0.1030 -0.4379  0.7002
20183TIP3    H282041   0.131   0.531  12.986  0.3478  0.3133 -0.4766
20184TIP3   OH282042   3.599   2.857   1.222 -0.0833  0.0401 -0.1395
20184TIP3    H182043   3.511   2.872   1.256 -0.3324 -0.5541 -0.5134
20184TIP3    H282044   3.657   2.880   1.295 -0.4814  1.5523 -0.2600
20185TIP3   OH282045   3.133   4.062  13.843  0.3456  0.3431 -0.6304
20185TIP3    H182046   3.157   3.972  13.819 -2.3851 -0.4169 -0.8500
20185TIP3    H282047   3.038   4.064  13.835  0.3227  3.2724 -0.5509
20186TIP3   OH282048   4.029   1.066   0.967  0.7574  0.6135 -0.8748
20186TIP3    H182049   4.054   1.081   1.058 -0.2511 -0.2896 -0.4348
20186TIP3    H282050   3.985   1.147   0.941 -2.5726 -0.4991  0.7598
20187TIP3   OH282051   3.747   1.463   1.241 -0.3724  0.5087 -0.1519
20187TIP3    H182052   3.736   1.368   1.238  1.1889  0.3371 -1.3261
20187TIP3    H282053   3.665   1.498   1.205 -0.2661 -0.4606 -1.3880
20188TIP3   OH282054   0.313   5.803   4.432 -0.2053  0.7227  0.2117
20188TIP3    H182055   0.340   5.850   4.354 -0.6301  0.4576 -0.0995
20188TIP3    H282056   0.392   5.757   4.461  0.8424  3.2523  1.7621
20189TIP3   OH282057   0.349   3.784  12.118 -0.0825  0.4409 -0.2842
20189TIP3    H182058   0.417   3.844  12.088  0.0404  0.2486 -0.3897
20189TIP3    H282059   0.285   3.841  12.160 -0.0965  0.6778 -0.6168
20190TIP3   OH282060   0.518   2.030   3.933 -0.2242 -0.0375 -0.1616
20190TIP3    H182061   0.428   2.052   3.958  0.7972 -0.0396  4.2168
20190TIP3    H282062   0.537   1.950   3.981  2.0198 -0.2981 -1.3793
20191TIP3   OH282063   0.454   5.540   3.668  0.0443  0.2171  0.3587
20191TIP3    H182064   0.422   5.540   3.578  0.0071 -1.0113  0.3531
20191TIP3    H282065   0.520   5.610   3.670 -0.1719  0.4550 -0.5394
20192TIP3   OH282066   6.343   6.701   0.154  0.2793 -0.4751 -0.0332
20192TIP3    H182067   6.331   6.705   0.249  0.3500  0.6263 -0.0577
20192TIP3    H282068   6.412   6.636   0.141 -0.1954 -1.1245  0.6150
20193TIP3   OH282069   6.600   1.712   1.098  0.6575 -0.1477  0.6162
20193TIP3    H182070   6.612   1.660   1.019 -1.1143 -0.0910  0.2670
20193TIP3    H282071   6.634   1.657   1.169  2.3518 -0.1563 -0.1674
20194TIP3   OH282072   6.750   1.036  15.279  0.4755  0.0153  0.2346
20194TIP3    H182073   6.702   1.055  15.359  0.0429  0.0387 -0.0274
20194TIP3    H282074   6.840   1.064  15.297  0.7096 -1.2572  1.2111
20195TIP3   OH282075   5.074   4.072   4.218  0.1000  0.3883 -0.0347
20195TIP3    H182076   5.029   4.130   4.280  1.2673  0.2111  1.0264
20195TIP3    H282077   5.166   4.098   4.224  0.4953 -0.8861 -0.3018
20196TIP3   OH282078   5.763   4.866   0.550  0.1801 -0.3477 -0.4065
20196TIP3    H182079   5.751   4.922   0.473 -1.0507  0.5939  0.4274
20196TIP3    H282080   5.848   4.892   0.585 -0.9538  2.0756  0.7504
20197TIP3   OH282081   5.934   4.493   2.317  0.1423 -0.1155  0.2295
20197TIP3    H182082   5.852   4.479   2.268  0.7585 -1.5122 -0.4787
20197TIP3    H282083   5.962   4.404   2.340  1.8016  0.2986 -0.1137
20198TIP3   OH282084   2.305   4.341   4.063  0.3925  0.0522 -0.2570
20198TIP3    H182085   2.362   4.368   3.991 -0.7453  0.7010 -0.9537
20198TIP3    H282086   2.335   4.393   4.138 -0.0234  1.2952 -0.9193
20199TIP3   OH282087   2.174   4.443  11.260 -0.0541 -0.0647 -0.0366
20199TIP3    H182088   2.086   4.455  11.224  0.1956  1.1369 -0.2758
20199TIP3    H282089   2.167   4.364  11.314 -0.9715 -0.6777 -1.0033
20200TIP3   OH282090   0.444   1.594   3.538 -0.2050  0.1453 -0.3396
20200TIP3    H182091   0.473   1.524   3.597  0.0871  0.0157 -0.6325
20200TIP3    H282092   0.412   1.547   3.460 -1.2355  0.2789 -0.0157
20201TIP3   OH282093   2.253   0.030   2.322 -0.0388  0.1588  0.2211
20201TIP3    H182094   2.283  -0.027   2.393 -1.5062  0.6289  1.2802
20201TIP3    H282095   2.316   0.102   2.320  2.1320 -1.6276 -1.4613
20202TIP3   OH282096   5.086   5.472  11.830 -0.3832  0.2333 -0.3070
20202TIP3    H182097   5.131   5.483  11.914 -0.1106 -1.6838 -0.1472
20202TIP3    H282098   5.099   5.555  11.785  0.7718  0.7724  0.9338
20203TIP3   OH282099   3.447   2.332   0.491 -0.2485 -0.2457  0.4774
20203TIP3    H182100   3.479   2.305   0.577 -0.1988  0.5299  0.7104
20203TIP3    H282101   3.360   2.370   0.508  0.5167  1.6086  0.4719
20204TIP3   OH282102   0.011   2.772   6.468 -0.2454 -0.2957  0.3373
20204TIP3    H182103   0.033   2.682   6.443 -0.4818 -0.1263 -0.5001
20204TIP3    H282104   0.050   2.826   6.400 -1.5005  0.1347 -0.0677
20205TIP3   OH282105   0.900   0.723  16.798  0.1188  0.1565 -0.5512
20205TIP3    H182106   0.860   0.745  16.714 -0.8016  2.7306  0.4642
20205TIP3    H282107   0.993   0.737  16.784 -0.0706  1.0272 -1.0429
20206TIP3   OH282108   3.131   4.709   0.208  0.2159 -0.2439 -0.0778
20206TIP3    H182109   3.063   4.644   0.189 -0.5612  0.8318 -1.1449
20206TIP3    H282110   3.136   4.762   0.129  2.0929 -0.0844  0.1001
20207TIP3   OH282111   0.045   5.882  11.080 -0.8031  0.3351  0.9181
20207TIP3    H182112   0.083   5.970  11.088 -1.3740  0.5004  1.9269
20207TIP3    H282113  -0.039   5.888  11.126 -2.3097  0.1028 -1.6197
20208TIP3   OH282114   4.119   3.462   3.385  0.8041 -0.2398  0.2226
20208TIP3    H182115   4.151   3.451   3.475 -0.6127 -0.5426  0.7186
20208TIP3    H282116   4.082   3.377   3.362 -2.7335  0.9078  1.0009
20209TIP3   OH282117   4.483   0.618   5.302 -0.0429  0.5383 -0.5048
20209TIP3    H182118   4.448   0.609   5.391  1.4808  2.1459  0.3159
20209TIP3    H282119   4.411   0.655   5.252 -1.2900 -1.3948 -0.2719
20210TIP3   OH282120   6.197   0.362   4.697  0.5801 -0.0144  0.2542
20210TIP3    H182121   6.102   0.363   4.687  0.6122  2.7935 -0.4166
20210TIP3    H282122   6.213   0.404   4.781  1.2733  1.1729 -0.4545
20211TIP3   OH282123   6.171   6.217   2.209 -0.0317 -0.1961 -0.6845
20211TIP3    H182124   6.144   6.179   2.126 -1.0083 -0.2733 -0.3548
20211TIP3    H282125   6.139   6.308   2.206 -0.9307 -0.4673 -0.0356
20212TIP3   OH282126   4.669   2.905  12.367  0.0081  0.0089  0.0075
20212TIP3    H182127   4.613   2.908  12.445  1.0957 -1.4262  0.8972
20212TIP3    H282128   4.653   2.989  12.323 -0.3925  1.0207  1.9474
20213TIP3   OH282129   3.706   1.551   6.235 -0.1640  0.6610 -0.0416
20213TIP3    H182130   3.657   1.617   6.185  0.3839  1.1800  0.1000
20213TIP3    H282131   3.772   1.601   6.283  0.7962 -0.0607 -0.5612
20214TIP3   OH282132   6.615   3.655   4.105  0.3930 -0.0115 -0.3680
20214TIP3    H182133   6.574   3.676   4.021  2.4014 -1.6361 -1.8702
20214TIP3    H282134   6.645   3.565   4.095  1.9108  0.1999  1.5821
20215TIP3   OH282135   4.144   1.655   1.354 -0.0245 -0.4599  0.0714
20215TIP3    H182136   4.148   1.610   1.438  0.7064  0.3317  0.4795
20215TIP3    H282137   4.224   1.708   1.352  0.5463 -1.2986 -1.6012
20216TIP3   OH282138   2.392   3.015  13.221  0.6135  0.3740  0.5500
20216TIP3    H182139   2.424   3.091  13.174  1.0335  0.6957  1.3235
20216TIP3    H282140   2.444   2.942  13.187 -0.5081  0.2293 -0.9408
20217TIP3   OH282141   4.372   0.744  12.210  0.4079  0.4145 -0.2609
20217TIP3    H182142   4.428   0.668  12.194  0.8887  0.8266 -0.5725
20217TIP3    H282143   4.292   0.708  12.247  0.3943 -0.3019 -0.9737
20218TIP3   OH282144   1.258   0.909   4.067 -0.2703  0.4701  0.6381
20218TIP3    H182145   1.185   0.965   4.040  1.4539  1.4582 -2.4381
20218TIP3    H282146   1.325   0.970   4.097  0.3963 -0.1607  0.4618
20219TIP3   OH282147   0.852   6.353   4.997  0.2238  0.3184 -0.1402
20219TIP3    H182148   0.863   6.346   5.091 -2.9725  0.0333  0.3051
20219TIP3    H282149   0.840   6.263   4.967  0.2351  0.4948 -0.6886
20220TIP3   OH282150   5.099   1.526  15.149  0.1163  0.0442 -0.1989
20220TIP3    H182151   5.157   1.520  15.225  0.7099  0.2793 -0.6255
20220TIP3    H282152   5.012   1.539  15.186  0.5356  1.2146  0.4217
20221TIP3   OH282153   0.902   4.330  15.690  0.2525 -0.0347 -0.0459
20221TIP3    H182154   0.829   4.372  15.644  0.5092  0.6385  0.1544
20221TIP3    H282155   0.969   4.398  15.696 -0.1309  0.2358  2.2030
20222TIP3   OH282156   2.345   2.147  15.285 -0.1021 -0.2578  0.4295
20222TIP3    H182157   2.433   2.185  15.293 -0.0999 -0.0980 -0.2870
20222TIP3    H282158   2.326   2.113  15.372  1.1460 -1.3597  0.2989
20223TIP3   OH282159   4.750   4.152  13.727 -0.6463 -0.0951 -0.5506
20223TIP3    H182160   4.702   4.219  13.678 -0.0641  0.8601  0.1583
20223TIP3    H282161   4.840   4.184  13.727 -1.0385  1.6123  3.7360
20224TIP3   OH282162   1.521   3.098  13.784 -0.4143 -0.0423  0.1574
20224TIP3    H182163   1.496   3.110  13.693  1.6998  0.1375 -0.4493
20224TIP3    H282164   1.617   3.092  13.783 -0.2817  0.5153  2.4116
20225TIP3   OH282165   0.142   4.092  11.806  0.6525  0.2035 -0.1898
20225TIP3    H182166   0.118   4.001  11.826 -0.0635  0.1562 -1.2145
20225TIP3    H282167   0.145   4.096  11.711 -0.9528  1.6462 -0.2291
20226TIP3   OH282168   2.532   5.376   5.876  0.2099  0.1258  0.6798
20226TIP3    H182169   2.491   5.420   5.950  1.6354 -0.7353  2.0379
20226TIP3    H282170   2.472   5.304   5.855 -1.6668  2.0375 -0.9662
20227TIP3   OH282171   5.794   5.952   3.434  0.4348  0.0455  0.0781
20227TIP3    H182172   5.777   6.014   3.505 -0.4287  0.3553 -0.3739
20227TIP3    H282173   5.854   5.998   3.375 -0.2894  0.5172 -0.3121
20228TIP3   OH282174   3.730   3.119   1.486 -0.2254  0.2080  0.4162
20228TIP3    H182175   3.666   3.093   1.552 -1.5306 -1.7654 -1.5005
20228TIP3    H282176   3.687   3.188   1.435 -0.1644  0.0537  0.1518
20229TIP3   OH282177   3.438   4.473   5.720  0.9985  0.0830 -0.4607
20229TIP3    H182178   3.395   4.558   5.707  2.1240  0.4391 -2.2661
20229TIP3    H282179   3.531   4.491   5.707  1.1776 -1.5684 -1.8019
20230TIP3   OH282180   1.601   0.181  13.905 -0.5229  0.4918 -0.2485
20230TIP3    H182181   1.549   0.188  13.985 -1.3290  1.5805 -0.8362
20230TIP3    H282182   1.626   0.088  13.901 -1.0047  0.2912  0.9220
20231TIP3   OH282183   5.756   5.267   1.164  0.2171  0.1380 -0.4135
20231TIP3    H182184   5.843   5.296   1.135 -0.1138 -0.3686 -2.0303
20231TIP3    H282185   5.760   5.171   1.160 -0.6128  0.1176 -1.2001
20232TIP3   OH282186   0.491   1.363  11.831 -0.0055 -0.0861 -0.3346
20232TIP3    H182187   0.422   1.361  11.897 -1.2745  1.3684 -1.5352
20232TIP3    H282188   0.525   1.452  11.834  1.4220 -0.6175 -0.1837
20233TIP3   OH282189   4.824   3.456   3.030  0.3256 -1.1219 -0.0586
20233TIP3    H182190   4.844   3.392   2.961 -2.1451 -2.6439  0.4964
20233TIP3    H282191   4.730   3.470   3.022  0.5462  1.3036  0.8862
20234TIP3   OH282192   1.391   0.990   3.206 -0.1427 -0.1931 -0.4415
20234TIP3    H182193   1.308   0.947   3.223 -1.1721  1.6084 -0.6741
20234TIP3    H282194   1.442   0.926   3.156 -2.2128 -0.5659 -2.2205
20235TIP3   OH282195   3.186   3.014  13.200 -0.1526 -0.0856 -0.0693
20235TIP3    H182196   3.153   3.029  13.288  0.9124 -0.6739  0.4513
20235TIP3    H282197   3.204   2.920  13.196  0.2002  0.0034 -0.7668
20236TIP3   OH282198   5.846   2.455  12.974  0.0194  0.4578 -0.2758
20236TIP3    H182199   5.867   2.453  12.881  1.2888  1.0049 -0.0338
20236TIP3    H282200   5.793   2.534  12.986 -2.0985 -0.7959 -0.8584
20237TIP3   OH282201   1.106   4.839  11.185 -0.0688 -0.3797  0.5983
20237TIP3    H182202   1.071   4.754  11.158 -1.1870  0.1332  0.3690
20237TIP3    H282203   1.047   4.868  11.255  0.8914 -0.2293  1.3758
20238TIP3   OH282204   2.251   6.486   4.987 -0.7143 -0.0315 -0.0654
20238TIP3    H182205   2.278   6.442   5.068 -2.1097  0.1952  0.5474
20238TIP3    H282206   2.287   6.574   4.995 -0.6621 -0.0761  0.2121
20239TIP3   OH282207   4.827   4.614   5.121  0.6962 -0.4328 -0.2262
20239TIP3    H182208   4.867   4.567   5.048  0.0158  0.4832 -1.2355
20239TIP3    H282209   4.897   4.670   5.154  0.8344 -0.3722 -0.6136
20240TIP3   OH282210   5.062   3.189  11.900  0.4342 -0.0640 -0.1227
20240TIP3    H182211   5.093   3.102  11.924  1.2390 -0.0049 -0.8609
20240TIP3    H282212   5.037   3.230  11.983 -1.3901 -1.5053  0.0891
20241TIP3   OH282213   2.008   6.716   3.530  0.7298  0.0959 -0.2763
20241TIP3    H182214   1.981   6.629   3.560  1.5312  0.3503  1.2957
20241TIP3    H282215   2.101   6.722   3.553  0.6892  1.3582 -0.3536
20242TIP3   OH282216   1.470   6.357   1.813  0.7218 -0.4422  0.0285
20242TIP3    H182217   1.508   6.309   1.887 -3.3289 -1.6596  1.5993
20242TIP3    H282218   1.429   6.433   1.852 -0.0198 -0.1679 -1.2286
20243TIP3   OH282219   3.847   3.399  16.162  0.1864  0.1948 -0.2348
20243TIP3    H182220   3.885   3.475  16.117 -2.5466  0.6846 -1.9342
20243TIP3    H282221   3.753   3.416  16.164 -0.1988 -1.6690  2.3171
20244TIP3   OH282222   1.880   2.270  15.819 -0.8635 -0.7621  0.2365
20244TIP3    H182223   1.960   2.315  15.846 -1.4558  0.5380 -0.0948
20244TIP3    H282224   1.840   2.242  15.901  0.1504 -1.8664  0.3857
20245TIP3   OH282225   2.536   3.104   4.324 -0.0653  0.8066 -0.1594
20245TIP3    H182226   2.443   3.097   4.345 -0.4944  2.2554 -1.3543
20245TIP3    H282227   2.549   3.198   4.311  1.3967  0.5318 -0.7730
20246TIP3   OH282228   6.010   6.527  12.340  0.7182  0.1008 -0.2849
20246TIP3    H182229   5.991   6.581  12.263  0.7920  0.4301 -0.0739
20246TIP3    H282230   5.942   6.550  12.403  0.9926  0.2573 -0.0419
20247TIP3   OH282231   5.633   4.306   4.836 -0.1307 -0.0174  0.2107
20247TIP3    H182232   5.558   4.324   4.892  1.4449  1.8748  1.9044
20247TIP3    H282233   5.698   4.372   4.862  1.7360 -0.8929 -1.8963
20248TIP3   OH282234   6.537   5.164   2.545  0.3843 -0.0115 -0.6882
20248TIP3    H182235   6.551   5.245   2.592 -1.6165 -0.3075  0.5237
20248TIP3    H282236   6.584   5.176   2.462  0.2571  2.3030 -0.4858
20249TIP3   OH282237   6.133   5.805   1.629  0.1933  1.1940  0.1118
20249TIP3    H182238   6.168   5.740   1.689  0.9944  0.6210 -0.9475
20249TIP3    H282239   6.060   5.760   1.586 -0.7843  1.8099  1.0721
20250TIP3   OH282240   2.129   0.464   0.913  0.4731 -0.1366 -0.4818
20250TIP3    H182241   2.043   0.422   0.918  0.8405 -0.7661  0.7498
20250TIP3    H282242   2.148   0.491   1.002  0.9556  1.2581 -0.9807
20251TIP3   OH282243   4.825   2.522   1.030 -0.5064 -0.2541  0.5606
20251TIP3    H182244   4.756   2.569   1.077 -2.5784 -0.5434 -1.9479
20251TIP3    H282245   4.895   2.586   1.019 -1.5313  0.9393  0.8026
20252TIP3   OH282246   3.917   0.661  14.749  0.3038  0.3084 -0.1497
20252TIP3    H182247   3.824   0.651  14.728  0.5315 -2.4852 -0.2936
20252TIP3    H282248   3.920   0.666  14.844 -0.0953  2.9469 -0.2191
20253TIP3   OH282249   1.373   4.729  14.179 -0.7410 -0.6569  0.2338
20253TIP3    H182250   1.331   4.648  14.208  0.6462 -1.4667  0.0739
20253TIP3    H282251   1.454   4.733  14.230 -1.0310  0.9155  0.6134
20254TIP3   OH282252   4.775   2.667   0.461  0.1004  0.0389 -0.0166
20254TIP3    H182253   4.808   2.579   0.477 -1.0837 -0.3019  0.6526
20254TIP3    H282254   4.739   2.695   0.546 -1.2852  0.3946 -0.7046
20255TIP3   OH282255   2.335   1.465  15.610  0.0065 -0.2353  0.4185
20255TIP3    H182256   2.298   1.549  15.583 -1.8473 -0.3039  2.4710
20255TIP3    H282257   2.396   1.442  15.540 -2.9471  0.4815 -2.7184
20256TIP3   OH282258   1.294   0.175   0.834 -0.0270  0.2171 -0.1434
20256TIP3    H182259   1.245   0.243   0.787 -0.2683 -0.1632 -0.4403
20256TIP3    H282260   1.385   0.192   0.810  0.3781  2.7047  2.6207
20257TIP3   OH282261   6.830   5.024  14.408  0.2241  0.3475  0.0511
20257TIP3    H182262   6.768   4.978  14.351  1.2015  0.3233 -1.0338
20257TIP3    H282263   6.775   5.078  14.464 -0.8006  0.0632 -0.6452
20258TIP3   OH282264   3.037   5.989  13.203 -0.6615  0.5053  0.0129
20258TIP3    H182265   3.081   5.986  13.119  0.5156  2.7649  0.4658
20258TIP3    H282266   3.002   5.901  13.215  2.6851 -1.1258 -0.9521
20259TIP3   OH282267   3.684   6.177   3.454 -0.4866 -0.2016 -0.1503
20259TIP3    H182268   3.723   6.251   3.500 -0.4369 -0.2385 -0.1323
20259TIP3    H282269   3.725   6.179   3.367  0.6607 -1.1020  0.3308
20260TIP3   OH282270   6.434   4.439   5.899 -0.1562 -0.5818  0.2570
20260TIP3    H182271   6.394   4.508   5.846  0.6286 -0.3102 -0.0037
20260TIP3    H282272   6.364   4.410   5.958 -0.9977 -0.7595 -0.7875
20261TIP3   OH282273   2.517   3.320  11.157  0.5637 -0.3852  0.0308
20261TIP3    H182274   2.541   3.251  11.219  1.1464  0.5247  0.8379
20261TIP3    H282275   2.525   3.278  11.071 -0.2028 -1.6548  0.5357
20262TIP3   OH282276   6.791   1.411   5.241  0.2194 -0.4668  0.5246
20262TIP3    H182277   6.740   1.476   5.289 -2.0489 -1.1834 -0.7869
20262TIP3    H282278   6.777   1.329   5.288  1.8187 -0.3471  1.2758
20263TIP3   OH282279   4.916   2.718   2.057 -0.0991  0.1820  0.5297
20263TIP3    H182280   4.824   2.709   2.084  0.2633 -0.8857  1.5046
20263TIP3    H282281   4.953   2.782   2.119 -0.2599  0.9050 -0.1039
20264TIP3   OH282282   6.229   3.970   2.591 -0.3259 -0.1945  0.0760
20264TIP3    H182283   6.297   4.014   2.540  0.2653 -0.2063  0.8362
20264TIP3    H282284   6.220   3.883   2.551 -0.5267  0.1240 -0.5744
20265TIP3   OH282285   2.458   2.089   6.255  0.1484  0.0637 -0.4322
20265TIP3    H182286   2.536   2.143   6.247  0.3609 -0.0242  0.8366
20265TIP3    H282287   2.491   2.001   6.271 -0.1520  0.4032  2.4967
20266TIP3   OH282288   5.816   2.050  12.375  0.0589  0.0983 -0.0328
20266TIP3    H182289   5.793   1.978  12.433 -0.7305 -0.2248 -0.7396
20266TIP3    H282290   5.868   2.009  12.306 -1.0898  0.0441 -0.8884
20267TIP3   OH282291   4.159   5.179   3.404  0.2788 -0.1731  0.2969
20267TIP3    H182292   4.115   5.096   3.382  1.6191 -0.1145 -3.2050
20267TIP3    H282293   4.097   5.247   3.377  0.0126 -0.0177  1.2638
20268TIP3   OH282294   1.485   2.191   2.731 -0.2131 -0.1522  0.5838
20268TIP3    H182295   1.473   2.184   2.825 -1.3501 -3.2571  0.2994
20268TIP3    H282296   1.439   2.272   2.707 -1.7210 -0.3963  2.4190
20269TIP3   OH282297   1.643   5.860   1.020  0.1387  0.0476  0.1085
20269TIP3    H182298   1.567   5.801   1.014  0.1110  0.1186 -0.2642
20269TIP3    H282299   1.675   5.866   0.930 -0.0917  0.9016  0.0755
20270TIP3   OH282300   6.151   1.643   6.580  0.4650 -0.4446  0.3609
20270TIP3    H182301   6.113   1.727   6.604  0.4799 -0.9819  2.4655
20270TIP3    H282302   6.087   1.603   6.521 -0.7023  0.0359  1.2598
20271TIP3   OH282303   2.729   5.271   4.965  0.2224  0.3479 -0.1167
20271TIP3    H182304   2.636   5.270   4.942  0.6520  1.0062 -2.0820
20271TIP3    H282305   2.731   5.250   5.058 -1.6709 -2.9930 -0.6772
20272TIP3   OH282306   5.066   4.386   1.911 -0.1735 -0.0300 -0.0714
20272TIP3    H182307   5.011   4.445   1.859  1.0449  1.9335  0.7680
20272TIP3    H282308   5.146   4.377   1.860  0.0545 -0.1335  0.3018
20273TIP3   OH282309   4.273   5.702   6.606  0.1696 -0.1506  0.0602
20273TIP3    H182310   4.360   5.665   6.595 -0.1279 -0.2289 -2.6577
20273TIP3    H282311   4.288   5.797   6.610  0.3607 -0.1501 -0.6485
20274TIP3   OH282312   1.090   6.464  11.795 -0.2488  0.3516  0.0168
20274TIP3    H182313   1.080   6.553  11.828  0.6139  1.0231 -1.4091
20274TIP3    H282314   1.079   6.472  11.700 -0.2005 -1.0660 -0.1380
20275TIP3   OH282315   0.330   3.558   3.253 -0.3597  0.1688 -0.1196
20275TIP3    H182316   0.311   3.600   3.337 -0.7779  0.0167 -0.1388
20275TIP3    H282317   0.251   3.509   3.231 -0.1499 -0.0232 -0.4664
20276TIP3   OH282318   6.585   6.207  11.110  0.3003  0.2264 -0.0735
20276TIP3    H182319   6.529   6.209  11.032  0.6365  0.1803 -0.3237
20276TIP3    H282320   6.590   6.115  11.134 -0.6303  0.3491  0.6209
20277TIP3   OH282321   5.600   0.552   4.178  0.2717  0.3736  0.1964
20277TIP3    H182322   5.658   0.571   4.251  0.9818 -0.8262 -0.0304
20277TIP3    H282323   5.533   0.494   4.215  0.0444  0.5965  0.1331
20278TIP3   OH282324   6.331   5.277  14.263 -0.2697  0.1528  0.5996
20278TIP3    H182325   6.307   5.257  14.354 -1.5212 -1.5533 -0.0511
20278TIP3    H282326   6.249   5.303  14.222 -0.0696 -0.8399 -0.4683
20279TIP3   OH282327   0.296   4.483   1.000  0.1426  0.1750  0.6730
20279TIP3    H182328   0.262   4.570   1.019 -1.9424 -0.4355 -0.0181
20279TIP3    H282329   0.314   4.484   0.906  1.5152  0.2706  0.9076
20280LIG      O82330   3.470   3.528  16.537 -0.0990 -0.2325  0.3298
20280LIG     C182331   3.473   3.382  16.521  0.2402  0.2053 -0.0435
20280LIG     C282332   3.338   3.328  16.472 -0.2825  0.1995 -0.7777
20280LIG     C382333   3.578   3.345  16.427 -0.1642 -0.1704 -0.2057
20280LIG     H182334   3.500   3.340  16.620  1.2532  0.4109 -0.2199
20280LIG     H282335   3.323   3.358  16.366  0.5142  1.4164 -0.5674
20280LIG     H382336   3.256   3.365  16.538  0.9858 -1.7601  2.0794
20280LIG     H482337   3.329   3.218  16.480  0.6934  0.2735  3.0415
20280LIG     H582338   3.677   3.382  16.462  1.5130 -2.0325 -2.6309
20280LIG     H682339   3.564   3.378  16.322  1.7753 -1.3236 -0.8818
20280LIG     H782340   3.599   3.236  16.424 -2.1049 -0.5473 -1.8246
20280LIG     H882341   3.437   3.556  16.622  1.7202  4.0033 -0.1050
   6.83120   6.83120  17.20549
